Title
82299
    1SAPS     N    1   3.323   2.482  10.980  0.4448  0.3758  0.2984
    1SAPS   HN1    2   3.393   2.504  10.907  2.2431  0.1901  1.8959
    1SAPS   HN2    3   3.231   2.465  10.933  0.4920 -0.4548  0.4905
    1SAPS   HN3    4   3.311   2.558  11.050 -0.2318 -1.5393  2.3578
    1SAPS   C12    5   3.358   2.352  11.052 -0.3098 -0.2148 -0.1156
    1SAPS  H12A    6   3.373   2.279  10.973  2.8868  0.9091 -0.7326
    1SAPS   C13    7   3.490   2.374  11.128  0.2908  0.1516  0.3681
    1SAPS  O13A    8   3.560   2.477  11.109  0.0341  0.2257 -0.0475
    1SAPS  O13B    9   3.521   2.286  11.209 -0.8304 -0.5021 -0.4285
    1SAPS   C11   10   3.236   2.304  11.137 -0.2260 -0.6261  0.2789
    1SAPS  H11A   11   3.209   2.390  11.201 -0.0533  0.0595 -0.5537
    1SAPS  H11B   12   3.275   2.222  11.202  0.0393 -1.3995 -0.8253
    1SAPS     P   13   2.995   2.188  11.109 -0.4756  0.4483 -0.1371
    1SAPS   O13   14   3.031   2.077  11.198 -0.4085 -0.0932 -0.3692
    1SAPS   O14   15   2.898   2.290  11.165 -0.2362  0.1837 -0.0772
    1SAPS   O12   16   3.132   2.255  11.050  0.1448  0.2707  0.2423
    1SAPS   O11   17   2.937   2.128  10.969 -0.4133 -0.1673 -0.4768
    1SAPS    C1   18   2.904   2.218  10.863 -0.3281 -0.2057  0.0791
    1SAPS    HA   19   2.961   2.314  10.862 -0.4591 -0.1231  0.2897
    1SAPS    HB   20   2.933   2.167  10.769 -1.7109  1.1864 -1.1397
    1SAPS    C2   21   2.754   2.243  10.847  0.1851  0.0774 -0.5990
    1SAPS    HS   22   2.723   2.280  10.947  1.4255  0.4374 -0.3360
    1SAPS   O21   23   2.689   2.121  10.818  0.2262 -0.1089  0.2717
    1SAPS   C21   24   2.565   2.108  10.859  0.2752 -0.1365 -0.2621
    1SAPS   O22   25   2.508   2.191  10.928  0.0397  0.0859 -0.4029
    1SAPS   C22   26   2.501   1.974  10.811 -0.1374  0.1875  0.0900
    1SAPS   H2R   27   2.550   1.949  10.715  1.5646 -0.7932  1.1726
    1SAPS   H2S   28   2.518   1.890  10.881  0.5830 -1.0355 -1.4769
    1SAPS    C3   29   2.716   2.351  10.746 -0.2449 -0.4257  0.9013
    1SAPS    HX   30   2.744   2.454  10.778  0.8392 -0.7057  0.8882
    1SAPS    HY   31   2.605   2.359  10.735 -0.0028  2.1320 -0.6009
    1SAPS   O31   32   2.769   2.326  10.613 -0.5792 -0.2264 -0.1817
    1SAPS   C31   33   2.880   2.399  10.586  0.4417 -0.9195  0.5600
    1SAPS   O32   34   2.938   2.479  10.653 -0.4757 -0.1082 -0.0767
    1SAPS   C32   35   2.916   2.360  10.442 -0.7597  0.1705 -0.0474
    1SAPS   H2X   36   2.890   2.254  10.418 -1.0853  0.1736  0.2791
    1SAPS   H2Y   37   3.026   2.360  10.429 -0.6816  1.9616  0.3485
    1SAPS   C23   38   2.349   1.987  10.771 -0.3833  0.1326  0.6550
    1SAPS   H3R   39   2.295   2.061  10.834  0.2533  1.2545 -0.0862
    1SAPS   H3S   40   2.302   1.888  10.788 -0.7043  0.3358  0.9550
    1SAPS   C24   41   2.331   2.026  10.619 -0.0119  0.6159 -0.5368
    1SAPS   H4R   42   2.336   1.939  10.550 -1.5273  0.3075 -0.2957
    1SAPS   H4S   43   2.418   2.088  10.590  0.5672 -0.8813 -2.1725
    1SAPS   C25   44   2.202   2.103  10.594  1.1142 -0.1416  0.4259
    1SAPS   H5R   45   2.185   2.186  10.664  2.1466 -0.6237  1.2685
    1SAPS   C26   46   2.107   2.076  10.505 -0.4079  0.1189  0.1803
    1SAPS   H6R   47   2.016   2.138  10.502  0.7015  2.0454  2.4616
    1SAPS   C27   48   2.121   1.959  10.412 -1.0590 -0.2847  0.8680
    1SAPS   H7R   49   2.226   1.949  10.376 -0.2422  3.6697  1.6321
    1SAPS   H7S   50   2.073   1.998  10.320 -2.4009 -0.6300  1.3979
    1SAPS   C28   51   2.053   1.832  10.458 -0.3735  0.1717  0.9020
    1SAPS   H8R   52   2.096   1.805  10.556 -0.5687  0.9058  1.2019
    1SAPS   C29   53   1.949   1.780  10.399  0.1367 -0.0887  0.3019
    1SAPS   H9R   54   1.917   1.682  10.437  0.0693 -0.7878 -1.4295
    1SAPS  C210   55   1.887   1.829  10.271 -0.4228 -0.4854 -0.4730
    1SAPS  H10R   56   1.962   1.810  10.192 -0.6426 -0.3351 -0.7232
    1SAPS  H10S   57   1.866   1.938  10.281  0.2337 -0.4508  0.7596
    1SAPS  C211   58   1.764   1.766  10.230 -0.0159  0.2915 -0.5623
    1SAPS  H11R   59   1.705   1.722  10.312  0.0518  4.1106  1.7602
    1SAPS  C212   60   1.706   1.769  10.107  0.2482 -0.2948  0.0001
    1SAPS  H12R   61   1.614   1.711  10.090 -0.0259  0.2666 -0.4639
    1SAPS  C213   62   1.751   1.845   9.991 -0.6680  0.2745  0.0308
    1SAPS  H13R   63   1.838   1.794   9.944 -0.1868  1.6288 -0.5944
    1SAPS  H13S   64   1.774   1.950  10.022  1.6800 -0.7180  2.0000
    1SAPS  C214   65   1.650   1.850   9.885  0.0598 -0.1641 -1.2634
    1SAPS  H14R   66   1.594   1.945   9.893  1.0382  0.3223  0.6078
    1SAPS  C215   67   1.628   1.769   9.787 -0.7372 -0.2735 -0.1235
    1SAPS  H15R   68   1.548   1.795   9.716  0.4769 -0.5032 -1.6271
    1SAPS  C216   69   1.707   1.648   9.752  0.6571  0.4630 -0.5285
    1SAPS  H16R   70   1.644   1.557   9.737 -0.1673  0.7965  0.7915
    1SAPS  H16S   71   1.768   1.623   9.841  0.3535 -1.0471 -0.7151
    1SAPS  C217   72   1.797   1.667   9.628 -0.0510  0.4976 -0.9691
    1SAPS  H17R   73   1.882   1.594   9.629 -0.7944 -0.5506  2.6357
    1SAPS  H17S   74   1.844   1.767   9.637  0.9418 -0.0744  1.0746
    1SAPS  C218   75   1.710   1.645   9.501  0.4284 -0.3728  0.2610
    1SAPS  H18R   76   1.627   1.718   9.494  0.1728 -0.7650 -1.1499
    1SAPS  H18S   77   1.662   1.545   9.508 -1.5406  0.5913  1.3821
    1SAPS  C219   78   1.788   1.656   9.366 -0.3451  0.0059  0.3673
    1SAPS  H19R   79   1.887   1.604   9.366 -0.2275  0.0567 -2.5595
    1SAPS  H19S   80   1.810   1.764   9.349  0.4832 -0.3023 -0.6384
    1SAPS  C220   81   1.711   1.606   9.242  0.1528 -0.1817 -0.3589
    1SAPS  H20R   82   1.765   1.634   9.149 -2.7314  0.0580 -2.0957
    1SAPS  H20S   83   1.606   1.643   9.240 -0.4111 -1.6375  0.7170
    1SAPS  H20T   84   1.710   1.495   9.239  2.7822 -0.2653 -0.3940
    1SAPS   C33   85   2.851   2.441  10.330 -0.1514 -0.1740  0.1784
    1SAPS   H3X   86   2.890   2.545  10.329  0.2827 -0.3309  0.3751
    1SAPS   H3Y   87   2.743   2.456  10.352 -0.4852 -0.4287 -1.1838
    1SAPS   C34   88   2.864   2.373  10.186  0.0266 -0.3972 -1.2091
    1SAPS   H4X   89   2.807   2.435  10.113 -0.4197  0.1065 -0.4476
    1SAPS   H4Y   90   2.810   2.276  10.189 -0.4160 -0.1338  1.0453
    1SAPS   C35   91   3.007   2.342  10.147 -0.8819  0.0066  0.2886
    1SAPS   H5X   92   3.068   2.287  10.222  0.7347 -0.3736 -1.2436
    1SAPS   H5Y   93   3.056   2.440  10.126 -2.4479  1.0123  1.1073
    1SAPS   C36   94   3.011   2.250  10.016  0.8225 -0.8755 -0.5381
    1SAPS   H6X   95   2.937   2.170  10.036  0.2347 -0.6924 -1.8671
    1SAPS   H6Y   96   3.116   2.217  10.002 -0.1125 -4.3261 -0.3259
    1SAPS   C37   97   2.961   2.336   9.894  0.4611  0.6984 -0.0504
    1SAPS   H7X   98   3.045   2.394   9.850  1.5777 -1.3136 -0.7288
    1SAPS   H7Y   99   2.880   2.410   9.914  1.4405  2.5614 -2.5218
    1SAPS   C38  100   2.891   2.250   9.790 -0.3818 -0.0161 -0.4806
    1SAPS   H8X  101   2.870   2.302   9.695 -0.7991 -0.9148 -0.8879
    1SAPS   H8Y  102   2.795   2.209   9.829 -0.3170 -0.2768 -0.5960
    1SAPS   C39  103   2.984   2.135   9.747 -0.2921 -0.4888 -0.0371
    1SAPS   H9X  104   2.996   2.069   9.835  3.4343 -0.8985 -0.6698
    1SAPS   H9Y  105   3.086   2.179   9.738 -0.0337 -1.3164 -1.5782
    1SAPS  C310  106   2.940   2.045   9.631 -0.5965  0.7339  0.6270
    1SAPS  H10X  107   2.834   2.013   9.637 -0.6774  1.1081  1.2452
    1SAPS  H10Y  108   3.004   1.955   9.650 -0.7331  0.3355 -0.6456
    1SAPS  C311  109   2.971   2.102   9.491 -0.4313  0.8302  0.2185
    1SAPS  H11X  110   3.064   2.164   9.496  1.0872 -1.3757  1.2238
    1SAPS  H11Y  111   2.896   2.181   9.472 -1.2537  0.1410  0.5561
    1SAPS  C312  112   2.981   1.999   9.381  0.7084 -0.4680  0.3435
    1SAPS  H12X  113   2.898   1.927   9.394 -0.9766  1.2859 -0.0921
    1SAPS  H12Y  114   3.079   1.947   9.376  0.2230 -1.2523 -2.3425
    1SAPS  C313  115   2.963   2.078   9.249 -0.5449 -0.1142 -0.0261
    1SAPS  H13X  116   3.047   2.148   9.233 -0.6226  0.0780  0.3768
    1SAPS  H13Y  117   2.868   2.133   9.266 -0.8709 -0.5290 -0.4691
    1SAPS  C314  118   2.941   1.982   9.128  0.1763 -0.7854  0.8533
    1SAPS  H14X  119   2.841   1.932   9.128  0.0224 -0.5105 -0.6125
    1SAPS  H14Y  120   3.016   1.900   9.127 -0.1303 -1.1782  3.1625
    1SAPS  C315  121   2.946   2.058   8.995  0.4238  0.4052  0.0971
    1SAPS  H15X  122   3.047   2.099   8.973  1.4381 -1.8860  0.2052
    1SAPS  H15Y  123   2.880   2.146   8.979  0.7612  0.6112 -0.1767
    1SAPS  C316  124   2.903   1.962   8.880  0.2839  1.0322  0.1635
    1SAPS  H16X  125   2.811   1.904   8.903  1.4907 -0.9716  0.0810
    1SAPS  H16Y  126   2.987   1.891   8.867 -0.9492 -0.5630  0.6444
    1SAPS  C317  127   2.892   2.027   8.741  0.6178 -0.0273 -0.2414
    1SAPS  H17X  128   2.973   2.103   8.740  0.8463 -0.2748 -0.3987
    1SAPS  H17Y  129   2.793   2.078   8.748 -0.1860 -1.1458 -2.4224
    1SAPS  C318  130   2.905   1.936   8.620  0.1463  0.1892 -0.2323
    1SAPS  H18X  131   2.818   1.869   8.611 -0.9763  1.6906 -0.9061
    1SAPS  H18Y  132   2.999   1.880   8.641 -0.6461 -1.1867 -0.3184
    1SAPS  H18Z  133   2.923   1.989   8.524  1.6835 -3.2889 -2.0496
    2SAPS     N  134   1.267   2.647  10.970  0.3263  0.5602 -0.1126
    2SAPS   HN1  135   1.182   2.695  10.934  1.0307  0.3214 -2.2023
    2SAPS   HN2  136   1.283   2.672  11.070  1.4246  1.9506 -0.6102
    2SAPS   HN3  137   1.338   2.700  10.916 -1.3923  2.8409 -0.3183
    2SAPS   C12  138   1.275   2.498  10.938 -0.1088  0.2928  0.1501
    2SAPS  H12A  139   1.367   2.467  10.983  0.3586  1.5065  0.0914
    2SAPS   C13  140   1.163   2.402  10.979  0.0456 -0.2737 -0.1938
    2SAPS  O13A  141   1.066   2.455  11.048 -0.5463  0.2014 -0.4408
    2SAPS  O13B  142   1.173   2.282  10.964 -0.6585 -0.0323  0.1226
    2SAPS   C11  143   1.298   2.477  10.774 -0.1890 -0.0595 -0.7781
    2SAPS  H11A  144   1.212   2.504  10.710 -1.0089  0.4487  0.4940
    2SAPS  H11B  145   1.290   2.367  10.759  0.6544 -0.5981  2.0539
    2SAPS     P  146   1.554   2.442  10.706  0.1097 -0.2403 -0.3018
    2SAPS   O13  147   1.669   2.526  10.676 -0.3141  0.3275 -0.5663
    2SAPS   O14  148   1.562   2.343  10.815  0.1369 -0.3069  0.0732
    2SAPS   O12  149   1.426   2.531  10.727 -0.2135  0.1289 -0.5051
    2SAPS   O11  150   1.495   2.374  10.584 -0.0854  0.1650  0.5011
    2SAPS    C1  151   1.492   2.429  10.450  0.4379 -0.7067  0.1692
    2SAPS    HA  152   1.389   2.438  10.410  0.1595  1.2575  1.2132
    2SAPS    HB  153   1.525   2.535  10.445  1.8828 -1.1572 -0.2739
    2SAPS    C2  154   1.580   2.351  10.353 -0.3883 -0.0458 -0.0049
    2SAPS    HS  155   1.567   2.379  10.247  0.3270 -0.8434 -0.3084
    2SAPS   O21  156   1.545   2.210  10.372 -0.2355 -0.3179  0.2370
    2SAPS   C21  157   1.442   2.161  10.306 -0.3907  0.4039  0.3205
    2SAPS   O22  158   1.378   2.228  10.227 -0.0257 -0.6347 -0.2265
    2SAPS   C22  159   1.431   2.011  10.339  0.4251  0.6350  0.4143
    2SAPS   H2R  160   1.518   1.959  10.295  1.7912  0.5881  3.0110
    2SAPS   H2S  161   1.450   1.983  10.445  1.2477  0.5396  0.2439
    2SAPS    C3  162   1.731   2.374  10.391 -0.1086  0.1430  0.0855
    2SAPS    HX  163   1.750   2.343  10.496 -0.7920 -0.7294 -0.0370
    2SAPS    HY  164   1.752   2.483  10.388 -0.3967  0.1867 -2.2473
    2SAPS   O31  165   1.816   2.302  10.295  0.1505 -0.4767  0.2525
    2SAPS   C31  166   1.938   2.335  10.315 -0.8926 -0.4745  0.0640
    2SAPS   O32  167   1.982   2.405  10.406  1.0592  0.1908 -0.2914
    2SAPS   C32  168   2.033   2.268  10.209  0.1005  0.2906 -0.1792
    2SAPS   H2X  169   2.105   2.221  10.280 -1.4593  1.0161  1.9838
    2SAPS   H2Y  170   2.082   2.355  10.160  0.1428 -0.9662 -2.5227
    2SAPS   C23  171   1.307   1.947  10.274  0.4997  0.8530 -0.1466
    2SAPS   H3R  172   1.343   1.842  10.272  1.0688  1.0274  0.4511
    2SAPS   H3S  173   1.296   1.972  10.166 -2.0588 -2.2764 -0.7433
    2SAPS   C24  174   1.174   1.974  10.344  0.2033 -0.0416  0.6172
    2SAPS   H4R  175   1.161   2.083  10.357 -0.8745 -0.0568 -0.1461
    2SAPS   H4S  176   1.171   1.927  10.445 -0.7822 -1.9713 -0.2330
    2SAPS   C25  177   1.059   1.893  10.280  0.2047 -0.5498 -1.1521
    2SAPS   H5R  178   1.049   1.794  10.327 -2.5548  0.4627  0.6730
    2SAPS   C26  179   0.978   1.936  10.185  0.1468  0.5948 -0.3188
    2SAPS   H6R  180   0.916   1.861  10.134 -0.3059  1.6062 -1.2929
    2SAPS   C27  181   0.972   2.065  10.116 -0.7052  0.8969 -0.2243
    2SAPS   H7R  182   0.943   2.027  10.015  0.1653  2.1887 -0.9888
    2SAPS   H7S  183   1.067   2.119  10.096 -0.9183  1.4972  0.3268
    2SAPS   C28  184   0.869   2.162  10.179  0.5391  0.8402  0.0991
    2SAPS   H8R  185   0.904   2.203  10.275  2.2401  1.2495 -0.6641
    2SAPS   C29  186   0.747   2.185  10.127 -0.6435 -0.3463 -0.0798
    2SAPS   H9R  187   0.694   2.261  10.187 -0.6857 -0.0228 -0.5200
    2SAPS  C210  188   0.678   2.136  10.005 -0.0323 -0.3323 -0.2835
    2SAPS  H10R  189   0.580   2.098  10.041 -0.7614  0.8712 -0.9131
    2SAPS  H10S  190   0.724   2.054   9.946 -0.2475 -0.3250 -0.4641
    2SAPS  C211  191   0.634   2.253   9.917 -0.2981  0.4555 -0.3442
    2SAPS  H11R  192   0.577   2.328   9.973 -0.0657  1.3482 -1.2859
    2SAPS  C212  193   0.657   2.270   9.786  0.4261  0.0210 -0.0920
    2SAPS  H12R  194   0.595   2.346   9.738  2.0388  1.1545 -0.4525
    2SAPS  C213  195   0.735   2.183   9.688  1.2854 -0.6179 -0.3857
    2SAPS  H13R  196   0.815   2.130   9.745 -0.1650 -0.4750  1.8723
    2SAPS  H13S  197   0.789   2.241   9.610  0.8311  0.9005  0.4045
    2SAPS  C214  198   0.663   2.070   9.628  0.1701  0.1201  0.3384
    2SAPS  H14R  199   0.667   1.976   9.684  1.0796  1.2512  2.2539
    2SAPS  C215  200   0.585   2.068   9.518  0.9935  0.0691  0.3028
    2SAPS  H15R  201   0.541   1.975   9.479  0.2836  0.8856 -0.9123
    2SAPS  C216  202   0.561   2.202   9.449  0.2573 -0.1094  0.4239
    2SAPS  H16R  203   0.570   2.291   9.514 -0.6238  0.1203  0.2519
    2SAPS  H16S  204   0.452   2.209   9.426  0.4192  1.6989  0.0466
    2SAPS  C217  205   0.645   2.205   9.325  0.1619  0.7605  0.5793
    2SAPS  H17R  206   0.753   2.194   9.348 -0.1154 -1.0386  1.1138
    2SAPS  H17S  207   0.623   2.306   9.284 -0.9680  0.5705  0.6994
    2SAPS  C218  208   0.612   2.095   9.224  0.0856  0.3227  0.2804
    2SAPS  H18R  209   0.503   2.081   9.208  0.3258  0.4719 -1.8092
    2SAPS  H18S  210   0.650   1.996   9.258 -0.3442  0.3891  0.9743
    2SAPS  C219  211   0.687   2.108   9.089 -0.4483 -0.3310 -0.4587
    2SAPS  H19R  212   0.795   2.081   9.087 -0.6905 -1.5300  0.8074
    2SAPS  H19S  213   0.675   2.214   9.059 -0.7248  0.0553  0.9726
    2SAPS  C220  214   0.637   2.013   8.976 -0.0164  0.3109 -0.3895
    2SAPS  H20R  215   0.649   1.906   9.001  2.3337  1.0861  2.3151
    2SAPS  H20S  216   0.691   2.048   8.885  0.6690  1.7341  0.5224
    2SAPS  H20T  217   0.530   2.039   8.961  0.1254  0.7406 -0.7051
    2SAPS   C33  218   1.971   2.177  10.106 -0.3784  0.0041  0.0677
    2SAPS   H3X  219   1.869   2.155  10.143 -0.9944  0.0196 -1.5321
    2SAPS   H3Y  220   2.019   2.080  10.077 -0.3587  0.1189 -0.2952
    2SAPS   C34  221   1.944   2.242   9.967 -0.1363  0.3921  0.1381
    2SAPS   H4X  222   2.041   2.258   9.915 -1.0900 -1.4965 -2.4764
    2SAPS   H4Y  223   1.893   2.336   9.999  0.5384  0.1731  1.9483
    2SAPS   C35  224   1.853   2.167   9.873  0.4298 -0.3267 -0.3869
    2SAPS   H5X  225   1.753   2.150   9.920 -0.8446  1.0678 -2.4291
    2SAPS   H5Y  226   1.891   2.063   9.864  2.7142 -0.1538  4.2775
    2SAPS   C36  227   1.851   2.235   9.734 -0.9225  0.6115 -0.1294
    2SAPS   H6X  228   1.839   2.345   9.733 -0.1372  0.8905 -5.7034
    2SAPS   H6Y  229   1.768   2.186   9.679  0.7732 -1.7891 -0.6678
    2SAPS   C37  230   1.974   2.192   9.655 -0.5877 -0.2181  0.1266
    2SAPS   H7X  231   1.992   2.083   9.669  0.8610 -0.1262 -0.8113
    2SAPS   H7Y  232   2.063   2.241   9.700 -0.0837 -0.7564 -0.2697
    2SAPS   C38  233   1.981   2.225   9.503  0.2538 -0.3831  0.1326
    2SAPS   H8X  234   2.081   2.193   9.465  0.1381 -0.3128 -0.2344
    2SAPS   H8Y  235   1.969   2.335   9.499  0.7130 -0.3226  0.3203
    2SAPS   C39  236   1.876   2.158   9.408 -0.4835 -0.4863  0.0383
    2SAPS   H9X  237   1.778   2.202   9.437 -0.9507 -1.6869  0.3564
    2SAPS   H9Y  238   1.869   2.049   9.426  1.3191 -0.4610  1.2320
    2SAPS  C310  239   1.909   2.182   9.262  0.0489 -0.1619 -0.1021
    2SAPS  H10X  240   2.013   2.154   9.237 -1.0761 -3.2383 -1.8298
    2SAPS  H10Y  241   1.888   2.289   9.238 -3.3036 -0.7632 -0.3860
    2SAPS  C311  242   1.824   2.098   9.172  0.6599  0.1630  0.5256
    2SAPS  H11X  243   1.727   2.150   9.160 -0.2886 -1.6502 -0.0135
    2SAPS  H11Y  244   1.792   2.002   9.218 -0.3293  0.1267 -0.1953
    2SAPS  C312  245   1.885   2.063   9.036 -0.1325 -0.7965 -0.1064
    2SAPS  H12X  246   1.986   2.020   9.052 -0.3506 -0.8291  1.2287
    2SAPS  H12Y  247   1.894   2.159   8.980  3.5839 -0.5998  0.5991
    2SAPS  C313  248   1.802   1.967   8.962 -0.8652 -0.5932 -0.2694
    2SAPS  H13X  249   1.774   1.876   9.018 -0.7041 -0.5082 -0.0493
    2SAPS  H13Y  250   1.862   1.939   8.873 -1.8994 -0.9214 -0.8825
    2SAPS  C314  251   1.668   2.024   8.894 -0.1721  0.0330 -0.4826
    2SAPS  H14X  252   1.699   2.112   8.833  1.9224 -0.0823  0.3386
    2SAPS  H14Y  253   1.601   2.062   8.973 -0.1576 -4.1515  1.8371
    2SAPS  C315  254   1.606   1.923   8.800  0.3388  0.4446 -0.3329
    2SAPS  H15X  255   1.537   1.866   8.865 -1.0828  1.4666 -0.8890
    2SAPS  H15Y  256   1.687   1.856   8.761  0.5247 -0.7253  1.8983
    2SAPS  C316  257   1.530   1.984   8.684 -0.8895  0.1382 -0.1495
    2SAPS  H16X  258   1.599   2.030   8.609 -1.6620  2.1032  0.2771
    2SAPS  H16Y  259   1.449   2.047   8.725 -0.5156  0.2942  0.3650
    2SAPS  C317  260   1.452   1.869   8.609 -0.4696  0.2848 -0.8262
    2SAPS  H17X  261   1.380   1.824   8.681 -2.1113 -0.8058 -3.0634
    2SAPS  H17Y  262   1.513   1.779   8.587 -0.9750 -0.0815 -0.7317
    2SAPS  C318  263   1.391   1.904   8.477  0.4845 -0.2530  0.1650
    2SAPS  H18X  264   1.314   1.830   8.444 -0.0559  0.1625  0.4732
    2SAPS  H18Y  265   1.471   1.918   8.402  1.1135  0.4682  0.9542
    2SAPS  H18Z  266   1.343   2.003   8.491 -1.3274 -1.0422 -0.1878
    3SAPS     N  267   2.070   5.290  10.960 -0.0646  0.0699 -0.4242
    3SAPS   HN1  268   2.072   5.224  10.880  2.6382  1.3225 -1.4968
    3SAPS   HN2  269   2.050   5.384  10.920  1.0346  0.2470 -0.5701
    3SAPS   HN3  270   2.159   5.298  11.012 -0.4074  0.4617  0.1165
    3SAPS   C12  271   1.960   5.250  11.054 -0.3784 -0.2111  0.1359
    3SAPS  H12A  272   1.972   5.146  11.078 -2.4537 -0.9933 -1.8344
    3SAPS   C13  273   1.979   5.330  11.191 -0.0263 -0.4617  0.2407
    3SAPS  O13A  274   2.080   5.407  11.203  0.6254  0.2258 -0.9312
    3SAPS  O13B  275   1.912   5.300  11.292  0.1456 -0.1741  0.8461
    3SAPS   C11  276   1.817   5.277  10.986  0.3480 -0.0268 -0.2894
    3SAPS  H11A  277   1.820   5.383  10.953  2.4024 -0.0348 -0.2749
    3SAPS  H11B  278   1.745   5.266  11.070  2.1560 -4.5052  0.9906
    3SAPS     P  279   1.683   5.075  10.890  0.0048  0.0280 -0.2271
    3SAPS   O13  280   1.737   4.978  10.990  0.1298  0.0506  0.5246
    3SAPS   O14  281   1.553   5.129  10.924 -0.5605 -0.4848 -0.2942
    3SAPS   O12  282   1.778   5.197  10.866 -0.0308  0.6036 -0.4351
    3SAPS   O11  283   1.688   5.008  10.744 -0.4436 -0.6990 -0.2368
    3SAPS    C1  284   1.610   5.062  10.637 -0.0858  0.4706 -0.2522
    3SAPS    HA  285   1.572   4.974  10.580 -1.9250 -0.2189  1.8881
    3SAPS    HB  286   1.522   5.119  10.675  0.2451  0.7696  0.0757
    3SAPS    C2  287   1.708   5.151  10.555  0.2110 -0.4587  1.2238
    3SAPS    HS  288   1.723   5.249  10.604 -0.5373  0.3307 -0.0429
    3SAPS   O21  289   1.636   5.176  10.432 -0.1255  0.3372 -0.7860
    3SAPS   C21  290   1.653   5.285  10.369 -0.5437 -0.3672  0.3651
    3SAPS   O22  291   1.698   5.389  10.416  1.0198  0.6029 -0.6045
    3SAPS   C22  292   1.598   5.260  10.221  0.0393  0.2167 -0.1589
    3SAPS   H2R  293   1.637   5.162  10.189  0.8121  1.2232 -2.5666
    3SAPS   H2S  294   1.488   5.245  10.224  0.0818 -1.1629 -2.5922
    3SAPS    C3  295   1.850   5.105  10.530 -0.3080  0.0062 -0.2664
    3SAPS    HX  296   1.909   5.087  10.623  0.5995 -0.0152 -0.8410
    3SAPS    HY  297   1.896   5.191  10.479 -0.1154 -0.1883 -0.4224
    3SAPS   O31  298   1.857   4.980  10.451  0.2503 -0.0198  0.3633
    3SAPS   C31  299   1.878   4.995  10.324 -0.4344  0.3139 -0.2512
    3SAPS   O32  300   1.882   5.096  10.260 -0.3436 -0.4065  0.1337
    3SAPS   C32  301   1.906   4.857  10.269 -0.5218 -0.3013 -0.0761
    3SAPS   H2X  302   1.845   4.789  10.333  1.9846 -1.2694  1.4125
    3SAPS   H2Y  303   2.014   4.832  10.277 -0.4061 -0.3647 -1.5648
    3SAPS   C23  304   1.646   5.364  10.121 -0.4300 -0.1298  0.4532
    3SAPS   H3R  305   1.757   5.377  10.124 -0.3087 -0.9496 -0.2839
    3SAPS   H3S  306   1.615   5.465  10.156 -1.1000  0.0619 -0.6623
    3SAPS   C24  307   1.596   5.341   9.980  0.2295  0.2397  1.2520
    3SAPS   H4R  308   1.496   5.387   9.971 -0.4709 -1.5617 -0.8667
    3SAPS   H4S  309   1.588   5.231   9.970  0.6389  0.2646  0.5538
    3SAPS   C25  310   1.683   5.390   9.870 -0.1333 -0.0871  0.1770
    3SAPS   H5R  311   1.650   5.477   9.810  1.1391  0.3871  0.1394
    3SAPS   C26  312   1.799   5.334   9.836  0.7636 -0.0408 -0.5966
    3SAPS   H6R  313   1.862   5.371   9.753  1.4093  1.0786  0.3561
    3SAPS   C27  314   1.874   5.211   9.896  0.8725  0.7042 -0.6551
    3SAPS   H7R  315   1.806   5.138   9.945 -0.2364  1.2035 -1.4035
    3SAPS   H7S  316   1.935   5.238   9.984  0.0873  2.8193 -0.7187
    3SAPS   C28  317   1.976   5.140   9.817 -1.1317  0.0655  0.0887
    3SAPS   H8R  318   2.071   5.119   9.868 -1.7011 -0.9696  0.7648
    3SAPS   C29  319   1.965   5.093   9.691  0.8909  0.5838  1.5939
    3SAPS   H9R  320   2.041   5.026   9.647 -1.1261  0.3698 -1.9462
    3SAPS  C210  321   1.846   5.099   9.596 -0.1846 -0.0256 -0.2289
    3SAPS  H10R  322   1.862   5.169   9.511 -1.3713  0.2698 -0.2268
    3SAPS  H10S  323   1.763   5.144   9.654 -0.3544 -0.1563 -0.3669
    3SAPS  C211  324   1.805   4.959   9.550 -0.1920 -0.3383  0.4759
    3SAPS  H11R  325   1.743   4.902   9.621 -0.7202 -1.5671 -0.9194
    3SAPS  C212  326   1.840   4.904   9.435 -0.5039  0.0388  0.1844
    3SAPS  H12R  327   1.808   4.804   9.404  0.3613  0.0971 -0.9472
    3SAPS  C213  328   1.939   4.977   9.340 -0.4921  0.4210  0.4075
    3SAPS  H13R  329   1.969   5.081   9.364 -2.1523  0.5134  2.3490
    3SAPS  H13S  330   1.890   4.987   9.240 -1.8152  1.5877  1.1369
    3SAPS  C214  331   2.066   4.897   9.329  0.0037 -0.0909 -0.3660
    3SAPS  H14R  332   2.102   4.862   9.427 -1.4741 -0.6716  0.0003
    3SAPS  C215  333   2.135   4.872   9.214  0.4785  0.8554 -0.2053
    3SAPS  H15R  334   2.219   4.802   9.217 -1.7175 -1.9868 -0.2633
    3SAPS  C216  335   2.097   4.908   9.065 -0.4507  0.0166  0.2561
    3SAPS  H16R  336   1.986   4.912   9.056 -0.4050  1.0682  0.0314
    3SAPS  H16S  337   2.138   4.832   8.995  3.2118  0.2939  1.9160
    3SAPS  C217  338   2.165   5.041   9.026  0.2804 -0.0114 -0.4515
    3SAPS  H17R  339   2.271   5.032   9.056  0.3639 -1.7632 -1.1414
    3SAPS  H17S  340   2.129   5.126   9.087  2.3816  1.2237 -0.8437
    3SAPS  C218  341   2.163   5.083   8.882 -0.1074 -0.0594 -0.4110
    3SAPS  H18R  342   2.064   5.128   8.858 -1.3791 -0.8468  2.7312
    3SAPS  H18S  343   2.174   4.999   8.811  0.5791  1.0622 -1.6798
    3SAPS  C219  344   2.281   5.174   8.839  0.0484  0.4861 -0.4069
    3SAPS  H19R  345   2.293   5.191   8.729 -2.1732 -2.1859 -1.1820
    3SAPS  H19S  346   2.374   5.126   8.877  0.4268  2.7101  1.6580
    3SAPS  C220  347   2.276   5.317   8.903 -0.6232  0.1212 -0.3609
    3SAPS  H20R  348   2.279   5.314   9.014 -0.8743  4.2102 -0.0789
    3SAPS  H20S  349   2.179   5.370   8.887 -0.3129  0.6594 -0.4611
    3SAPS  H20T  350   2.346   5.389   8.856 -1.9202 -0.3366 -3.2538
    3SAPS   C33  351   1.866   4.869  10.121 -0.4927  0.3429 -0.0210
    3SAPS   H3X  352   1.942   4.933  10.072  0.5396 -0.2294  0.7822
    3SAPS   H3Y  353   1.761   4.904  10.109 -1.1364 -0.6075  2.1805
    3SAPS   C34  354   1.890   4.724  10.053  0.1933  0.0786 -0.6814
    3SAPS   H4X  355   1.821   4.647  10.092 -2.4324  2.4101 -0.4065
    3SAPS   H4Y  356   1.993   4.698  10.084 -0.4941 -0.7993  0.9918
    3SAPS   C35  357   1.884   4.728   9.899  0.4230 -0.3633  0.0250
    3SAPS   H5X  358   1.932   4.823   9.866 -0.8408  0.4325  0.4084
    3SAPS   H5Y  359   1.777   4.730   9.870  0.3371 -1.5562  0.1881
    3SAPS   C36  360   1.959   4.616   9.821 -0.0394  0.2042 -0.2613
    3SAPS   H6X  361   1.911   4.519   9.846 -0.2816  0.0478 -1.3033
    3SAPS   H6Y  362   2.067   4.605   9.845  0.1547 -0.1745 -1.2845
    3SAPS   C37  363   1.947   4.651   9.677 -0.3088  0.9309 -0.0132
    3SAPS   H7X  364   1.998   4.744   9.646  1.3957  0.1311  0.2578
    3SAPS   H7Y  365   1.839   4.665   9.655 -0.5893 -1.4996 -0.5347
    3SAPS   C38  366   1.992   4.528   9.597  0.3368 -0.7303 -0.0751
    3SAPS   H8X  367   1.932   4.438   9.623  1.9587 -1.5029  1.1775
    3SAPS   H8Y  368   2.087   4.505   9.648 -0.0535  0.8101  1.4418
    3SAPS   C39  369   2.013   4.545   9.447  0.7686  0.0148  0.2886
    3SAPS   H9X  370   2.065   4.641   9.425  0.2608 -0.3611 -3.0422
    3SAPS   H9Y  371   1.915   4.571   9.400  0.6887 -0.4966  0.1731
    3SAPS  C310  372   2.066   4.416   9.384 -0.5508 -0.3182 -0.7398
    3SAPS  H10X  373   2.022   4.324   9.428  0.5078 -0.3490  0.3110
    3SAPS  H10Y  374   2.172   4.418   9.418 -0.4676 -2.4020 -0.7441
    3SAPS  C311  375   2.058   4.417   9.235  0.2667  0.3104  0.0393
    3SAPS  H11X  376   1.950   4.425   9.210  0.3054 -2.2589 -1.3057
    3SAPS  H11Y  377   2.098   4.322   9.193 -0.0093 -0.0004  0.4568
    3SAPS  C312  378   2.130   4.537   9.170 -0.4306 -0.4446 -0.8505
    3SAPS  H12X  379   2.216   4.563   9.235 -0.7605  0.5872 -0.8166
    3SAPS  H12Y  380   2.071   4.631   9.166  2.4968  1.4892 -2.0151
    3SAPS  C313  381   2.179   4.520   9.027  0.3588 -0.1930  0.0055
    3SAPS  H13X  382   2.249   4.436   9.010 -1.3411 -1.4814 -0.9564
    3SAPS  H13Y  383   2.226   4.613   8.988  0.8342 -1.0120 -1.4601
    3SAPS  C314  384   2.070   4.488   8.925 -0.1205 -0.2231 -0.2990
    3SAPS  H14X  385   1.988   4.562   8.938 -2.2043 -1.7059 -3.5876
    3SAPS  H14Y  386   2.033   4.388   8.957 -1.0712  0.5965  1.3040
    3SAPS  C315  387   2.124   4.502   8.783  0.3775  0.2098 -0.0143
    3SAPS  H15X  388   2.189   4.414   8.763  1.4153  1.5309 -2.9525
    3SAPS  H15Y  389   2.187   4.594   8.775  1.0834 -0.2762 -0.1538
    3SAPS  C316  390   2.005   4.498   8.688  0.5435 -0.4949 -0.4868
    3SAPS  H16X  391   1.939   4.586   8.700  0.9150 -0.3249  0.3079
    3SAPS  H16Y  392   1.953   4.413   8.738  2.5124 -0.8889  1.0123
    3SAPS  C317  393   2.038   4.479   8.543 -0.7296 -0.0414  0.3483
    3SAPS  H17X  394   2.089   4.382   8.521 -0.2084 -0.0065  1.3260
    3SAPS  H17Y  395   2.109   4.560   8.514  0.1767 -1.1760 -0.7447
    3SAPS  C318  396   1.923   4.487   8.457  0.6767 -0.9377  0.2102
    3SAPS  H18X  397   1.847   4.409   8.481 -1.1786  0.4621 -0.7993
    3SAPS  H18Y  398   1.962   4.467   8.355 -0.8981  0.1647 -0.6575
    3SAPS  H18Z  399   1.874   4.587   8.457 -1.9517 -2.1185  0.1372
    4SAPS     N  400   3.700   4.607  10.721 -0.1887  0.4094 -0.5812
    4SAPS   HN1  401   3.652   4.531  10.774 -1.1102  1.6060  0.3835
    4SAPS   HN2  402   3.633   4.664  10.666 -1.9744 -2.7465 -1.9493
    4SAPS   HN3  403   3.776   4.573  10.659  0.8897  0.6010  0.5874
    4SAPS   C12  404   3.765   4.685  10.829 -0.0897  0.8114 -0.3970
    4SAPS  H12A  405   3.688   4.752  10.863 -0.6212 -1.1328  2.6135
    4SAPS   C13  406   3.812   4.600  10.955  0.0102 -0.3265  1.0976
    4SAPS  O13A  407   3.776   4.480  10.958 -0.1273  0.2854  0.2039
    4SAPS  O13B  408   3.872   4.661  11.046 -0.0051  0.4502 -0.8591
    4SAPS   C11  409   3.893   4.757  10.768 -0.0341 -0.9833 -0.4210
    4SAPS  H11A  410   3.946   4.802  10.855 -2.7486 -1.4251  1.6000
    4SAPS  H11B  411   3.869   4.839  10.696  1.4360 -1.9538 -2.1027
    4SAPS     P  412   4.099   4.736  10.620  0.5988  0.1336  0.5773
    4SAPS   O13  413   4.146   4.858  10.693 -0.0468 -0.3640  0.2326
    4SAPS   O14  414   4.198   4.635  10.588 -0.0133  0.1103  0.3969
    4SAPS   O12  415   3.972   4.667  10.691 -0.5029 -0.8153  0.0262
    4SAPS   O11  416   4.030   4.789  10.488  0.1731  0.4557  0.1139
    4SAPS    C1  417   3.912   4.727  10.422  0.6184 -0.5080 -0.5162
    4SAPS    HA  418   3.871   4.637  10.472 -0.3858  0.7085  0.9413
    4SAPS    HB  419   3.832   4.803  10.410 -0.0718 -1.0227  0.6561
    4SAPS    C2  420   3.946   4.671  10.283 -0.9117  0.6708  0.5902
    4SAPS    HS  421   3.854   4.642  10.227  0.4067 -1.2539 -0.7028
    4SAPS   O21  422   4.040   4.564  10.297  0.2978 -0.0750 -0.2731
    4SAPS   C21  423   3.995   4.435  10.286 -0.1763 -0.1980 -0.1909
    4SAPS   O22  424   3.875   4.406  10.284 -0.4688  0.0904  1.0656
    4SAPS   C22  425   4.110   4.339  10.262  0.6883 -1.4531  0.6568
    4SAPS   H2R  426   4.207   4.388  10.283 -0.3221  0.9534  0.0792
    4SAPS   H2S  427   4.104   4.249  10.327  2.4447 -1.6710  0.5515
    4SAPS    C3  428   4.022   4.784  10.200  0.1071  0.2518  0.1041
    4SAPS    HX  429   4.121   4.775  10.250  0.7244 -3.5610 -1.4584
    4SAPS    HY  430   3.977   4.883  10.223  0.6200  0.2786  1.0374
    4SAPS   O31  431   4.033   4.759  10.058 -0.0441  0.0484  0.2913
    4SAPS   C31  432   3.925   4.775   9.990 -0.0608  0.1500 -0.1133
    4SAPS   O32  433   3.817   4.819  10.034  0.4804 -0.1655  0.6534
    4SAPS   C32  434   3.952   4.732   9.847  0.0752  0.6103  0.4080
    4SAPS   H2X  435   3.981   4.625   9.845  0.3706  0.6957 -1.0274
    4SAPS   H2Y  436   4.032   4.806   9.824  0.3926  0.3885  0.7817
    4SAPS   C23  437   4.105   4.291  10.114  0.7280  0.2590 -0.4453
    4SAPS   H3R  438   4.014   4.230  10.094  1.3288 -0.8476  0.1262
    4SAPS   H3S  439   4.180   4.210  10.102  0.6977  0.2456 -0.5435
    4SAPS   C24  440   4.124   4.410  10.014 -0.8613 -0.3442  0.6944
    4SAPS   H4R  441   4.208   4.470  10.054  0.1712 -1.8328  0.8342
    4SAPS   H4S  442   4.038   4.479  10.023 -0.4998 -0.0319  1.9153
    4SAPS   C25  443   4.145   4.365   9.870  0.5579 -0.0777  0.3323
    4SAPS   H5R  444   4.062   4.304   9.833  0.2208  1.4434 -1.5917
    4SAPS   C26  445   4.224   4.423   9.776  0.0560 -0.1368 -0.3306
    4SAPS   H6R  446   4.226   4.380   9.675  3.1677  0.5526 -0.6669
    4SAPS   C27  447   4.327   4.531   9.803 -0.4337  0.3306 -0.0133
    4SAPS   H7R  448   4.429   4.488   9.790 -0.9757 -0.8124 -0.6891
    4SAPS   H7S  449   4.327   4.574   9.905  0.9643 -3.0631  1.5750
    4SAPS   C28  450   4.295   4.639   9.707  0.4996  0.2228  0.6221
    4SAPS   H8R  451   4.233   4.725   9.735  1.4687  0.7164  1.3308
    4SAPS   C29  452   4.358   4.651   9.586 -0.1045 -0.1591 -0.5029
    4SAPS   H9R  453   4.333   4.742   9.529 -0.1191  0.9507  1.2083
    4SAPS  C210  454   4.462   4.568   9.518  0.4883 -0.1305  0.0514
    4SAPS  H10R  455   4.504   4.491   9.586  1.5794  0.5070  0.1191
    4SAPS  H10S  456   4.552   4.630   9.498  1.5558 -1.2961  1.0587
    4SAPS  C211  457   4.401   4.497   9.404 -0.7748  0.3584  0.8790
    4SAPS  H11R  458   4.308   4.447   9.434 -0.8901 -0.0577 -0.1403
    4SAPS  C212  459   4.453   4.474   9.274 -0.0299  0.2872  0.3095
    4SAPS  H12R  460   4.382   4.438   9.198  1.0298 -1.2121 -0.0340
    4SAPS  C213  461   4.579   4.525   9.216  0.0974 -0.4606 -0.4844
    4SAPS  H13R  462   4.631   4.440   9.166 -0.8503 -2.3961  1.6283
    4SAPS  H13S  463   4.651   4.565   9.290  0.6000 -0.9424 -0.7059
    4SAPS  C214  464   4.561   4.643   9.120  0.2643 -0.5773 -0.1976
    4SAPS  H14R  465   4.512   4.724   9.176 -1.5257 -1.7740  0.0748
    4SAPS  C215  466   4.589   4.671   8.992  0.0254  0.6190 -0.7193
    4SAPS  H15R  467   4.562   4.767   8.947 -0.3799  0.5125 -0.7064
    4SAPS  C216  468   4.664   4.580   8.902  0.5196 -0.2261 -0.7766
    4SAPS  H16R  469   4.674   4.474   8.933  3.4234  0.7792  2.2551
    4SAPS  H16S  470   4.765   4.623   8.886 -0.2638  0.8764 -3.3487
    4SAPS  C217  471   4.596   4.586   8.767 -0.1260 -0.7146 -0.0810
    4SAPS  H17R  472   4.575   4.691   8.737 -2.2969 -1.3800 -1.1302
    4SAPS  H17S  473   4.502   4.526   8.771 -0.9080  0.2172 -2.4264
    4SAPS  C218  474   4.693   4.525   8.665 -0.1504  1.4262 -0.4472
    4SAPS  H18R  475   4.709   4.422   8.702  0.7087  1.3504 -1.0185
    4SAPS  H18S  476   4.795   4.569   8.675  1.3828 -1.5467 -1.9682
    4SAPS  C219  477   4.656   4.543   8.517  0.1522 -0.1328 -0.0833
    4SAPS  H19R  478   4.649   4.652   8.497  0.0222 -0.2983 -0.9786
    4SAPS  H19S  479   4.552   4.512   8.495  0.1303 -0.1294  0.0132
    4SAPS  C220  480   4.756   4.481   8.410 -0.4035  0.1692 -1.0224
    4SAPS  H20R  481   4.715   4.472   8.307  1.4418 -0.2179 -1.7678
    4SAPS  H20S  482   4.767   4.379   8.453 -0.3707  0.2800 -0.7662
    4SAPS  H20T  483   4.856   4.528   8.425 -0.5480 -0.0712  0.8934
    4SAPS   C33  484   3.830   4.762   9.755 -0.6756  0.0813 -0.1968
    4SAPS   H3X  485   3.811   4.870   9.777  1.2398  0.2393  0.9538
    4SAPS   H3Y  486   3.747   4.697   9.790  1.5440 -2.4984  0.5608
    4SAPS   C34  487   3.858   4.758   9.603 -0.4219 -0.0734  1.0392
    4SAPS   H4X  488   3.952   4.816   9.596 -0.0805 -0.4719  2.1493
    4SAPS   H4Y  489   3.782   4.810   9.541  0.2692 -0.0313  0.2071
    4SAPS   C35  490   3.885   4.612   9.561  0.5605  0.5102  0.2793
    4SAPS   H5X  491   3.788   4.559   9.548  0.9268 -0.3652  0.9966
    4SAPS   H5Y  492   3.933   4.554   9.643  2.0171 -0.5419 -1.2576
    4SAPS   C36  493   3.981   4.593   9.443  0.1003  0.3819  0.0028
    4SAPS   H6X  494   4.045   4.508   9.476 -0.9963 -1.0136 -1.2723
    4SAPS   H6Y  495   4.051   4.678   9.439 -1.7732  1.9533 -1.0994
    4SAPS   C37  496   3.914   4.572   9.308 -0.6034  0.6434  0.1723
    4SAPS   H7X  497   3.877   4.671   9.274  0.0334  0.0011 -2.6386
    4SAPS   H7Y  498   3.830   4.501   9.321  1.8648 -2.6000 -0.3262
    4SAPS   C38  499   4.000   4.516   9.193 -0.2350  0.1036 -0.4326
    4SAPS   H8X  500   3.927   4.456   9.135 -0.6044 -0.4699  0.5993
    4SAPS   H8Y  501   4.078   4.439   9.214 -0.0136  0.0329 -1.4611
    4SAPS   C39  502   4.076   4.622   9.113  0.7432 -0.3735 -0.7142
    4SAPS   H9X  503   4.141   4.684   9.178  0.6969 -1.2485  0.1978
    4SAPS   H9Y  504   3.999   4.691   9.072 -1.6104 -2.2115  0.4084
    4SAPS  C310  505   4.161   4.574   8.997 -0.1749  0.3348  0.0704
    4SAPS  H10X  506   4.123   4.471   8.978 -0.8701  0.6077 -0.0806
    4SAPS  H10Y  507   4.260   4.548   9.040 -1.1298 -1.8953  1.0834
    4SAPS  C311  508   4.170   4.674   8.881  0.6863 -0.4000  0.0873
    4SAPS  H11X  509   4.246   4.754   8.895  0.2060  0.1761 -0.5437
    4SAPS  H11Y  510   4.076   4.733   8.887  0.5891 -0.5817  0.3648
    4SAPS  C312  511   4.188   4.609   8.740 -0.5018 -0.2074 -0.4086
    4SAPS  H12X  512   4.253   4.522   8.761  1.4802  1.0870 -0.9036
    4SAPS  H12Y  513   4.242   4.686   8.680  0.5356  0.6486  1.5230
    4SAPS  C313  514   4.057   4.574   8.665  0.2288  0.8016  0.6948
    4SAPS  H13X  515   4.004   4.667   8.636 -0.7514  0.3791  1.1026
    4SAPS  H13Y  516   3.990   4.508   8.724  0.3241 -1.7878 -1.8494
    4SAPS  C314  517   4.103   4.491   8.533  0.6435  0.2669 -0.3060
    4SAPS  H14X  518   4.164   4.543   8.456  1.3653 -0.6727 -0.3864
    4SAPS  H14Y  519   4.007   4.468   8.482  0.7309 -0.2162 -0.2578
    4SAPS  C315  520   4.171   4.350   8.559  0.0345  1.0215 -0.5588
    4SAPS  H15X  521   4.109   4.296   8.633  0.3183  0.9859 -0.3432
    4SAPS  H15Y  522   4.272   4.367   8.603 -0.9633  1.4852  1.6757
    4SAPS  C316  523   4.176   4.262   8.432 -0.4305  0.0191  0.2185
    4SAPS  H16X  524   4.208   4.325   8.346 -2.9080  2.7171  1.1337
    4SAPS  H16Y  525   4.073   4.227   8.411  0.0625 -0.9075 -0.7852
    4SAPS  C317  526   4.264   4.130   8.439 -0.1939 -0.0149  0.5077
    4SAPS  H17X  527   4.232   4.052   8.368  2.4699 -0.1874 -0.6064
    4SAPS  H17Y  528   4.236   4.093   8.540 -1.9499 -0.2932 -0.0367
    4SAPS  C318  529   4.412   4.142   8.420  0.1784  0.4291  0.4732
    4SAPS  H18X  530   4.450   4.038   8.418 -1.5704 -0.3289  2.7639
    4SAPS  H18Y  531   4.471   4.199   8.495 -0.3445  1.0414  0.4241
    4SAPS  H18Z  532   4.439   4.182   8.320  4.9523 -1.6536  0.6613
    5SAPS     N  533   1.428   3.873  10.861 -0.5334  0.2950  0.0890
    5SAPS   HN1  534   1.383   3.950  10.914  0.2294 -2.2448  4.9735
    5SAPS   HN2  535   1.490   3.898  10.781 -0.4485 -0.5003 -0.1037
    5SAPS   HN3  536   1.354   3.812  10.820  0.2098 -0.4782 -0.1305
    5SAPS   C12  537   1.488   3.790  10.972  0.1078  0.4518 -0.3358
    5SAPS  H12A  538   1.550   3.851  11.036  1.4929  0.4903 -1.6518
    5SAPS   C13  539   1.381   3.719  11.058  0.1803  0.0317 -0.6205
    5SAPS  O13A  540   1.263   3.729  11.031  0.0384  0.0539 -0.1947
    5SAPS  O13B  541   1.420   3.667  11.166 -0.2394  0.3188  0.6175
    5SAPS   C11  542   1.576   3.674  10.915  0.1614 -0.6988 -0.0626
    5SAPS  H11A  543   1.507   3.618  10.849 -0.9464 -0.7033  1.0657
    5SAPS  H11B  544   1.619   3.605  10.991  0.4179 -1.2325 -0.6823
    5SAPS     P  545   1.829   3.698  10.831  0.1603 -0.1420 -0.2529
    5SAPS   O13  546   1.916   3.811  10.793 -0.5396 -0.6161  0.9552
    5SAPS   O14  547   1.861   3.638  10.964  0.1329 -0.2408 -0.2852
    5SAPS   O12  548   1.675   3.724  10.831 -0.0883  0.2742  0.6543
    5SAPS   O11  549   1.849   3.575  10.721 -0.4430 -0.2756  0.1360
    5SAPS    C1  550   1.724   3.539  10.652 -0.2519  0.3632  0.0802
    5SAPS    HA  551   1.741   3.450  10.589 -1.2895  0.8725 -0.9530
    5SAPS    HB  552   1.650   3.509  10.729 -0.0005  0.1873  0.2532
    5SAPS    C2  553   1.674   3.652  10.550  0.5651 -0.4237 -0.4014
    5SAPS    HS  554   1.633   3.739  10.607  1.7896 -0.3410  0.3783
    5SAPS   O21  555   1.584   3.598  10.451 -0.0967 -0.4887 -0.1209
    5SAPS   C21  556   1.463   3.572  10.498  0.5909 -0.1345 -0.1107
    5SAPS   O22  557   1.418   3.593  10.609 -0.6035  0.3669 -0.0834
    5SAPS   C22  558   1.380   3.506  10.390 -0.1369 -0.1454  0.1668
    5SAPS   H2R  559   1.365   3.586  10.314 -0.6040 -0.8587 -0.5055
    5SAPS   H2S  560   1.429   3.417  10.345  4.1417  1.5360  1.0579
    5SAPS    C3  561   1.799   3.710  10.471  0.0487  0.3120  1.1310
    5SAPS    HX  562   1.846   3.626  10.414  0.6616  0.9311  0.7131
    5SAPS    HY  563   1.871   3.742  10.550 -0.0408  3.4663  0.0669
    5SAPS   O31  564   1.758   3.826  10.390  0.2061 -0.3784 -0.2501
    5SAPS   C31  565   1.861   3.886  10.324  0.3417 -0.4085  0.0960
    5SAPS   O32  566   1.973   3.844  10.322 -0.2233  0.1120  0.2232
    5SAPS   C32  567   1.813   4.004  10.246  0.4727 -0.0993 -0.0792
    5SAPS   H2X  568   1.815   4.092  10.313 -1.2484 -0.7095  0.8284
    5SAPS   H2Y  569   1.705   3.985  10.227  0.8250 -2.9040  0.3449
    5SAPS   C23  570   1.234   3.478  10.437 -0.7298 -0.2281 -0.7145
    5SAPS   H3R  571   1.184   3.570  10.474 -2.5423 -0.5897 -2.1121
    5SAPS   H3S  572   1.253   3.402  10.516 -1.0154  0.8534  0.4085
    5SAPS   C24  573   1.138   3.419  10.336  0.5546 -0.7647 -0.0239
    5SAPS   H4R  574   1.051   3.377  10.392 -0.9209  1.2282 -0.6778
    5SAPS   H4S  575   1.175   3.322  10.298  1.5901  0.1919 -1.5460
    5SAPS   C25  576   1.089   3.521  10.227 -0.6135  1.3352 -0.4072
    5SAPS   H5R  577   1.026   3.600  10.270  0.6873  1.1854  1.9419
    5SAPS   C26  578   1.127   3.523  10.093  0.2726 -0.6220 -0.0700
    5SAPS   H6R  579   1.069   3.599  10.037 -0.8804 -1.0895  0.4456
    5SAPS   C27  580   1.220   3.429  10.020  1.2534  0.1979  0.4088
    5SAPS   H7R  581   1.300   3.400  10.092  2.0228  3.9273  1.2871
    5SAPS   H7S  582   1.266   3.479   9.932  0.3894  0.2268 -0.0313
    5SAPS   C28  583   1.137   3.307   9.980 -0.5851 -0.3496  0.4686
    5SAPS   H8R  584   1.075   3.269  10.062 -1.1126 -0.4088  0.0500
    5SAPS   C29  585   1.117   3.254   9.859  0.6775 -0.0033 -0.3669
    5SAPS   H9R  586   1.041   3.174   9.849 -0.3889  0.9426 -0.0590
    5SAPS  C210  587   1.191   3.297   9.740 -0.0500 -0.7676  0.5677
    5SAPS  H10R  588   1.203   3.218   9.663 -0.7344  0.3020 -0.6927
    5SAPS  H10S  589   1.290   3.345   9.753 -0.7886  0.9520  0.1881
    5SAPS  C211  590   1.118   3.415   9.669  0.4618 -0.4468  0.3565
    5SAPS  H11R  591   1.087   3.498   9.735 -1.6731 -0.4630 -0.5607
    5SAPS  C212  592   1.127   3.427   9.537 -0.1812 -0.3010 -0.5976
    5SAPS  H12R  593   1.107   3.529   9.501  1.3331 -0.2613 -1.3893
    5SAPS  C213  594   1.190   3.330   9.442 -0.3199  0.0783  0.7108
    5SAPS  H13R  595   1.138   3.232   9.453  1.2233 -1.0107 -1.0287
    5SAPS  H13S  596   1.292   3.323   9.485 -0.3544  2.1048  1.2408
    5SAPS  C214  597   1.209   3.374   9.298  0.1603 -0.2291 -0.2968
    5SAPS  H14R  598   1.244   3.477   9.283 -4.6882  2.0968  2.1650
    5SAPS  C215  599   1.181   3.300   9.189 -0.1390 -0.1499 -0.5876
    5SAPS  H15R  600   1.203   3.350   9.094 -0.7260  2.2439  0.4588
    5SAPS  C216  601   1.125   3.160   9.192 -0.1191 -0.1999  0.6625
    5SAPS  H16R  602   1.014   3.167   9.200  0.1065  1.8849  4.1463
    5SAPS  H16S  603   1.142   3.104   9.286 -0.9547  1.5115  1.9019
    5SAPS  C217  604   1.166   3.074   9.069  0.0234  0.4711  0.0309
    5SAPS  H17R  605   1.140   2.969   9.097  0.2491  0.7471  1.3732
    5SAPS  H17S  606   1.275   3.069   9.047  0.0004  0.3821 -0.0613
    5SAPS  C218  607   1.085   3.110   8.951 -0.3604  0.2432  0.2271
    5SAPS  H18R  608   0.979   3.085   8.974  0.6646 -3.4178  1.7208
    5SAPS  H18S  609   1.093   3.219   8.931  0.9414  0.0912 -0.1955
    5SAPS  C219  610   1.122   3.040   8.823 -0.3023 -0.4468  1.1254
    5SAPS  H19R  611   1.125   2.932   8.851  0.5344 -0.5595  0.6359
    5SAPS  H19S  612   1.226   3.071   8.798 -0.9010 -0.0715 -1.1336
    5SAPS  C220  613   1.035   3.061   8.697 -0.2168  0.0045 -0.3212
    5SAPS  H20R  614   0.999   3.164   8.682 -0.0233  0.3916  1.6074
    5SAPS  H20S  615   0.946   2.996   8.707 -0.0695  0.0352  1.7584
    5SAPS  H20T  616   1.089   3.031   8.604 -1.0391 -1.9375 -0.2279
    5SAPS   C33  617   1.889   4.015  10.114 -0.5770  0.9476  0.2522
    5SAPS   H3X  618   1.886   3.926  10.048 -0.0935  0.8148  0.4116
    5SAPS   H3Y  619   1.995   4.027  10.143 -0.5049  0.5047  0.1729
    5SAPS   C34  620   1.855   4.144  10.046 -0.4861  1.1596 -0.2105
    5SAPS   H4X  621   1.850   4.241  10.099  0.3382  1.5151 -0.7540
    5SAPS   H4Y  622   1.748   4.148  10.017 -0.6561 -1.0511 -0.1269
    5SAPS   C35  623   1.950   4.162   9.923 -0.0353 -0.5949 -0.3174
    5SAPS   H5X  624   2.058   4.170   9.949  0.4056 -2.5909 -1.3746
    5SAPS   H5Y  625   1.914   4.248   9.863 -1.3548 -1.9634 -1.5683
    5SAPS   C36  626   1.949   4.047   9.821 -0.5542  0.5652 -0.3269
    5SAPS   H6X  627   1.840   4.023   9.821 -0.4477  0.0374  0.6677
    5SAPS   H6Y  628   1.997   3.956   9.861 -1.0887  0.7947  0.8563
    5SAPS   C37  629   2.003   4.087   9.674 -0.2443 -0.0707 -0.8067
    5SAPS   H7X  630   2.102   4.133   9.694  0.1156 -1.4650  0.8530
    5SAPS   H7Y  631   1.928   4.160   9.638 -1.9421 -2.5917 -2.7544
    5SAPS   C38  632   2.017   3.974   9.571 -0.7520 -0.0499 -0.1434
    5SAPS   H8X  633   1.919   3.962   9.521  0.5876 -3.3598 -2.3050
    5SAPS   H8Y  634   2.040   3.878   9.622  2.2678  0.5519 -0.1573
    5SAPS   C39  635   2.131   4.016   9.467 -0.0074  0.2629  0.3026
    5SAPS   H9X  636   2.233   4.017   9.510  1.0441 -0.2415 -2.0403
    5SAPS   H9Y  637   2.108   4.116   9.425 -1.5967  0.1651  0.8456
    5SAPS  C310  638   2.144   3.905   9.357  0.4270  0.1616  0.0930
    5SAPS  H10X  639   2.159   3.808   9.409 -1.7636 -0.2351  0.0895
    5SAPS  H10Y  640   2.242   3.937   9.317  0.9562 -2.3015 -0.7178
    5SAPS  C311  641   2.030   3.905   9.252  0.2838  0.1014 -0.5008
    5SAPS  H11X  642   2.008   4.012   9.229  0.5414  0.7360  1.9299
    5SAPS  H11Y  643   1.934   3.868   9.294 -0.0724  1.4757 -0.0307
    5SAPS  C312  644   2.062   3.827   9.125  1.0508 -0.2096  0.1954
    5SAPS  H12X  645   2.095   3.728   9.164 -0.7612 -0.7652  0.3842
    5SAPS  H12Y  646   2.155   3.868   9.079 -0.4141  1.2887 -1.5865
    5SAPS  C313  647   1.942   3.794   9.026 -0.4186 -0.1600 -0.2454
    5SAPS  H13X  648   1.887   3.886   8.997  0.2134  0.0075 -0.9480
    5SAPS  H13Y  649   1.870   3.724   9.073  1.1138 -1.8148 -0.2328
    5SAPS  C314  650   1.991   3.739   8.898  0.5951  0.5699  0.0960
    5SAPS  H14X  651   2.095   3.775   8.885  0.6910  0.0515 -0.6551
    5SAPS  H14Y  652   1.931   3.765   8.808  0.7521  0.0590 -0.1603
    5SAPS  C315  653   1.983   3.580   8.899 -0.6891 -0.7068  0.0922
    5SAPS  H15X  654   1.877   3.552   8.882 -1.1585  1.4385 -0.8922
    5SAPS  H15Y  655   2.017   3.535   8.994 -3.0674  1.6205  2.2039
    5SAPS  C316  656   2.068   3.514   8.787  0.0119 -0.4893 -1.0004
    5SAPS  H16X  657   2.175   3.501   8.813  0.2560  1.4332 -0.9336
    5SAPS  H16Y  658   2.064   3.597   8.714 -0.2144  1.5131  1.1594
    5SAPS  C317  659   2.011   3.376   8.746  0.0818 -0.0750 -0.2573
    5SAPS  H17X  660   1.907   3.405   8.719 -0.4087 -1.1886  0.4002
    5SAPS  H17Y  661   1.997   3.299   8.824  3.8617 -0.9176 -0.2348
    5SAPS  C318  662   2.088   3.308   8.633 -0.2212  0.4359 -0.1593
    5SAPS  H18X  663   2.169   3.246   8.678 -0.5375  1.3714  1.7723
    5SAPS  H18Y  664   2.128   3.371   8.550  0.4864 -1.2507 -1.1513
    5SAPS  H18Z  665   2.018   3.239   8.581 -0.7942  0.5932  0.3921
    6SAPS     N  666   6.798   2.873  10.872  0.3200 -0.6739 -0.5070
    6SAPS   HN1  667   6.722   2.867  10.943  0.1096  1.0512 -0.5631
    6SAPS   HN2  668   6.772   2.933  10.792  1.3786  0.3421 -0.1125
    6SAPS   HN3  669   6.814   2.780  10.828  1.5187 -0.5661 -0.3477
    6SAPS   C12  670   6.926   2.925  10.922  0.3413 -0.5108 -0.2182
    6SAPS  H12A  671   6.895   3.017  10.970  1.4242 -0.4293  0.3578
    6SAPS   C13  672   6.988   2.837  11.031  0.5842 -0.8097 -0.2821
    6SAPS  O13A  673   6.953   2.722  11.058 -0.1206  0.3918 -0.3257
    6SAPS  O13B  674   7.079   2.897  11.089 -0.4995  0.0152 -0.6392
    6SAPS   C11  675   7.024   2.966  10.803  0.1239  0.4239 -0.0713
    6SAPS  H11A  676   7.052   2.875  10.744  2.8957 -0.0294  1.7357
    6SAPS  H11B  677   7.118   3.002  10.851  0.3204 -1.2652  0.8838
    6SAPS     P  678   6.994   3.221  10.711  0.7575  0.1815  0.0705
    6SAPS   O13  679   6.990   3.267  10.851  0.0047 -0.3093 -0.2328
    6SAPS   O14  680   7.116   3.238  10.630  0.1792 -0.2347 -0.0261
    6SAPS   O12  681   6.961   3.064  10.715 -0.0539  0.0845  0.4052
    6SAPS   O11  682   6.869   3.289  10.636 -0.5130 -0.0689  0.7437
    6SAPS    C1  683   6.815   3.226  10.520 -0.2638  0.5296  0.4973
    6SAPS    HA  684   6.901   3.222  10.450 -0.0902  1.8787  0.6053
    6SAPS    HB  685   6.785   3.126  10.559  2.5775  0.2158  2.1099
    6SAPS    C2  686   6.697   3.305  10.452 -0.3963 -0.2479  0.1968
    6SAPS    HS  687   6.609   3.293  10.518 -0.9257 -3.2359 -0.9153
    6SAPS   O21  688   6.670   3.254  10.321  0.3902 -0.5897  0.2592
    6SAPS   C21  689   6.592   3.149  10.318 -0.2882  0.1790 -0.0819
    6SAPS   O22  690   6.544   3.091  10.413 -0.8528  0.7386  0.1206
    6SAPS   C22  691   6.604   3.089  10.182 -0.3451 -0.3613  0.0450
    6SAPS   H2R  692   6.696   3.131  10.135  0.2667  0.6565  2.0430
    6SAPS   H2S  693   6.622   2.980  10.190 -0.5506 -0.4577 -0.7088
    6SAPS    C3  694   6.729   3.453  10.441  0.8747  0.8683  0.1823
    6SAPS    HX  695   6.824   3.469  10.386 -1.0456 -0.2422 -3.8936
    6SAPS    HY  696   6.736   3.491  10.545  1.0342  1.3498  0.0019
    6SAPS   O31  697   6.632   3.536  10.364 -0.7521 -0.6703 -0.3410
    6SAPS   C31  698   6.507   3.541  10.411 -0.6360 -0.2183  0.0072
    6SAPS   O32  699   6.467   3.506  10.525  0.0868  0.0890  0.1773
    6SAPS   C32  700   6.426   3.607  10.296  0.1437 -0.1330 -0.1461
    6SAPS   H2X  701   6.450   3.552  10.203  1.1631 -0.9423  0.5738
    6SAPS   H2Y  702   6.463   3.712  10.299 -1.7539  0.6730 -2.1510
    6SAPS   C23  703   6.467   3.103  10.106 -0.6257  0.0504 -0.2280
    6SAPS   H3R  704   6.383   3.075  10.173  0.6656  0.4956  1.6518
    6SAPS   H3S  705   6.465   3.028  10.024  1.4355  0.1823 -0.4608
    6SAPS   C24  706   6.439   3.247  10.045  0.5420  0.8438 -0.3340
    6SAPS   H4R  707   6.493   3.254   9.948  2.0344 -2.0781  0.1696
    6SAPS   H4S  708   6.478   3.334  10.102  1.4751  0.6471 -0.6596
    6SAPS   C25  709   6.292   3.269  10.014  0.2799 -0.1741  0.0031
    6SAPS   H5R  710   6.237   3.326  10.090  0.2647 -0.6902  0.3885
    6SAPS   C26  711   6.234   3.232   9.900  0.0557  0.7274  0.1575
    6SAPS   H6R  712   6.127   3.259   9.892  0.3268  2.2089  1.2184
    6SAPS   C27  713   6.294   3.153   9.784 -0.0908 -0.0012  0.0459
    6SAPS   H7R  714   6.222   3.069   9.770 -0.9724  0.7088  0.1825
    6SAPS   H7S  715   6.384   3.097   9.816 -0.9139 -1.1295  0.4495
    6SAPS   C28  716   6.307   3.227   9.653 -0.1102  0.4176 -0.6822
    6SAPS   H8R  717   6.402   3.283   9.653  0.2924 -0.1048  2.5900
    6SAPS   C29  718   6.235   3.223   9.542 -0.0468  0.0782  0.2854
    6SAPS   H9R  719   6.273   3.290   9.464  3.7017 -0.1914  1.6367
    6SAPS  C210  720   6.117   3.128   9.518 -0.2522 -0.3006 -0.1949
    6SAPS  H10R  721   6.099   3.040   9.583  0.5270  0.1664  0.6845
    6SAPS  H10S  722   6.128   3.092   9.413  0.3723  2.5804 -1.2317
    6SAPS  C211  723   5.992   3.213   9.524  0.1190  0.2216 -0.2784
    6SAPS  H11R  724   5.967   3.244   9.626  1.3489 -0.1902  0.1702
    6SAPS  C212  725   5.906   3.243   9.428 -0.1566  0.0307  0.4074
    6SAPS  H12R  726   5.825   3.316   9.441 -0.3458 -0.0195 -0.4360
    6SAPS  C213  727   5.923   3.201   9.283 -0.1632 -0.1299 -0.9208
    6SAPS  H13R  728   6.008   3.131   9.268 -0.1377 -0.3959  0.3453
    6SAPS  H13S  729   5.943   3.301   9.238 -0.4487  0.9063  1.1381
    6SAPS  C214  730   5.795   3.138   9.236  0.6654 -0.4475 -0.4138
    6SAPS  H14R  731   5.703   3.195   9.255  1.1565  0.4805 -0.7255
    6SAPS  C215  732   5.786   3.019   9.171 -0.2140 -0.1728 -0.9406
    6SAPS  H15R  733   5.688   2.973   9.154 -1.6266  1.1641  2.6294
    6SAPS  C216  734   5.901   2.923   9.138 -0.1844  0.0897 -0.2419
    6SAPS  H16R  735   5.921   2.850   9.219 -0.7090  0.1672 -0.0362
    6SAPS  H16S  736   5.998   2.972   9.115 -0.7217  1.3551  0.0960
    6SAPS  C217  737   5.871   2.853   9.002 -0.4540  0.2856  0.0257
    6SAPS  H17R  738   5.867   2.927   8.919 -0.0579  1.4789  1.0417
    6SAPS  H17S  739   5.775   2.798   9.013 -0.7476  0.6444 -0.6614
    6SAPS  C218  740   5.981   2.748   8.961  0.1100 -0.2247 -0.2403
    6SAPS  H18R  741   5.976   2.662   9.030 -0.7747  0.9584  1.2162
    6SAPS  H18S  742   6.082   2.792   8.971  0.3067 -1.0222  1.4107
    6SAPS  C219  743   5.968   2.705   8.809  0.1667 -0.6992 -0.7306
    6SAPS  H19R  744   5.872   2.654   8.790 -0.1116 -0.1023 -0.9373
    6SAPS  H19S  745   6.048   2.629   8.793  1.6553  0.5372  0.4970
    6SAPS  C220  746   5.973   2.819   8.707  0.2057 -0.4939  0.0325
    6SAPS  H20R  747   5.985   2.786   8.602  0.0140  0.2245 -0.2217
    6SAPS  H20S  748   6.065   2.874   8.737  1.4847 -2.5018 -0.0340
    6SAPS  H20T  749   5.887   2.888   8.721 -0.6638 -1.6734  0.6065
    6SAPS   C33  750   6.278   3.581  10.325 -0.1571 -0.7342  0.9053
    6SAPS   H3X  751   6.245   3.612  10.427 -0.7546  1.7236  0.0329
    6SAPS   H3Y  752   6.259   3.476  10.296 -1.0128  0.0272 -1.5849
    6SAPS   C34  753   6.199   3.677  10.224  0.2850 -1.1848 -0.4708
    6SAPS   H4X  754   6.271   3.718  10.149 -1.0459  0.9168 -0.6846
    6SAPS   H4Y  755   6.150   3.762  10.275  0.0828 -1.6611  0.1302
    6SAPS   C35  756   6.107   3.587  10.141  0.3202  0.0756  0.3598
    6SAPS   H5X  757   6.045   3.531  10.215 -0.8287  1.6051  0.5980
    6SAPS   H5Y  758   6.172   3.512  10.090  1.5769 -0.6978  2.9122
    6SAPS   C36  759   6.003   3.660  10.046  1.1528  0.7741 -0.6831
    6SAPS   H6X  760   6.070   3.729   9.991  3.6292  1.1974  2.6240
    6SAPS   H6Y  761   5.925   3.707  10.110  0.7402  0.1727 -0.7289
    6SAPS   C37  762   5.921   3.560   9.957  0.0122  0.1923 -0.2622
    6SAPS   H7X  763   5.987   3.508   9.884 -0.6276 -2.0301  0.6575
    6SAPS   H7Y  764   5.845   3.613   9.896  0.1722  0.4914 -0.2026
    6SAPS   C38  765   5.843   3.454  10.033 -0.2063 -0.4296  0.0636
    6SAPS   H8X  766   5.764   3.514  10.084  0.3599  1.4251 -1.1635
    6SAPS   H8Y  767   5.911   3.408  10.108 -0.7683 -0.6121  0.4703
    6SAPS   C39  768   5.782   3.347   9.947 -0.6323 -0.1177  0.0665
    6SAPS   H9X  769   5.720   3.286  10.017  0.4817 -0.5772  0.6914
    6SAPS   H9Y  770   5.856   3.271   9.914 -0.0594  1.0491 -1.4309
    6SAPS  C310  771   5.693   3.392   9.847 -0.2077  0.4483 -0.0282
    6SAPS  H10X  772   5.749   3.439   9.763  3.1912 -1.8282  0.7581
    6SAPS  H10Y  773   5.617   3.454   9.898 -1.5798 -2.0738  1.1470
    6SAPS  C311  774   5.609   3.273   9.791 -0.9261  0.6044  0.0430
    6SAPS  H11X  775   5.549   3.224   9.870  0.3114 -0.0934  0.5936
    6SAPS  H11Y  776   5.685   3.198   9.761  0.3173  0.9123  2.1874
    6SAPS  C312  777   5.520   3.312   9.674  1.1163 -0.0624  0.4489
    6SAPS  H12X  778   5.590   3.355   9.599  1.2805  1.2465  1.3298
    6SAPS  H12Y  779   5.434   3.376   9.699  0.9049  0.7455 -2.1350
    6SAPS  C313  780   5.457   3.180   9.619  0.4157  0.0811 -0.1825
    6SAPS  H13X  781   5.405   3.120   9.697 -1.5023 -2.1052 -2.9444
    6SAPS  H13Y  782   5.539   3.120   9.576  0.3610 -0.8625  1.0090
    6SAPS  C314  783   5.337   3.206   9.517 -0.0016 -0.0088 -0.5902
    6SAPS  H14X  784   5.277   3.291   9.556 -0.6425 -0.9298  0.4935
    6SAPS  H14Y  785   5.266   3.120   9.517 -0.0634  0.0414  0.0194
    6SAPS  C315  786   5.387   3.243   9.377 -0.1542 -0.4801  0.0950
    6SAPS  H15X  787   5.475   3.182   9.350 -1.1236 -2.0213  0.2978
    6SAPS  H15Y  788   5.407   3.352   9.378  0.4465 -0.5850  1.4732
    6SAPS  C316  789   5.272   3.211   9.280 -0.4163 -0.3241 -0.2711
    6SAPS  H16X  790   5.178   3.267   9.300  0.1516  0.8125 -0.6799
    6SAPS  H16Y  791   5.249   3.103   9.285 -0.8288 -0.1998  1.0259
    6SAPS  C317  792   5.299   3.248   9.135  0.5344  0.4083  0.5195
    6SAPS  H17X  793   5.398   3.204   9.111  1.5081  1.8410  1.7284
    6SAPS  H17Y  794   5.320   3.354   9.110  0.4387 -0.0752 -1.9248
    6SAPS  C318  795   5.193   3.191   9.034 -0.9239 -0.0810 -0.0608
    6SAPS  H18X  796   5.179   3.081   9.034 -1.4299 -0.0202 -0.0726
    6SAPS  H18Y  797   5.214   3.215   8.928 -0.0895  1.2663  0.3742
    6SAPS  H18Z  798   5.099   3.247   9.055 -1.7191 -1.6404  0.6879
    7SAPS     N  799   3.120   5.354  10.842 -0.5970 -0.8806 -0.1618
    7SAPS   HN1  800   3.083   5.278  10.781  0.2802 -0.1714 -1.6204
    7SAPS   HN2  801   3.170   5.319  10.926  2.0619  1.2469 -0.7402
    7SAPS   HN3  802   3.041   5.415  10.871 -0.3526 -1.1058  1.0043
    7SAPS   C12  803   3.213   5.435  10.769 -0.1974 -0.0197 -1.1457
    7SAPS  H12A  804   3.181   5.442  10.666 -0.1108  1.3366 -1.0965
    7SAPS   C13  805   3.238   5.580  10.827 -0.1704 -0.3876  0.1179
    7SAPS  O13A  806   3.190   5.613  10.947 -0.0402 -0.1881  0.2990
    7SAPS  O13B  807   3.287   5.671  10.759  0.0172  0.1033 -0.7425
    7SAPS   C11  808   3.352   5.362  10.769  0.7642  0.5729 -0.3160
    7SAPS  H11A  809   3.400   5.386  10.866 -1.2022  0.4842  0.7337
    7SAPS  H11B  810   3.414   5.414  10.693 -1.2730  2.1976 -0.9875
    7SAPS     P  811   3.330   5.139  10.618 -0.3453  0.4014 -0.0222
    7SAPS   O13  812   3.465   5.085  10.589 -0.2677 -0.6806  0.2234
    7SAPS   O14  813   3.220   5.042  10.628 -0.0658 -0.9712 -0.0606
    7SAPS   O12  814   3.343   5.223  10.748 -0.0582  0.0664 -0.0620
    7SAPS   O11  815   3.289   5.242  10.511  0.1779 -0.2809 -0.1882
    7SAPS    C1  816   3.367   5.326  10.439 -0.1661  0.2327 -0.1446
    7SAPS    HA  817   3.329   5.428  10.457  1.0804  0.6506  0.1678
    7SAPS    HB  818   3.474   5.323  10.468 -0.1046  0.3181 -0.3585
    7SAPS    C2  819   3.342   5.309  10.287 -0.5133 -1.0718  0.0856
    7SAPS    HS  820   3.421   5.373  10.244  0.4352 -1.1232  1.6810
    7SAPS   O21  821   3.213   5.355  10.255  0.5262 -0.1559 -0.1490
    7SAPS   C21  822   3.202   5.420  10.138  0.3012  0.4699  0.3463
    7SAPS   O22  823   3.295   5.460  10.072 -0.0018 -0.0356 -0.1780
    7SAPS   C22  824   3.052   5.454  10.102 -0.1469  0.1101  0.2682
    7SAPS   H2R  825   3.018   5.529  10.177 -1.2905 -0.2292  0.0957
    7SAPS   H2S  826   3.038   5.493   9.999 -1.6907  0.3980  0.5613
    7SAPS    C3  827   3.360   5.160  10.253  0.0862 -0.1679 -0.3433
    7SAPS    HX  828   3.290   5.104  10.319  2.1482 -0.6721  1.5055
    7SAPS    HY  829   3.460   5.121  10.280 -1.4863 -2.6725  2.3886
    7SAPS   O31  830   3.329   5.128  10.117  0.6781  0.4877  0.2476
    7SAPS   C31  831   3.425   5.129  10.024  0.1754  0.5635 -0.0555
    7SAPS   O32  832   3.543   5.107  10.052 -0.0515  0.2620  0.2874
    7SAPS   C32  833   3.371   5.146   9.875  0.3506  0.3920 -0.5419
    7SAPS   H2X  834   3.352   5.255   9.869  2.4009  0.7589 -1.1460
    7SAPS   H2Y  835   3.272   5.096   9.869 -0.0997  1.2403 -0.3803
    7SAPS   C23  836   2.970   5.331  10.122 -0.3165  0.7438  0.2743
    7SAPS   H3R  837   2.861   5.349  10.106 -0.3238  0.8811  0.4738
    7SAPS   H3S  838   2.982   5.293  10.226  0.2274 -3.3408 -1.0821
    7SAPS   C24  839   3.008   5.209  10.040  0.5192  0.0713 -0.4162
    7SAPS   H4R  840   2.922   5.140  10.053  1.1781 -1.2414 -2.5103
    7SAPS   H4S  841   3.092   5.162  10.094 -0.2946  0.2810  1.0973
    7SAPS   C25  842   3.007   5.242   9.890 -0.0532  0.1374  0.6696
    7SAPS   H5R  843   3.108   5.257   9.849 -0.2945  0.5266  0.2008
    7SAPS   C26  844   2.898   5.268   9.816  0.1079  0.2985 -0.0008
    7SAPS   H6R  845   2.918   5.291   9.710  1.3695 -0.6628  0.0144
    7SAPS   C27  846   2.750   5.266   9.850 -0.0260  0.3795  0.3129
    7SAPS   H7R  847   2.725   5.183   9.921  1.1432 -0.5490 -0.3134
    7SAPS   H7S  848   2.700   5.242   9.754  1.2938  0.1329 -0.3410
    7SAPS   C28  849   2.704   5.407   9.890 -0.4385  0.1115  1.1025
    7SAPS   H8R  850   2.706   5.417   9.999  0.1823  2.6476  0.9192
    7SAPS   C29  851   2.676   5.507   9.805 -0.2126  0.7041 -0.2059
    7SAPS   H9R  852   2.661   5.608   9.845  0.1267  0.4168  0.6706
    7SAPS  C210  853   2.691   5.500   9.652  0.5697  0.1431  0.7073
    7SAPS  H10R  854   2.598   5.535   9.602  0.4226 -1.7237 -0.4049
    7SAPS  H10S  855   2.708   5.398   9.612 -0.5814  0.4420 -0.6073
    7SAPS  C211  856   2.801   5.589   9.599 -0.8271  0.6086 -0.5045
    7SAPS  H11R  857   2.884   5.598   9.671 -1.7687 -1.4393  0.9478
    7SAPS  C212  858   2.813   5.647   9.477 -0.2232 -0.1391 -0.1345
    7SAPS  H12R  859   2.891   5.721   9.453 -2.3863  1.9672 -1.1345
    7SAPS  C213  860   2.702   5.638   9.378  0.3157 -0.4705  0.5424
    7SAPS  H13R  861   2.652   5.539   9.382  0.0123 -0.2936  1.2132
    7SAPS  H13S  862   2.744   5.642   9.275 -1.1538  1.4919 -0.0427
    7SAPS  C214  863   2.609   5.758   9.385  0.2949 -0.3551  0.0331
    7SAPS  H14R  864   2.652   5.848   9.432 -0.2321 -0.3949  0.6007
    7SAPS  C215  865   2.480   5.760   9.336 -0.2877 -0.5550 -0.0647
    7SAPS  H15R  866   2.424   5.849   9.368  2.4027  0.6105  1.7601
    7SAPS  C216  867   2.403   5.641   9.295 -0.6434 -0.0457  0.2326
    7SAPS  H16R  868   2.313   5.633   9.359 -0.8054 -2.0220 -0.1740
    7SAPS  H16S  869   2.447   5.545   9.328 -1.1855 -0.2638  0.3294
    7SAPS  C217  870   2.366   5.634   9.142 -0.0052 -0.7094 -0.5418
    7SAPS  H17R  871   2.315   5.539   9.114 -0.1410 -0.5494 -0.8473
    7SAPS  H17S  872   2.458   5.630   9.079  0.1797  3.1947 -0.7341
    7SAPS  C218  873   2.283   5.750   9.091  0.3308 -0.6158 -0.1738
    7SAPS  H18R  874   2.322   5.843   9.137 -1.6387  0.9055 -1.4209
    7SAPS  H18S  875   2.177   5.745   9.124  0.1410 -1.0139 -0.8197
    7SAPS  C219  876   2.297   5.776   8.941 -0.6841  0.3849 -0.5756
    7SAPS  H19R  877   2.224   5.719   8.880 -1.7302  0.2521  0.7494
    7SAPS  H19S  878   2.398   5.747   8.905 -0.6292  1.0754 -1.0139
    7SAPS  C220  879   2.281   5.921   8.893 -0.3872 -0.2605 -0.6233
    7SAPS  H20R  880   2.179   5.957   8.919 -0.3217 -0.9958  0.7809
    7SAPS  H20S  881   2.296   5.932   8.784 -0.6245  1.1862 -0.5311
    7SAPS  H20T  882   2.350   5.995   8.940 -1.6492 -0.5244  1.8259
    7SAPS   C33  883   3.466   5.105   9.758 -0.1547  0.0762 -0.2717
    7SAPS   H3X  884   3.500   5.000   9.771  1.2227  0.8751  3.6935
    7SAPS   H3Y  885   3.564   5.156   9.753  0.7143 -1.4622  0.3801
    7SAPS   C34  886   3.395   5.122   9.620 -0.7820 -1.1440  0.3318
    7SAPS   H4X  887   3.369   5.230   9.626 -1.2432 -1.3412  2.6616
    7SAPS   H4Y  888   3.304   5.062   9.600 -1.2482 -0.4133  0.2431
    7SAPS   C35  889   3.486   5.103   9.498  0.9688  0.8038  0.2624
    7SAPS   H5X  890   3.580   5.162   9.497  1.7450 -0.3869 -0.8701
    7SAPS   H5Y  891   3.430   5.138   9.409 -0.6193 -1.9562  0.0627
    7SAPS   C36  892   3.515   4.960   9.464 -0.1986 -1.2212 -0.4234
    7SAPS   H6X  893   3.423   4.900   9.454 -0.4947 -1.1694  1.5457
    7SAPS   H6Y  894   3.577   4.906   9.539 -1.1827  0.7436  1.9508
    7SAPS   C37  895   3.580   4.968   9.326 -0.0665 -0.3343 -0.3915
    7SAPS   H7X  896   3.678   5.020   9.320 -0.2603  0.0597 -0.1253
    7SAPS   H7Y  897   3.513   5.022   9.257 -0.8590  0.2824  0.8182
    7SAPS   C38  898   3.599   4.829   9.267 -1.0016  0.4330 -0.3375
    7SAPS   H8X  899   3.503   4.778   9.243 -0.5616 -0.6761  0.1387
    7SAPS   H8Y  900   3.661   4.759   9.327  1.2083  2.7981  0.3095
    7SAPS   C39  901   3.684   4.834   9.135 -0.2514  0.8177  0.2646
    7SAPS   H9X  902   3.688   4.729   9.099  2.1126 -0.0831  2.7451
    7SAPS   H9Y  903   3.790   4.851   9.163 -0.3271  0.1049  1.0516
    7SAPS  C310  904   3.644   4.926   9.025 -0.3347  0.5697 -0.1414
    7SAPS  H10X  905   3.670   5.028   9.059  4.3379 -0.9271  1.5717
    7SAPS  H10Y  906   3.534   4.925   9.009 -1.2889 -0.4161  4.8540
    7SAPS  C311  907   3.734   4.903   8.899  0.4236  0.0699  0.2693
    7SAPS  H11X  908   3.722   4.798   8.867  0.4104  0.2903 -0.4793
    7SAPS  H11Y  909   3.839   4.922   8.931  1.1598  0.2885 -2.0930
    7SAPS  C312  910   3.700   4.989   8.784 -0.0656  0.1155  0.1781
    7SAPS  H12X  911   3.655   5.082   8.826 -1.6743 -0.8116  0.6109
    7SAPS  H12Y  912   3.628   4.940   8.715 -0.3664  1.8542 -0.8155
    7SAPS  C313  913   3.817   5.033   8.698 -0.6697  0.0378 -0.0174
    7SAPS  H13X  914   3.906   5.009   8.760 -0.4711  1.9393  0.5251
    7SAPS  H13Y  915   3.818   5.143   8.680  1.9591 -0.1821 -1.6487
    7SAPS  C314  916   3.830   4.941   8.570 -0.4976 -0.0519  0.9828
    7SAPS  H14X  917   3.806   4.835   8.589  0.6460 -0.6785 -0.8705
    7SAPS  H14Y  918   3.938   4.937   8.545 -0.6443  1.3354 -0.0068
    7SAPS  C315  919   3.753   5.003   8.448  0.0605 -0.0780 -0.6884
    7SAPS  H15X  920   3.794   5.100   8.412 -1.4075 -0.0369 -2.3667
    7SAPS  H15Y  921   3.647   5.021   8.477 -0.0853 -2.1135  0.2663
    7SAPS  C316  922   3.745   4.906   8.327  0.2016  0.3941 -0.2479
    7SAPS  H16X  923   3.649   4.919   8.272 -1.0061  0.1740  1.6965
    7SAPS  H16Y  924   3.735   4.800   8.358 -0.7118  0.2457 -0.9840
    7SAPS  C317  925   3.861   4.919   8.232 -0.0811  0.2120 -0.2765
    7SAPS  H17X  926   3.942   4.882   8.299 -3.0079 -2.4214  2.1677
    7SAPS  H17Y  927   3.868   5.023   8.193 -2.5216  0.4422 -0.2534
    7SAPS  C318  928   3.847   4.831   8.111 -0.8209 -0.2982  0.5628
    7SAPS  H18X  929   3.935   4.832   8.044 -0.4565 -2.2736  0.9542
    7SAPS  H18Y  930   3.759   4.856   8.048 -0.4771  0.0631  0.2228
    7SAPS  H18Z  931   3.826   4.726   8.142 -0.2354 -1.1559 -1.8039
    8SAPS     N  932   4.981   5.964  10.892 -0.2637 -0.2437  0.2296
    8SAPS   HN1  933   4.928   6.036  10.837 -1.1619  1.7378  3.4416
    8SAPS   HN2  934   5.065   5.938  10.835 -1.3290 -3.3796 -0.0538
    8SAPS   HN3  935   4.932   5.873  10.903 -2.1698  0.6534 -0.3860
    8SAPS   C12  936   5.022   6.019  11.020  0.6740  0.6367 -0.6717
    8SAPS  H12A  937   4.933   6.050  11.072 -0.1458 -0.1993 -1.5293
    8SAPS   C13  938   5.109   5.929  11.110 -0.7137 -0.2629  0.2858
    8SAPS  O13A  939   5.143   5.817  11.082  0.2606  0.2450 -0.0443
    8SAPS  O13B  940   5.171   5.990  11.206  0.1123 -0.0835  0.3220
    8SAPS   C11  941   5.096   6.153  10.985  0.4544 -0.2014  0.2730
    8SAPS  H11A  942   5.177   6.122  10.916 -1.7011 -1.1947 -1.9233
    8SAPS  H11B  943   5.136   6.205  11.075  1.4820 -0.2226 -0.1566
    8SAPS     P  944   5.015   6.399  10.931  0.1509 -0.0151  0.0729
    8SAPS   O13  945   4.910   6.463  10.854  0.5581 -0.0092  0.5207
    8SAPS   O14  946   5.044   6.440  11.073  0.4472 -0.2068  0.7631
    8SAPS   O12  947   5.005   6.241  10.918 -0.4197 -0.0103  0.5348
    8SAPS   O11  948   5.153   6.434  10.852  0.0877  0.1336 -0.1917
    8SAPS    C1  949   5.192   6.358  10.734 -0.3638  0.4128  0.4429
    8SAPS    HA  950   5.302   6.362  10.717 -0.1594 -1.8295  0.9370
    8SAPS    HB  951   5.154   6.254  10.733 -2.3889  1.1185  0.8199
    8SAPS    C2  952   5.132   6.419  10.597 -0.1142  0.4267  0.4730
    8SAPS    HS  953   5.022   6.400  10.600  0.2481 -1.8995  1.9648
    8SAPS   O21  954   5.183   6.352  10.477 -1.0593 -0.3491  0.0300
    8SAPS   C21  955   5.117   6.245  10.439  0.0028  0.0033  0.4718
    8SAPS   O22  956   5.023   6.194  10.494  0.0917  0.5260 -0.0208
    8SAPS   C22  957   5.183   6.190  10.318  0.5588 -0.4453  0.7327
    8SAPS   H2R  958   5.168   6.252  10.227  0.0396 -0.2703  0.9361
    8SAPS   H2S  959   5.293   6.204  10.327  0.6728 -0.6741 -0.1694
    8SAPS    C3  960   5.169   6.574  10.587  0.6102 -0.1490  0.3701
    8SAPS    HX  961   5.279   6.577  10.596  0.7234 -1.8770 -0.0979
    8SAPS    HY  962   5.123   6.626  10.674 -0.8562  0.2374 -0.6044
    8SAPS   O31  963   5.123   6.634  10.464 -0.2783  0.1305  0.2057
    8SAPS   C31  964   5.002   6.689  10.443 -0.5453  0.1739  0.1173
    8SAPS   O32  965   4.917   6.700  10.528  0.2782 -0.4789  0.0429
    8SAPS   C32  966   4.985   6.711  10.299  0.1998  0.2388  0.1213
    8SAPS   H2X  967   5.074   6.765  10.261  2.4465 -2.4313  1.2485
    8SAPS   H2Y  968   4.891   6.768  10.284 -0.6136 -0.7060  1.4272
    8SAPS   C23  969   5.138   6.048  10.279 -0.0129 -0.2533 -0.0315
    8SAPS   H3R  970   5.028   6.042  10.266  0.2310 -0.6436 -2.2869
    8SAPS   H3S  971   5.182   5.984  10.358 -1.2929 -2.5864 -1.1155
    8SAPS   C24  972   5.193   6.014  10.145  0.0495  0.4353  0.7656
    8SAPS   H4R  973   5.127   6.066  10.071 -2.2608  0.0803  2.4524
    8SAPS   H4S  974   5.167   5.907  10.130  0.0929  0.7527 -2.1402
    8SAPS   C25  975   5.337   6.027  10.131 -0.5007  0.2477  0.6725
    8SAPS   H5R  976   5.400   6.045  10.220 -0.9959  0.5361  0.9691
    8SAPS   C26  977   5.406   6.023  10.015  0.2512 -0.5397  0.0620
    8SAPS   H6R  978   5.515   6.018  10.024  0.2245 -0.2915  0.5728
    8SAPS   C27  979   5.351   6.005   9.882  0.6002  0.4620  1.0164
    8SAPS   H7R  980   5.268   5.931   9.884  0.8730  0.1519  0.8761
    8SAPS   H7S  981   5.428   5.953   9.821  1.2808  2.1054  0.4109
    8SAPS   C28  982   5.297   6.125   9.809  0.6865  0.8028 -0.3807
    8SAPS   H8R  983   5.266   6.214   9.867 -2.5831 -0.6247  0.3098
    8SAPS   C29  984   5.266   6.135   9.675  0.2167 -0.0517 -0.2336
    8SAPS   H9R  985   5.222   6.228   9.638 -0.4722  0.3681  1.5314
    8SAPS  C210  986   5.289   6.030   9.567  0.1291 -0.2036 -0.3374
    8SAPS  H10R  987   5.232   6.059   9.477  2.5599 -0.9959 -2.2524
    8SAPS  H10S  988   5.249   5.937   9.613  0.8021  1.0930  3.2278
    8SAPS  C211  989   5.432   6.006   9.527 -0.7383 -0.2056  0.3942
    8SAPS  H11R  990   5.490   5.961   9.608 -0.7257 -1.3285 -0.2224
    8SAPS  C212  991   5.495   6.030   9.409 -0.2871  0.2357 -0.8997
    8SAPS  H12R  992   5.604   6.014   9.411 -0.5245 -1.6806 -1.1822
    8SAPS  C213  993   5.428   6.094   9.292 -1.1503 -0.1683  0.8626
    8SAPS  H13R  994   5.482   6.173   9.235 -2.6887  0.1642 -0.1813
    8SAPS  H13S  995   5.336   6.145   9.328 -0.9314  0.7484  0.1787
    8SAPS  C214  996   5.394   5.980   9.195  0.1368  0.2841  0.0447
    8SAPS  H14R  997   5.322   5.904   9.229 -1.1698  1.4326 -0.0435
    8SAPS  C215  998   5.452   5.953   9.069  0.7475 -0.7301 -0.6938
    8SAPS  H15R  999   5.412   5.864   9.020  2.4577 -2.2555  0.5404
    8SAPS  C216 1000   5.559   6.012   8.989  0.7479  0.2787 -0.3017
    8SAPS  H16R 1001   5.626   6.069   9.057 -2.0367  2.0136  1.2027
    8SAPS  H16S 1002   5.525   6.084   8.911  0.5817 -2.4917 -2.9876
    8SAPS  C217 1003   5.631   5.908   8.907  0.2490 -0.0237 -0.1955
    8SAPS  H17R 1004   5.559   5.870   8.831 -1.9883  2.2794  0.6438
    8SAPS  H17S 1005   5.648   5.823   8.976  2.0335 -0.5125 -1.1743
    8SAPS  C218 1006   5.776   5.954   8.858 -0.4702  0.1138  0.0690
    8SAPS  H18R 1007   5.825   5.955   8.958 -0.1794 -1.0661 -0.0428
    8SAPS  H18S 1008   5.777   6.058   8.818 -1.0481  0.1226  0.0727
    8SAPS  C219 1009   5.854   5.864   8.760  0.2969 -0.4546  0.6373
    8SAPS  H19R 1010   5.806   5.869   8.660 -3.4015  3.1595  2.2896
    8SAPS  H19S 1011   5.844   5.761   8.802 -1.5872 -0.0082  1.3799
    8SAPS  C220 1012   6.000   5.897   8.741 -0.0947 -0.2630 -0.1470
    8SAPS  H20R 1013   6.049   5.930   8.835  1.3190 -0.1535 -0.8961
    8SAPS  H20S 1014   6.020   5.987   8.679  0.7817 -0.5374 -0.2648
    8SAPS  H20T 1015   6.055   5.812   8.696  1.9294  0.6469  0.4980
    8SAPS   C33 1016   4.980   6.577  10.221  0.2846  0.5075 -0.1978
    8SAPS   H3X 1017   5.057   6.503  10.252 -0.4901 -0.4787 -0.5767
    8SAPS   H3Y 1018   5.008   6.613  10.120  0.6595  1.6474  0.2957
    8SAPS   C34 1019   4.846   6.503  10.222 -1.5467 -0.5517 -0.1210
    8SAPS   H4X 1020   4.769   6.569  10.177  0.3068  0.8601 -1.3358
    8SAPS   H4Y 1021   4.817   6.483  10.328 -0.4617  0.1636  0.3180
    8SAPS   C35 1022   4.864   6.364  10.155 -0.4864  0.4843 -0.3040
    8SAPS   H5X 1023   4.781   6.294  10.176 -0.3872  0.0029 -1.4159
    8SAPS   H5Y 1024   4.953   6.305  10.185 -0.6834 -0.0602 -0.7647
    8SAPS   C36 1025   4.848   6.375  10.003 -0.2213 -0.4503 -0.5534
    8SAPS   H6X 1026   4.927   6.443   9.965  2.6944 -1.5119  3.0064
    8SAPS   H6Y 1027   4.750   6.426   9.991 -0.5519 -0.5285  1.4687
    8SAPS   C37 1028   4.849   6.246   9.926  0.2483  0.5262 -0.4085
    8SAPS   H7X 1029   4.776   6.171   9.963  1.6882 -1.2298 -0.9346
    8SAPS   H7Y 1030   4.948   6.196   9.940  0.5585  0.5621 -2.2549
    8SAPS   C38 1031   4.822   6.275   9.777  0.1170  0.2395 -0.0827
    8SAPS   H8X 1032   4.744   6.353   9.770  2.2487  2.4915 -0.0405
    8SAPS   H8Y 1033   4.786   6.177   9.737 -0.6664 -0.0208  1.2049
    8SAPS   C39 1034   4.936   6.323   9.690  0.4289  0.2166 -0.0053
    8SAPS   H9X 1035   5.006   6.237   9.700  0.8765  0.8149  2.7408
    8SAPS   H9Y 1036   4.984   6.412   9.735  0.9333 -1.2127  2.4220
    8SAPS  C310 1037   4.895   6.331   9.541 -0.7029  0.2153  0.0036
    8SAPS  H10X 1038   4.837   6.421   9.511  0.7275  0.2848 -2.9898
    8SAPS  H10Y 1039   4.833   6.244   9.510 -0.5828 -0.8916  2.6434
    8SAPS  C311 1040   5.020   6.338   9.451 -0.4343 -0.1250  0.1149
    8SAPS  H11X 1041   5.072   6.241   9.456  0.9048  0.6248  1.2173
    8SAPS  H11Y 1042   5.096   6.413   9.480 -0.6873  0.1713  0.0290
    8SAPS  C312 1043   4.981   6.356   9.303 -0.0859 -0.3498 -0.4088
    8SAPS  H12X 1044   4.937   6.457   9.288 -0.3530 -0.3913  0.0739
    8SAPS  H12Y 1045   4.900   6.287   9.275  0.6425 -0.7794 -1.5129
    8SAPS  C313 1046   5.081   6.319   9.199  0.2346  0.3383 -0.8860
    8SAPS  H13X 1047   5.135   6.228   9.231 -0.8311  0.3343  1.0354
    8SAPS  H13Y 1048   5.163   6.395   9.196  1.7329 -1.1385  0.7751
    8SAPS  C314 1049   5.014   6.297   9.063 -0.4109 -0.0698 -0.1934
    8SAPS  H14X 1050   4.969   6.392   9.027 -3.1237 -1.4447 -0.7089
    8SAPS  H14Y 1051   4.923   6.237   9.082  0.0709 -1.3024 -1.5460
    8SAPS  C315 1052   5.113   6.253   8.965  0.4344  0.2598 -0.3809
    8SAPS  H15X 1053   5.143   6.150   8.997 -0.1707  0.5832  1.2722
    8SAPS  H15Y 1054   5.206   6.314   8.966  0.4613  0.2284 -0.7200
    8SAPS  C316 1055   5.078   6.248   8.818  0.3655 -0.1391  0.9612
    8SAPS  H16X 1056   5.063   6.352   8.780  0.4364 -0.4238  0.1389
    8SAPS  H16Y 1057   4.977   6.207   8.794 -0.5716  2.2980  0.4092
    8SAPS  C317 1058   5.184   6.180   8.727  0.6527  0.3155  0.7081
    8SAPS  H17X 1059   5.199   6.072   8.748  0.2611 -0.5627 -2.8457
    8SAPS  H17Y 1060   5.287   6.218   8.742  1.2614 -1.2958  0.8661
    8SAPS  C318 1061   5.156   6.188   8.579 -0.0931 -0.1144 -0.4538
    8SAPS  H18X 1062   5.115   6.287   8.550  1.1006  1.0820  1.7052
    8SAPS  H18Y 1063   5.076   6.116   8.553  0.1958 -0.5881 -0.0499
    8SAPS  H18Z 1064   5.241   6.157   8.515  0.9033  1.2247  0.1738
    9SAPS     N 1065   2.800   6.183   6.454 -0.0476  0.0136  0.4706
    9SAPS   HN1 1066   2.903   6.188   6.442 -0.1457 -2.3429 -2.4331
    9SAPS   HN2 1067   2.763   6.221   6.543 -1.2936 -0.5544  0.2205
    9SAPS   HN3 1068   2.766   6.086   6.468 -0.7788  0.6972  4.9130
    9SAPS   C12 1069   2.726   6.245   6.339  0.3833  0.2374 -0.3499
    9SAPS  H12A 1070   2.776   6.227   6.245  1.5195 -0.4202  0.3589
    9SAPS   C13 1071   2.585   6.195   6.321  0.2759  0.0694 -0.1754
    9SAPS  O13A 1072   2.537   6.110   6.399  0.5008 -0.1398 -0.0941
    9SAPS  O13B 1073   2.526   6.223   6.216  0.2545  0.3815 -0.1544
    9SAPS   C11 1074   2.722   6.402   6.372  0.0552 -1.1459 -0.3555
    9SAPS  H11A 1075   2.657   6.455   6.299 -0.7310 -0.2684  0.9290
    9SAPS  H11B 1076   2.826   6.440   6.366 -0.1823 -0.5256 -0.7171
    9SAPS     P 1077   2.626   6.580   6.540 -0.0546  0.0360 -0.2252
    9SAPS   O13 1078   2.610   6.660   6.420  0.4674  0.0280 -0.1554
    9SAPS   O14 1079   2.517   6.581   6.645 -0.9500 -0.6903 -0.2678
    9SAPS   O12 1080   2.667   6.435   6.498 -0.6504  0.2019 -0.4882
    9SAPS   O11 1081   2.763   6.638   6.603  0.5795 -0.0826  0.6302
    9SAPS    C1 1082   2.836   6.560   6.694  0.3717 -0.3593 -0.1590
    9SAPS    HA 1083   2.865   6.461   6.651 -0.1862 -0.7112  0.2438
    9SAPS    HB 1084   2.934   6.606   6.715  1.0644 -0.6261 -2.5073
    9SAPS    C2 1085   2.766   6.540   6.830  0.0084  0.5421  0.1307
    9SAPS    HS 1086   2.693   6.457   6.820  1.5923 -0.8649 -0.1285
    9SAPS   O21 1087   2.712   6.661   6.884 -0.4381 -0.0375 -0.5433
    9SAPS   C21 1088   2.613   6.653   6.971 -0.2042  0.7515  0.7899
    9SAPS   O22 1089   2.544   6.548   6.986 -0.4327 -0.6783 -0.4288
    9SAPS   C22 1090   2.570   6.769   7.053 -0.6089  0.0591 -0.1700
    9SAPS   H2R 1091   2.568   6.867   7.001 -2.8826 -0.5801 -1.4160
    9SAPS   H2S 1092   2.473   6.740   7.099 -0.1825 -1.6520 -0.2894
    9SAPS    C3 1093   2.873   6.478   6.929 -0.0517 -0.2612  0.1820
    9SAPS    HX 1094   2.951   6.556   6.931 -2.7810  2.6732  1.6589
    9SAPS    HY 1095   2.923   6.386   6.891 -0.2498  0.1859 -1.2020
    9SAPS   O31 1096   2.832   6.460   7.070  0.6266  0.4402 -0.1020
    9SAPS   C31 1097   2.777   6.341   7.107 -0.2270  0.4146 -0.0093
    9SAPS   O32 1098   2.756   6.248   7.031  0.4046 -0.1100 -0.2083
    9SAPS   C32 1099   2.771   6.337   7.259  0.2802  0.1583 -0.1036
    9SAPS   H2X 1100   2.692   6.407   7.293  0.3501  0.8402 -1.2687
    9SAPS   H2Y 1101   2.868   6.347   7.313  0.3362  0.8979 -0.3247
    9SAPS   C23 1102   2.671   6.780   7.171  0.4508  0.4234 -0.2761
    9SAPS   H3R 1103   2.753   6.849   7.141  0.1874  1.2210  0.7760
    9SAPS   H3S 1104   2.726   6.688   7.200  1.2571  1.0929  0.3739
    9SAPS   C24 1105   2.610   6.826   7.310  0.0945  0.8017  0.1462
    9SAPS   H4R 1106   2.689   6.818   7.388  0.6371  1.8012 -0.2863
    9SAPS   H4S 1107   2.531   6.750   7.331  0.2529  0.0326 -1.7989
    9SAPS   C25 1108   2.549   6.965   7.293 -0.0218 -0.1481 -0.1238
    9SAPS   H5R 1109   2.500   6.989   7.197 -0.5618 -1.0323 -0.0828
    9SAPS   C26 1110   2.563   7.066   7.385 -0.0669  0.0376  0.3321
    9SAPS   H6R 1111   2.521   7.167   7.367  0.9022  0.5723  0.9959
    9SAPS   C27 1112   2.634   7.057   7.516 -0.7188  0.3431  0.7412
    9SAPS   H7R 1113   2.660   7.156   7.559  1.5674 -0.4914  1.4011
    9SAPS   H7S 1114   2.732   7.006   7.504 -0.1897  1.4325  0.3390
    9SAPS   C28 1115   2.555   6.979   7.618 -0.2385  0.5878  0.5246
    9SAPS   H8R 1116   2.482   6.910   7.574  1.5651  0.4589 -2.5578
    9SAPS   C29 1117   2.580   6.976   7.748  1.8737 -0.1620  0.3848
    9SAPS   H9R 1118   2.509   6.921   7.812  1.6421  0.8919  1.0590
    9SAPS  C210 1119   2.683   7.045   7.832 -0.5498 -0.8257  0.2470
    9SAPS  H10R 1120   2.755   7.084   7.757 -1.5931  0.0150 -0.3470
    9SAPS  H10S 1121   2.741   6.970   7.891 -0.7687 -0.7601  0.5443
    9SAPS  C211 1122   2.623   7.165   7.914 -0.7671 -0.6011  0.6394
    9SAPS  H11R 1123   2.549   7.227   7.861  0.2945  0.9585  0.9265
    9SAPS  C212 1124   2.622   7.171   8.049  0.2332 -0.2614  0.0965
    9SAPS  H12R 1125   2.575   7.259   8.096  1.1307 -0.3165  1.1267
    9SAPS  C213 1126   2.684   7.073   8.146  0.1916  0.4910  0.8266
    9SAPS  H13R 1127   2.791   7.099   8.162  1.1999 -2.4150 -0.4307
    9SAPS  H13S 1128   2.690   6.973   8.099 -1.2254  0.3625  0.8882
    9SAPS  C214 1129   2.597   7.052   8.267  0.1673  0.2548 -0.1656
    9SAPS  H14R 1130   2.638   7.102   8.357  1.0610  0.7477 -0.8274
    9SAPS  C215 1131   2.504   6.956   8.290  0.0532 -0.2681  0.3185
    9SAPS  H15R 1132   2.443   6.961   8.382 -0.5010 -1.1779  0.0105
    9SAPS  C216 1133   2.450   6.853   8.195  0.2687  0.5640  0.2548
    9SAPS  H16R 1134   2.505   6.841   8.100  1.1612 -0.3860  0.8736
    9SAPS  H16S 1135   2.342   6.861   8.170  0.5915  1.3622 -0.9999
    9SAPS  C217 1136   2.467   6.713   8.249  0.4139 -0.4645  0.5064
    9SAPS  H17R 1137   2.573   6.702   8.283  1.4558  2.5835 -1.3820
    9SAPS  H17S 1138   2.442   6.652   8.159 -0.6725  1.7582 -0.7646
    9SAPS  C218 1139   2.365   6.658   8.364  0.2855 -0.0425  0.8748
    9SAPS  H18R 1140   2.366   6.712   8.462  1.2626  0.5011  0.5809
    9SAPS  H18S 1141   2.394   6.555   8.391  1.2075  0.0228  0.1636
    9SAPS  C219 1142   2.226   6.665   8.306  0.2706  0.6741 -0.2521
    9SAPS  H19R 1143   2.225   6.649   8.196 -0.1929  1.9099 -0.4431
    9SAPS  H19S 1144   2.194   6.769   8.330  0.9804  0.7577  0.3823
    9SAPS  C220 1145   2.126   6.563   8.355  0.6866 -0.2396 -0.2506
    9SAPS  H20R 1146   2.151   6.458   8.328 -1.0054 -0.4871 -0.9174
    9SAPS  H20S 1147   2.029   6.575   8.304  1.3079  0.0451 -1.4032
    9SAPS  H20T 1148   2.107   6.576   8.464 -0.0661  3.1755 -0.6735
    9SAPS   C33 1149   2.718   6.199   7.301  0.4919 -0.0958  0.2326
    9SAPS   H3X 1150   2.777   6.115   7.258 -0.8155 -1.2094  0.5560
    9SAPS   H3Y 1151   2.626   6.175   7.244  0.5849 -1.9771  0.7945
    9SAPS   C34 1152   2.695   6.193   7.452 -0.0201  0.3950 -0.4070
    9SAPS   H4X 1153   2.636   6.283   7.480 -0.2039  0.3243 -0.5656
    9SAPS   H4Y 1154   2.796   6.213   7.493  0.1028  0.1446 -0.5874
    9SAPS   C35 1155   2.628   6.067   7.507 -0.5795  0.5266 -0.2278
    9SAPS   H5X 1156   2.682   5.975   7.475 -2.8752 -0.7879 -0.5756
    9SAPS   H5Y 1157   2.528   6.056   7.461 -0.4440 -0.6389 -0.2853
    9SAPS   C36 1158   2.608   6.055   7.664  0.2872 -0.7315 -0.1205
    9SAPS   H6X 1159   2.553   6.148   7.690 -0.6505 -1.4698  0.6331
    9SAPS   H6Y 1160   2.708   6.063   7.711 -0.3118 -1.4413  1.3296
    9SAPS   C37 1161   2.533   5.927   7.716  0.0627  0.3698 -0.6246
    9SAPS   H7X 1162   2.564   5.854   7.638  1.0689 -0.2771  0.3569
    9SAPS   H7Y 1163   2.424   5.947   7.715 -0.0860 -0.2784 -2.4658
    9SAPS   C38 1164   2.588   5.872   7.845 -0.2747 -0.0664  0.1812
    9SAPS   H8X 1165   2.556   5.947   7.921  0.2734  0.2087  0.1466
    9SAPS   H8Y 1166   2.699   5.866   7.846 -0.1756  1.1260 -0.8039
    9SAPS   C39 1167   2.532   5.730   7.869 -0.1731  0.3459  0.5245
    9SAPS   H9X 1168   2.567   5.665   7.786  1.1917 -0.4999  1.7162
    9SAPS   H9Y 1169   2.421   5.729   7.857  0.0095  2.1098 -2.1033
    9SAPS  C310 1170   2.562   5.683   8.011  0.3842  0.1028 -0.4650
    9SAPS  H10X 1171   2.518   5.761   8.077  2.0730  0.1576  0.6368
    9SAPS  H10Y 1172   2.670   5.690   8.034 -0.0886 -0.2155  2.2578
    9SAPS  C311 1173   2.508   5.543   8.040 -0.2723  0.2793 -0.1742
    9SAPS  H11X 1174   2.575   5.475   7.983 -2.0213 -0.5396 -1.3267
    9SAPS  H11Y 1175   2.411   5.534   7.987  0.4488  0.0178 -1.4821
    9SAPS  C312 1176   2.497   5.503   8.181 -0.4152  0.4853 -0.0558
    9SAPS  H12X 1177   2.424   5.568   8.234  0.2602  1.7173 -0.5866
    9SAPS  H12Y 1178   2.596   5.540   8.213  0.6555  1.0002 -3.5029
    9SAPS  C313 1179   2.465   5.355   8.201 -0.1577  0.1857  0.4585
    9SAPS  H13X 1180   2.560   5.298   8.190  1.2440  2.3722  0.7083
    9SAPS  H13Y 1181   2.378   5.316   8.144  0.3678 -0.9288  0.3885
    9SAPS  C314 1182   2.425   5.329   8.346  0.4312 -0.1303 -1.1050
    9SAPS  H14X 1183   2.389   5.225   8.355  0.4917 -0.1960 -1.5997
    9SAPS  H14Y 1184   2.341   5.394   8.379 -0.6098 -1.9782  0.0566
    9SAPS  C315 1185   2.540   5.358   8.444  0.0647  0.6592 -1.3018
    9SAPS  H15X 1186   2.587   5.458   8.431  0.2949  0.6701 -0.4637
    9SAPS  H15Y 1187   2.607   5.272   8.420 -1.6776 -0.8467 -1.0501
    9SAPS  C316 1188   2.503   5.327   8.591  0.5512 -0.0607 -0.2932
    9SAPS  H16X 1189   2.506   5.219   8.614 -1.8640  0.1766  1.5709
    9SAPS  H16Y 1190   2.396   5.356   8.598  0.2749 -0.9108 -0.8771
    9SAPS  C317 1191   2.592   5.389   8.701  0.5018 -0.2152 -0.7067
    9SAPS  H17X 1192   2.700   5.363   8.701  0.5393 -0.1410 -2.2806
    9SAPS  H17Y 1193   2.552   5.357   8.800 -1.3445 -0.4879 -1.4991
    9SAPS  C318 1194   2.591   5.540   8.710  0.0928  0.9252 -0.3526
    9SAPS  H18X 1195   2.623   5.589   8.615 -0.1541  3.6350  0.8815
    9SAPS  H18Y 1196   2.648   5.575   8.798  0.8497  0.3174 -0.5858
    9SAPS  H18Z 1197   2.484   5.567   8.721 -0.5497 -1.0294 -1.3261
   10SAPS     N 1198   2.716   6.735   6.197  0.2277 -0.4277 -1.0285
   10SAPS   HN1 1199   2.704   6.827   6.150  0.5868 -0.4224 -1.1068
   10SAPS   HN2 1200   2.672   6.664   6.135  0.4860 -1.0285 -0.5290
   10SAPS   HN3 1201   2.663   6.722   6.286  0.5775  1.6338 -0.4720
   10SAPS   C12 1202   2.856   6.694   6.217 -0.0804 -0.5677 -0.3515
   10SAPS  H12A 1203   2.877   6.645   6.311  0.6365 -1.6331 -1.0359
   10SAPS   C13 1204   2.908   6.599   6.116 -0.0515  0.1146  0.1095
   10SAPS  O13A 1205   2.845   6.547   6.025  0.3132  0.7425 -0.0479
   10SAPS  O13B 1206   3.022   6.552   6.139  0.2778  0.2277 -0.7820
   10SAPS   C11 1207   2.952   6.820   6.214  0.3582 -0.0187 -0.1519
   10SAPS  H11A 1208   2.916   6.863   6.118  0.9846  1.3668  0.2176
   10SAPS  H11B 1209   3.058   6.796   6.195 -0.2257 -0.7674 -2.9335
   10SAPS     P 1210   3.049   7.003   6.377 -0.1915 -0.2021  0.2352
   10SAPS   O13 1211   3.147   7.032   6.270  0.3958 -0.0050 -0.3321
   10SAPS   O14 1212   2.978   7.112   6.450 -0.1151  0.4031  0.0598
   10SAPS   O12 1213   2.928   6.907   6.328 -0.1968  0.8942 -0.2980
   10SAPS   O11 1214   3.121   6.924   6.491  0.1155  0.6175  0.1490
   10SAPS    C1 1215   3.121   6.781   6.508  0.0211  0.7517  0.0657
   10SAPS    HA 1216   3.020   6.739   6.525  0.5317 -0.5848 -0.0920
   10SAPS    HB 1217   3.160   6.726   6.420  2.2980 -0.4612  1.7220
   10SAPS    C2 1218   3.209   6.733   6.627 -0.6887  0.5542  0.6132
   10SAPS    HS 1219   3.168   6.631   6.642  1.0742  0.1379  3.4404
   10SAPS   O21 1220   3.177   6.816   6.741  0.2044 -0.1408  0.8211
   10SAPS   C21 1221   3.175   6.749   6.858 -0.1391 -0.2285 -0.2376
   10SAPS   O22 1222   3.189   6.630   6.870  0.0644  0.1386 -0.3377
   10SAPS   C22 1223   3.171   6.847   6.972  0.7096  0.1093  0.5958
   10SAPS   H2R 1224   3.222   6.940   6.940 -0.5104  1.5880  2.7239
   10SAPS   H2S 1225   3.068   6.888   6.977  0.4430 -0.3204 -0.9507
   10SAPS    C3 1226   3.362   6.716   6.595  0.5046  0.8373  0.3181
   10SAPS    HX 1227   3.391   6.817   6.558 -0.5853 -0.0741 -3.4465
   10SAPS    HY 1228   3.359   6.640   6.514 -2.5432  1.1696 -0.0241
   10SAPS   O31 1229   3.440   6.674   6.706 -0.3837  0.3550 -0.1141
   10SAPS   C31 1230   3.472   6.541   6.708 -0.2477  0.4769 -0.4193
   10SAPS   O32 1231   3.450   6.459   6.618 -0.1956 -0.2628  0.2382
   10SAPS   C32 1232   3.537   6.501   6.840  0.2566 -0.6829 -0.9782
   10SAPS   H2X 1233   3.468   6.532   6.921 -0.5701 -0.1208 -1.8871
   10SAPS   H2Y 1234   3.635   6.553   6.848 -0.4516  0.5286  0.2297
   10SAPS   C23 1235   3.228   6.787   7.099 -0.3149 -0.0833  0.5850
   10SAPS   H3R 1236   3.330   6.747   7.084  0.2884  1.1306  1.3255
   10SAPS   H3S 1237   3.177   6.691   7.124 -0.6450  0.0907  0.5813
   10SAPS   C24 1238   3.235   6.892   7.208 -0.4585  0.2021  0.3206
   10SAPS   H4R 1239   3.299   6.971   7.163 -5.1108  3.6041 -1.0567
   10SAPS   H4S 1240   3.284   6.844   7.296 -0.6458 -1.1383 -0.2903
   10SAPS   C25 1241   3.101   6.942   7.244  0.1986 -0.0795 -0.4302
   10SAPS   H5R 1242   3.073   7.040   7.204  1.2162 -0.6430 -2.6719
   10SAPS   C26 1243   3.019   6.883   7.332  0.1391  0.6322 -0.5212
   10SAPS   H6R 1244   2.929   6.933   7.372  0.9400  0.8247  1.1406
   10SAPS   C27 1245   3.049   6.750   7.399 -0.5785  0.0787  0.2286
   10SAPS   H7R 1246   3.082   6.772   7.503 -1.0666  0.1348  0.3740
   10SAPS   H7S 1247   3.145   6.708   7.363 -0.6681 -0.8065  0.9802
   10SAPS   C28 1248   2.942   6.637   7.385  0.0439  0.1744 -0.1700
   10SAPS   H8R 1249   2.917   6.607   7.282 -0.1475 -0.0988 -0.0423
   10SAPS   C29 1250   2.884   6.573   7.483  0.8584  0.2057 -0.7485
   10SAPS   H9R 1251   2.805   6.499   7.462  1.7637 -0.6751 -1.1017
   10SAPS  C210 1252   2.909   6.593   7.635  0.3481 -0.1952  0.3623
   10SAPS  H10R 1253   2.870   6.696   7.653 -5.0222 -1.2981 -2.7233
   10SAPS  H10S 1254   3.014   6.586   7.669  0.1598  3.0132  2.0481
   10SAPS  C211 1255   2.822   6.507   7.725 -0.5240 -0.0869 -0.0761
   10SAPS  H11R 1256   2.722   6.479   7.690  0.3519 -2.5155 -0.7897
   10SAPS  C212 1257   2.842   6.453   7.847  0.3128 -0.1418 -0.2614
   10SAPS  H12R 1258   2.758   6.405   7.899  0.4113  0.9026  0.9137
   10SAPS  C213 1259   2.967   6.476   7.934  0.3456 -0.1625  0.7306
   10SAPS  H13R 1260   3.040   6.542   7.883  0.5210 -0.5722  0.4487
   10SAPS  H13S 1261   3.022   6.380   7.941 -0.6646 -0.9825 -1.6179
   10SAPS  C214 1262   2.941   6.546   8.069  0.2569 -0.5128 -0.5533
   10SAPS  H14R 1263   2.908   6.477   8.149 -0.0645  0.3743  0.0928
   10SAPS  C215 1264   2.961   6.674   8.098 -0.2185  0.1482 -0.2452
   10SAPS  H15R 1265   2.960   6.705   8.204 -0.6353  0.8307 -0.4404
   10SAPS  C216 1266   3.007   6.779   8.008  0.3141 -0.3294  0.2331
   10SAPS  H16R 1267   2.920   6.838   7.973  0.0299 -0.1988  1.1288
   10SAPS  H16S 1268   3.047   6.740   7.912 -1.0657  2.2124 -1.4927
   10SAPS  C217 1269   3.113   6.875   8.067 -0.3665 -0.1671 -0.2297
   10SAPS  H17R 1270   3.152   6.938   7.985  1.2021  0.1405  0.7001
   10SAPS  H17S 1271   3.195   6.816   8.113 -0.2887  0.3059  0.2581
   10SAPS  C218 1272   3.054   6.971   8.172 -0.6038 -0.2217  0.0788
   10SAPS  H18R 1273   3.001   6.911   8.249 -1.6971  0.0239 -0.4587
   10SAPS  H18S 1274   2.978   7.023   8.110 -2.6468 -2.2753  0.6903
   10SAPS  C219 1275   3.144   7.079   8.220 -0.2153 -1.6787 -0.4741
   10SAPS  H19R 1276   3.081   7.166   8.248  1.1896 -0.6314 -0.4504
   10SAPS  H19S 1277   3.201   7.118   8.133 -0.7264 -2.0983 -0.9970
   10SAPS  C220 1278   3.246   7.046   8.330  0.0626  0.3489  0.3164
   10SAPS  H20R 1279   3.302   7.137   8.361  0.6701 -0.4571  1.6473
   10SAPS  H20S 1280   3.320   6.971   8.293 -1.4035 -1.0966  0.1895
   10SAPS  H20T 1281   3.199   7.006   8.422 -0.4447 -0.5019 -0.2965
   10SAPS   C33 1282   3.572   6.352   6.852  0.0304  0.3625  0.2801
   10SAPS   H3X 1283   3.622   6.320   6.758  2.2807  3.1493  0.3618
   10SAPS   H3Y 1284   3.479   6.292   6.863 -0.0885  0.4159 -0.4021
   10SAPS   C34 1285   3.668   6.325   6.972  0.2396 -0.4499  0.2193
   10SAPS   H4X 1286   3.759   6.387   6.961 -1.6193  2.0686 -2.3342
   10SAPS   H4Y 1287   3.693   6.218   6.956 -0.3911 -0.7403  1.0641
   10SAPS   C35 1288   3.592   6.327   7.105 -0.6415 -0.1848  0.2663
   10SAPS   H5X 1289   3.498   6.267   7.104 -1.9596  1.8174  0.0016
   10SAPS   H5Y 1290   3.554   6.429   7.121 -0.6530  0.5103 -3.3402
   10SAPS   C36 1291   3.677   6.283   7.223 -0.4777  0.5411  0.1513
   10SAPS   H6X 1292   3.735   6.376   7.236 -1.6285  1.0744  1.9558
   10SAPS   H6Y 1293   3.752   6.204   7.199 -1.5611 -0.8234  1.0850
   10SAPS   C37 1294   3.589   6.250   7.346  0.1423  0.5734  0.2410
   10SAPS   H7X 1295   3.546   6.147   7.339  0.7465  0.3348 -0.0502
   10SAPS   H7Y 1296   3.500   6.315   7.339  0.8597  1.4020 -1.7508
   10SAPS   C38 1297   3.665   6.266   7.478 -0.0269 -0.3643 -0.2853
   10SAPS   H8X 1298   3.689   6.374   7.492  2.3842 -0.6693 -1.4552
   10SAPS   H8Y 1299   3.763   6.215   7.465 -0.6712 -1.5645 -0.6050
   10SAPS   C39 1300   3.588   6.205   7.599 -0.0129 -0.5192  0.3062
   10SAPS   H9X 1301   3.483   6.239   7.586 -0.1591 -1.2508 -0.5916
   10SAPS   H9Y 1302   3.625   6.263   7.686 -0.0831 -1.2169  0.8068
   10SAPS  C310 1303   3.637   6.056   7.625  0.5234  0.0495 -0.4260
   10SAPS  H10X 1304   3.748   6.055   7.631  0.6972  0.4200 -2.6796
   10SAPS  H10Y 1305   3.618   6.001   7.530 -0.9775  1.0220 -0.7117
   10SAPS  C311 1306   3.578   6.003   7.752 -0.5128 -0.1108  0.0862
   10SAPS  H11X 1307   3.611   5.897   7.761  2.8131  0.7752 -0.3506
   10SAPS  H11Y 1308   3.467   6.004   7.749 -0.4971  0.8940 -2.7568
   10SAPS  C312 1309   3.609   6.074   7.885  0.0762 -0.2706  0.3599
   10SAPS  H12X 1310   3.574   6.179   7.883  1.1685  0.1020 -1.2076
   10SAPS  H12Y 1311   3.719   6.077   7.895 -0.0068  1.6434  1.1356
   10SAPS  C313 1312   3.552   6.005   8.007  0.3508  0.2077  0.2501
   10SAPS  H13X 1313   3.585   5.899   8.017 -1.0915 -0.2752  0.1040
   10SAPS  H13Y 1314   3.441   6.003   8.005  0.3365 -0.0255  0.9815
   10SAPS  C314 1315   3.601   6.078   8.137 -0.0072 -0.1242  0.2260
   10SAPS  H14X 1316   3.571   6.185   8.138  0.1869 -0.0668  1.0056
   10SAPS  H14Y 1317   3.711   6.064   8.134  0.0067  0.0735 -0.2995
   10SAPS  C315 1318   3.550   6.006   8.259  0.1374 -0.3538 -0.4932
   10SAPS  H15X 1319   3.617   6.039   8.341 -0.2832  1.6718 -0.9332
   10SAPS  H15Y 1320   3.571   5.897   8.252 -0.0551 -0.4472  0.2381
   10SAPS  C316 1321   3.406   6.035   8.293  0.3983  0.2565 -0.1490
   10SAPS  H16X 1322   3.326   6.006   8.222  0.0218 -0.3250  0.4959
   10SAPS  H16Y 1323   3.392   6.146   8.293  0.6417  0.3001  0.6944
   10SAPS  C317 1324   3.378   5.987   8.436  0.1550 -0.3309 -0.2535
   10SAPS  H17X 1325   3.384   5.877   8.449 -3.4667 -0.6744 -0.3599
   10SAPS  H17Y 1326   3.272   6.011   8.460  0.1635 -0.4989 -0.0434
   10SAPS  C318 1327   3.458   6.058   8.546 -0.0471  0.3854  0.0417
   10SAPS  H18X 1328   3.560   6.013   8.550 -0.7956 -1.4624 -0.3598
   10SAPS  H18Y 1329   3.405   6.064   8.643 -2.6254 -0.4181 -1.2156
   10SAPS  H18Z 1330   3.471   6.163   8.515 -0.1701  0.0913 -1.0746
   11SAPS     N 1331   4.974   3.483   5.804 -0.5517  0.0162  0.8113
   11SAPS   HN1 1332   4.984   3.414   5.727  2.2740  1.9376 -0.7295
   11SAPS   HN2 1333   5.053   3.547   5.783  1.3683 -2.0111  1.4193
   11SAPS   HN3 1334   4.983   3.440   5.899 -2.0348  0.3360  1.1215
   11SAPS   C12 1335   4.849   3.558   5.790 -0.3916 -0.6790 -0.1129
   11SAPS  H12A 1336   4.851   3.641   5.858 -3.9536 -0.7624  0.2460
   11SAPS   C13 1337   4.831   3.607   5.648  0.7219  0.1383  0.1272
   11SAPS  O13A 1338   4.852   3.524   5.551  0.0794 -0.0819 -0.2587
   11SAPS  O13B 1339   4.756   3.710   5.625 -0.3612  0.1658  0.3242
   11SAPS   C11 1340   4.725   3.472   5.822 -0.6587  0.0899  0.8056
   11SAPS  H11A 1341   4.703   3.394   5.745 -1.9555  1.8779 -0.7199
   11SAPS  H11B 1342   4.642   3.545   5.808 -2.4354 -2.0896 -0.8714
   11SAPS     P 1343   4.645   3.461   6.059  0.0291  0.0360  0.1373
   11SAPS   O13 1344   4.702   3.590   6.097 -0.1296 -0.3685 -0.1138
   11SAPS   O14 1345   4.506   3.450   6.013  0.4223  0.2087 -0.4115
   11SAPS   O12 1346   4.732   3.403   5.946 -0.5323  0.3902  0.7623
   11SAPS   O11 1347   4.675   3.351   6.172  0.1837  0.1779 -0.3623
   11SAPS    C1 1348   4.779   3.252   6.162 -0.0813 -0.3531  0.0659
   11SAPS    HA 1349   4.769   3.198   6.065  0.2365  1.4498 -1.0123
   11SAPS    HB 1350   4.874   3.309   6.159 -0.9940  1.2942  0.8648
   11SAPS    C2 1351   4.792   3.154   6.278  0.7296 -0.2041  0.2322
   11SAPS    HS 1352   4.720   3.070   6.265  0.6733  0.0706 -1.4145
   11SAPS   O21 1353   4.790   3.218   6.404  0.3857 -0.6577  0.2232
   11SAPS   C21 1354   4.667   3.238   6.444  0.3375 -0.1043  1.2575
   11SAPS   O22 1355   4.564   3.208   6.386 -0.0495  0.4924  0.1009
   11SAPS   C22 1356   4.674   3.340   6.563  0.0896 -0.0922  0.2677
   11SAPS   H2R 1357   4.699   3.439   6.519  0.9795 -0.2116  0.4800
   11SAPS   H2S 1358   4.575   3.335   6.613 -0.1056 -1.9919 -0.2383
   11SAPS    C3 1359   4.932   3.097   6.258 -0.7005  0.4980  0.0736
   11SAPS    HX 1360   5.006   3.175   6.286 -1.6577  0.9439  1.4641
   11SAPS    HY 1361   4.943   3.046   6.160  0.6059 -2.2919  1.5523
   11SAPS   O31 1362   4.948   2.994   6.358 -0.0875 -0.2253 -0.8112
   11SAPS   C31 1363   5.075   2.951   6.371  0.0145 -0.7148  0.7196
   11SAPS   O32 1364   5.169   3.008   6.317 -0.3814 -0.2850 -0.3888
   11SAPS   C32 1365   5.084   2.832   6.468 -0.0201 -0.0173 -0.5244
   11SAPS   H2X 1366   5.031   2.750   6.414 -0.3333 -0.1523 -0.0220
   11SAPS   H2Y 1367   5.038   2.855   6.566 -0.9137  0.3404 -1.0155
   11SAPS   C23 1368   4.775   3.304   6.675 -0.4227 -0.5875  0.5204
   11SAPS   H3R 1369   4.770   3.388   6.748 -0.0533 -2.1157  2.3569
   11SAPS   H3S 1370   4.877   3.310   6.631  0.0605 -0.7005  1.6120
   11SAPS   C24 1371   4.737   3.177   6.753 -0.2941 -0.6418 -0.0673
   11SAPS   H4R 1372   4.719   3.093   6.682 -2.3162  0.7382 -1.2760
   11SAPS   H4S 1373   4.642   3.183   6.809 -0.4934 -2.0484 -0.2266
   11SAPS   C25 1374   4.854   3.152   6.841 -0.3365 -1.2168 -1.3637
   11SAPS   H5R 1375   4.957   3.156   6.803  1.0615  0.6209  2.1840
   11SAPS   C26 1376   4.852   3.129   6.972 -1.4895  0.1909 -0.1859
   11SAPS   H6R 1377   4.947   3.112   7.025 -0.8654 -2.0885 -1.8837
   11SAPS   C27 1378   4.733   3.119   7.058  0.4935 -0.1764  0.0650
   11SAPS   H7R 1379   4.766   3.067   7.150  0.1158 -3.5974 -1.5629
   11SAPS   H7S 1380   4.653   3.051   7.020 -0.4847  1.0144 -0.0675
   11SAPS   C28 1381   4.656   3.254   7.088  0.3303  0.0272  0.0472
   11SAPS   H8R 1382   4.657   3.319   7.000  1.6211  0.8287  0.6192
   11SAPS   C29 1383   4.609   3.292   7.209  0.2053 -0.3001  0.5822
   11SAPS   H9R 1384   4.556   3.388   7.207  3.8336  1.9001 -1.9328
   11SAPS  C210 1385   4.615   3.228   7.346  0.3742  0.3191  0.8521
   11SAPS  H10R 1386   4.602   3.119   7.328  3.2644  0.3548 -2.4983
   11SAPS  H10S 1387   4.532   3.257   7.415 -2.7638  0.3314 -2.6328
   11SAPS  C211 1388   4.759   3.241   7.391  0.1352  0.0073  0.4550
   11SAPS  H11R 1389   4.839   3.243   7.316 -1.2930 -1.3171 -1.2127
   11SAPS  C212 1390   4.811   3.234   7.516  0.2109  0.4245  0.3488
   11SAPS  H12R 1391   4.920   3.236   7.528  0.8005 -1.3826 -3.3539
   11SAPS  C213 1392   4.725   3.216   7.639  0.0857  0.3360 -0.0459
   11SAPS  H13R 1393   4.617   3.208   7.612  0.0780  0.0335  0.0726
   11SAPS  H13S 1394   4.735   3.305   7.706 -1.2686  1.3510 -1.1198
   11SAPS  C214 1395   4.776   3.108   7.730 -0.2382  0.9084  0.0643
   11SAPS  H14R 1396   4.840   3.033   7.680 -1.6662  0.4998 -1.2254
   11SAPS  C215 1397   4.743   3.091   7.860 -0.1956  0.5449 -0.0816
   11SAPS  H15R 1398   4.783   3.007   7.918  0.7015  0.9168 -0.1506
   11SAPS  C216 1399   4.642   3.190   7.924  0.3744  0.2907  0.3836
   11SAPS  H16R 1400   4.565   3.229   7.854  0.8531  2.5938  1.0727
   11SAPS  H16S 1401   4.707   3.273   7.958  1.3908 -0.5957  0.6675
   11SAPS  C217 1402   4.571   3.125   8.044  0.0762  0.3358 -0.4168
   11SAPS  H17R 1403   4.514   3.035   8.014  0.0776  0.0595  0.3944
   11SAPS  H17S 1404   4.510   3.205   8.091  0.0439 -0.5782  1.1622
   11SAPS  C218 1405   4.677   3.083   8.151 -0.4411  0.6152 -0.1517
   11SAPS  H18R 1406   4.754   3.162   8.150 -0.4523  0.6465  0.7160
   11SAPS  H18S 1407   4.718   2.985   8.117  0.0935  0.4912  0.7960
   11SAPS  C219 1408   4.618   3.062   8.292 -0.4408  0.1773  0.0353
   11SAPS  H19R 1409   4.533   2.991   8.280  1.9106 -2.5711 -1.6573
   11SAPS  H19S 1410   4.590   3.160   8.337 -0.0461  0.5766 -0.5641
   11SAPS  C220 1411   4.721   2.989   8.386 -0.1255  0.1077 -0.3071
   11SAPS  H20R 1412   4.801   3.059   8.417 -0.8477  0.0377  1.8353
   11SAPS  H20S 1413   4.766   2.903   8.333  0.7537  0.8046 -0.7152
   11SAPS  H20T 1414   4.680   2.953   8.482  0.6863 -0.4092 -0.1474
   11SAPS   C33 1415   5.227   2.780   6.500 -0.1787 -0.1726  0.2851
   11SAPS   H3X 1416   5.284   2.857   6.556  0.0741 -1.2841  1.5935
   11SAPS   H3Y 1417   5.285   2.753   6.409  1.3297 -0.6983  1.3579
   11SAPS   C34 1418   5.220   2.650   6.589  0.1668  0.2917 -0.1511
   11SAPS   H4X 1419   5.136   2.592   6.545  0.4147  0.1624 -0.4562
   11SAPS   H4Y 1420   5.182   2.686   6.687 -1.6543  1.4311 -1.2202
   11SAPS   C35 1421   5.342   2.568   6.586 -0.1068 -0.1458 -0.3484
   11SAPS   H5X 1422   5.377   2.546   6.483  1.9307 -0.7953  0.4270
   11SAPS   H5Y 1423   5.318   2.480   6.650 -2.3212 -0.0738 -1.0079
   11SAPS   C36 1424   5.463   2.635   6.646 -0.4892  0.2112 -0.0437
   11SAPS   H6X 1425   5.470   2.743   6.619  0.7405  1.2049  3.7062
   11SAPS   H6Y 1426   5.560   2.593   6.612 -1.2935  0.7284 -3.3059
   11SAPS   C37 1427   5.458   2.643   6.796 -0.3139  0.7390  0.2651
   11SAPS   H7X 1428   5.491   2.546   6.838  3.1964 -0.3031 -4.0776
   11SAPS   H7Y 1429   5.365   2.689   6.836  0.0483  0.5253  1.3878
   11SAPS   C38 1430   5.569   2.734   6.836  0.3643 -0.2887  0.4157
   11SAPS   H8X 1431   5.558   2.825   6.773 -2.2560  0.2696  1.5390
   11SAPS   H8Y 1432   5.665   2.689   6.803 -0.8799  0.5124 -5.6457
   11SAPS   C39 1433   5.568   2.752   6.982  0.0473 -0.1404  0.0445
   11SAPS   H9X 1434   5.573   2.650   7.025  1.4568  0.5359  1.5826
   11SAPS   H9Y 1435   5.468   2.796   7.001  0.1434 -0.7188  2.0858
   11SAPS  C310 1436   5.675   2.855   7.020  0.4735  0.4131 -0.5405
   11SAPS  H10X 1437   5.653   2.955   6.978  0.4681  0.5296 -0.2634
   11SAPS  H10Y 1438   5.772   2.810   6.988 -0.0174 -2.8946  2.0755
   11SAPS  C311 1439   5.682   2.884   7.170 -0.5518 -0.2859 -0.5767
   11SAPS  H11X 1440   5.712   2.793   7.226  1.7111  1.4678  1.2681
   11SAPS  H11Y 1441   5.585   2.906   7.220 -0.2674  0.6860 -0.4256
   11SAPS  C312 1442   5.778   2.998   7.209  0.1576 -0.0212 -0.0961
   11SAPS  H12X 1443   5.742   3.082   7.146  1.8014  0.6161 -0.2231
   11SAPS  H12Y 1444   5.884   2.988   7.177  0.4875  0.8614  0.6594
   11SAPS  C313 1445   5.775   3.020   7.365 -0.1428  0.2287  0.1362
   11SAPS  H13X 1446   5.669   3.031   7.398 -0.8449 -1.1792 -1.4927
   11SAPS  H13Y 1447   5.821   3.119   7.384 -0.3996  0.0357  1.9772
   11SAPS  C314 1448   5.853   2.916   7.448  0.2880 -0.4420 -0.0489
   11SAPS  H14X 1449   5.958   2.918   7.415  0.6614 -0.3159  1.0864
   11SAPS  H14Y 1450   5.820   2.811   7.435  0.8277 -0.7151  0.7182
   11SAPS  C315 1451   5.861   2.951   7.599  0.3243  0.3423 -0.1997
   11SAPS  H15X 1452   5.890   3.058   7.605 -0.7727  0.7522 -1.7110
   11SAPS  H15Y 1453   5.942   2.890   7.644  0.3968  0.1293 -0.6153
   11SAPS  C316 1454   5.726   2.926   7.690 -0.5922  0.1313 -0.4567
   11SAPS  H16X 1455   5.688   2.824   7.667  1.4361 -0.4212 -1.6261
   11SAPS  H16Y 1456   5.647   2.996   7.655 -0.5747  0.9314  1.0128
   11SAPS  C317 1457   5.746   2.956   7.839  0.8414 -0.4914 -0.1592
   11SAPS  H17X 1458   5.648   2.953   7.891  1.1311 -2.0448  0.3445
   11SAPS  H17Y 1459   5.808   3.047   7.855 -0.4817  0.5469 -0.7377
   11SAPS  C318 1460   5.829   2.846   7.901  0.3934  0.1412 -0.4516
   11SAPS  H18X 1461   5.921   2.822   7.843  2.8666 -0.9422  3.4880
   11SAPS  H18Y 1462   5.770   2.752   7.907 -0.6276  0.8329  0.8452
   11SAPS  H18Z 1463   5.837   2.875   8.008 -1.5011 -0.5370 -0.0841
   12SAPS     N 1464   5.204   3.861   6.001  0.4300  0.1873 -0.8193
   12SAPS   HN1 1465   5.138   3.799   6.052  1.1496  0.7552  0.8496
   12SAPS   HN2 1466   5.295   3.809   5.999  1.7243  2.3391 -0.3554
   12SAPS   HN3 1467   5.223   3.932   6.073  3.5937 -0.6536 -0.6747
   12SAPS   C12 1468   5.149   3.909   5.877 -0.3334  0.0753  0.3459
   12SAPS  H12A 1469   5.225   3.980   5.848  0.1633 -0.0299  1.3778
   12SAPS   C13 1470   5.121   3.801   5.767  0.2130 -0.8806  0.9954
   12SAPS  O13A 1471   5.160   3.682   5.785  0.9565 -0.3275  0.3288
   12SAPS  O13B 1472   5.125   3.852   5.652 -0.1808  0.3337  0.2575
   12SAPS   C11 1473   5.021   3.986   5.891  0.4319  0.0567 -0.8749
   12SAPS  H11A 1474   4.943   3.915   5.927 -0.7197  1.0160 -1.4132
   12SAPS  H11B 1475   4.990   4.025   5.792 -1.7437 -1.9698 -1.0919
   12SAPS     P 1476   4.926   4.176   6.048  0.2413  0.2685 -0.1509
   12SAPS   O13 1477   4.988   4.290   6.113  0.6046 -0.4965 -0.5062
   12SAPS   O14 1478   4.829   4.195   5.939  0.3788 -0.0966 -0.6199
   12SAPS   O12 1479   5.044   4.091   5.987  0.1236  0.0475  0.0090
   12SAPS   O11 1480   4.870   4.063   6.147 -0.0996  0.5574 -0.3122
   12SAPS    C1 1481   4.950   4.005   6.257  0.8802 -0.0728  0.1629
   12SAPS    HA 1482   5.006   3.916   6.221 -0.9027 -1.0740 -0.2557
   12SAPS    HB 1483   5.020   4.080   6.299  0.6550  0.0854  0.2566
   12SAPS    C2 1484   4.863   3.965   6.383  0.3390  0.9601 -0.2978
   12SAPS    HS 1485   4.801   3.880   6.344  1.4584  0.3449 -0.7949
   12SAPS   O21 1486   4.804   4.084   6.442 -0.5347  0.2357 -0.0134
   12SAPS   C21 1487   4.679   4.072   6.494 -0.1315  0.2284  0.3836
   12SAPS   O22 1488   4.618   3.968   6.496  0.3013  0.3672  0.4983
   12SAPS   C22 1489   4.638   4.205   6.560  0.4606  0.0871  0.1775
   12SAPS   H2R 1490   4.652   4.293   6.494 -0.2541 -0.7187 -1.0831
   12SAPS   H2S 1491   4.527   4.205   6.558  0.4604  0.0550  0.1854
   12SAPS    C3 1492   4.955   3.888   6.482 -0.4113  0.2064  0.1434
   12SAPS    HX 1493   5.030   3.960   6.521  0.8018 -0.9281 -0.0229
   12SAPS    HY 1494   5.008   3.803   6.434 -0.0800  0.3906  0.1793
   12SAPS   O31 1495   4.885   3.845   6.602  0.6885 -0.5065 -0.9394
   12SAPS   C31 1496   4.955   3.757   6.667 -0.1938  0.6397  0.1457
   12SAPS   O32 1497   5.069   3.720   6.643 -0.0243 -0.3838  0.9445
   12SAPS   C32 1498   4.875   3.693   6.783  0.3957 -0.2686 -0.0419
   12SAPS   H2X 1499   4.797   3.633   6.732 -0.1447  0.2424  0.1719
   12SAPS   H2Y 1500   4.813   3.772   6.831  1.8854  1.4355 -0.8198
   12SAPS   C23 1501   4.697   4.220   6.698  0.0669 -0.3048  0.4426
   12SAPS   H3R 1502   4.638   4.309   6.730 -1.3462  0.2262 -3.1371
   12SAPS   H3S 1503   4.805   4.244   6.699 -0.1164  0.7020 -1.1849
   12SAPS   C24 1504   4.665   4.106   6.794  0.0754 -0.4846 -0.0076
   12SAPS   H4R 1505   4.692   4.153   6.892  0.0936  0.6245 -0.5280
   12SAPS   H4S 1506   4.742   4.029   6.771  2.6046  2.3546 -1.8893
   12SAPS   C25 1507   4.517   4.065   6.804  0.5862  1.0205  0.0141
   12SAPS   H5R 1508   4.463   4.052   6.709 -2.6954  0.3175  1.8316
   12SAPS   C26 1509   4.442   4.060   6.912 -0.8054  0.4302  0.0237
   12SAPS   H6R 1510   4.338   4.025   6.909 -0.5291 -0.3700 -1.1305
   12SAPS   C27 1511   4.487   4.097   7.049 -0.1485  0.3144  0.0243
   12SAPS   H7R 1512   4.578   4.039   7.075  0.1355 -0.8867 -3.1899
   12SAPS   H7S 1513   4.408   4.054   7.114  0.2419 -2.2615 -1.1025
   12SAPS   C28 1514   4.519   4.239   7.089  0.0461  0.8182  0.0368
   12SAPS   H8R 1515   4.609   4.287   7.047 -0.9862  1.9379 -0.9691
   12SAPS   C29 1516   4.435   4.311   7.168 -0.1515 -0.3936  0.1250
   12SAPS   H9R 1517   4.456   4.418   7.186  2.2659 -0.6756 -0.7457
   12SAPS  C210 1518   4.304   4.261   7.214  0.6192 -0.3504 -0.0381
   12SAPS  H10R 1519   4.257   4.192   7.141 -0.1478 -0.6867  0.7615
   12SAPS  H10S 1520   4.235   4.348   7.215  0.2782 -0.5708  2.5972
   12SAPS  C211 1521   4.323   4.206   7.354  0.4607  0.0836 -0.1232
   12SAPS  H11R 1522   4.376   4.109   7.350 -0.8544 -0.8007  2.0537
   12SAPS  C212 1523   4.304   4.276   7.466 -0.1563 -0.2088  0.1413
   12SAPS  H12R 1524   4.336   4.217   7.552  0.4729 -2.5706 -1.6111
   12SAPS  C213 1525   4.240   4.415   7.487 -0.9904  0.5724  0.5062
   12SAPS  H13R 1526   4.254   4.493   7.408  0.6327  1.5626  1.7059
   12SAPS  H13S 1527   4.301   4.454   7.571 -2.2830 -2.0667  2.8202
   12SAPS  C214 1528   4.093   4.407   7.501 -0.6854 -0.0821  0.0556
   12SAPS  H14R 1529   4.042   4.400   7.404  1.7307  0.0545 -1.2914
   12SAPS  C215 1530   4.022   4.402   7.612 -0.3571 -0.1150 -0.5219
   12SAPS  H15R 1531   3.912   4.400   7.610 -0.3810  0.7807 -0.6305
   12SAPS  C216 1532   4.080   4.397   7.749 -0.1307 -0.4596  0.0023
   12SAPS  H16R 1533   4.191   4.405   7.751 -0.2555  1.5195  1.3523
   12SAPS  H16S 1534   4.041   4.301   7.788 -1.2446 -1.2394 -2.7580
   12SAPS  C217 1535   4.018   4.516   7.831 -0.7685  0.2248 -0.0029
   12SAPS  H17R 1536   3.922   4.549   7.786 -0.3751  1.3152 -0.0790
   12SAPS  H17S 1537   4.079   4.610   7.832 -2.2649  1.2310  0.2962
   12SAPS  C218 1538   3.991   4.486   7.979  0.5255  0.8775 -0.8066
   12SAPS  H18R 1539   3.957   4.382   7.996  0.2263  1.2153  0.8988
   12SAPS  H18S 1540   3.914   4.560   8.009 -1.4468 -0.7551 -1.6016
   12SAPS  C219 1541   4.106   4.486   8.079 -0.6450  0.0628  0.4186
   12SAPS  H19R 1542   4.187   4.421   8.041 -2.0314  0.1594 -3.0127
   12SAPS  H19S 1543   4.073   4.426   8.167 -0.5293 -1.9442 -0.8283
   12SAPS  C220 1544   4.161   4.624   8.124 -0.4819  0.0037  0.5644
   12SAPS  H20R 1545   4.245   4.614   8.196  0.6184  0.6734 -0.5647
   12SAPS  H20S 1546   4.083   4.689   8.169 -0.6008  0.8755 -0.8053
   12SAPS  H20T 1547   4.195   4.678   8.032 -0.8893  0.1281  0.4848
   12SAPS   C33 1548   4.960   3.599   6.871 -0.1831 -0.2044 -0.7477
   12SAPS   H3X 1549   5.036   3.666   6.915 -1.8307  2.1841 -1.3142
   12SAPS   H3Y 1550   5.010   3.515   6.819  1.2450 -0.7991  1.4529
   12SAPS   C34 1551   4.887   3.541   6.999  0.2285  0.4305  0.2931
   12SAPS   H4X 1552   4.963   3.474   7.045  1.1604  1.3786  0.1773
   12SAPS   H4Y 1553   4.800   3.482   6.963 -0.7967  3.0468 -1.8593
   12SAPS   C35 1554   4.844   3.640   7.107 -0.0590 -0.0201  0.0711
   12SAPS   H5X 1555   4.763   3.710   7.076 -0.6916  0.1686  1.9857
   12SAPS   H5Y 1556   4.940   3.693   7.125 -0.2380 -0.2560  1.8934
   12SAPS   C36 1557   4.805   3.577   7.240  0.4258 -0.0875  0.6585
   12SAPS   H6X 1558   4.868   3.491   7.270 -1.9057 -1.4998  1.8211
   12SAPS   H6Y 1559   4.707   3.525   7.230  0.4135  0.0843 -0.2127
   12SAPS   C37 1560   4.818   3.677   7.358 -0.6361  0.8937  0.1145
   12SAPS   H7X 1561   4.764   3.770   7.330 -0.0586  1.4313  0.7670
   12SAPS   H7Y 1562   4.925   3.705   7.364 -0.1461 -0.3725 -1.7561
   12SAPS   C38 1563   4.759   3.613   7.483 -0.0223  0.4285  0.1035
   12SAPS   H8X 1564   4.834   3.533   7.501 -0.2431  0.3755  0.7820
   12SAPS   H8Y 1565   4.661   3.571   7.451 -0.0206  0.4679  0.0460
   12SAPS   C39 1566   4.756   3.713   7.609 -0.5753  0.5494  1.2187
   12SAPS   H9X 1567   4.687   3.795   7.583  2.1557  2.8984  0.8411
   12SAPS   H9Y 1568   4.853   3.768   7.615 -0.4074  0.1604  2.3562
   12SAPS  C310 1569   4.731   3.641   7.739 -0.0698 -0.3842  0.3147
   12SAPS  H10X 1570   4.763   3.714   7.816  0.2059 -0.6822  0.4817
   12SAPS  H10Y 1571   4.792   3.548   7.739  1.1991  0.4381  0.2544
   12SAPS  C311 1572   4.591   3.594   7.767  0.1736  0.2313 -0.2141
   12SAPS  H11X 1573   4.589   3.491   7.726 -0.8504 -0.1705  0.8085
   12SAPS  H11Y 1574   4.512   3.655   7.718 -1.2190 -1.5689 -0.2861
   12SAPS  C312 1575   4.562   3.601   7.919  0.9158  0.8764 -0.3082
   12SAPS  H12X 1576   4.610   3.692   7.961  0.9944  0.6297  0.1371
   12SAPS  H12Y 1577   4.585   3.510   7.977 -1.5540 -0.1529 -0.8107
   12SAPS  C313 1578   4.409   3.617   7.957  0.4444 -1.0468 -0.6272
   12SAPS  H13X 1579   4.370   3.520   7.919  2.7540 -1.4897 -2.0761
   12SAPS  H13Y 1580   4.364   3.707   7.910  1.8435  0.6238  1.0916
   12SAPS  C314 1581   4.397   3.638   8.112  0.2760  0.2913 -1.2175
   12SAPS  H14X 1582   4.443   3.736   8.135  0.8483 -0.0339 -0.9503
   12SAPS  H14Y 1583   4.456   3.574   8.180  1.9823  2.4665 -0.5408
   12SAPS  C315 1584   4.253   3.643   8.169 -0.1942  0.1164  0.5004
   12SAPS  H15X 1585   4.176   3.581   8.118 -2.1862  1.1358  2.1196
   12SAPS  H15Y 1586   4.209   3.745   8.162 -0.8826 -0.1274  1.1576
   12SAPS  C316 1587   4.236   3.604   8.324  0.0284  0.6871  0.1085
   12SAPS  H16X 1588   4.296   3.514   8.347  1.0583  0.7684 -2.0517
   12SAPS  H16Y 1589   4.129   3.574   8.323 -0.5120  2.4938 -0.6851
   12SAPS  C317 1590   4.266   3.723   8.406  0.6675  0.5772 -0.1033
   12SAPS  H17X 1591   4.200   3.805   8.372 -0.2749  0.4313  1.2773
   12SAPS  H17Y 1592   4.375   3.742   8.403  1.3580 -2.7140 -0.2025
   12SAPS  C318 1593   4.226   3.703   8.548  0.4203  0.2137 -0.5051
   12SAPS  H18X 1594   4.254   3.792   8.607 -3.0037  1.0805  0.0008
   12SAPS  H18Y 1595   4.273   3.606   8.575  0.1530  0.1148 -0.3979
   12SAPS  H18Z 1596   4.116   3.700   8.566  0.7095  1.2248  1.7524
   13SAPS     N 1597   5.591   1.132   6.201  0.9011 -0.3995  0.0913
   13SAPS   HN1 1598   5.550   1.065   6.268  1.8359 -0.7074  0.3632
   13SAPS   HN2 1599   5.671   1.167   6.256 -0.7550 -1.5108  3.4566
   13SAPS   HN3 1600   5.523   1.210   6.187  0.9207 -0.3262  0.4164
   13SAPS   C12 1601   5.643   1.065   6.078 -0.6527  0.6732 -0.0658
   13SAPS  H12A 1602   5.570   1.055   5.999  1.5540 -2.0451 -1.9758
   13SAPS   C13 1603   5.755   1.153   6.016  0.3962 -0.5467 -0.3066
   13SAPS  O13A 1604   5.785   1.263   6.059  0.2548  0.1386  0.0945
   13SAPS  O13B 1605   5.818   1.109   5.919  0.4826 -0.0381  0.2635
   13SAPS   C11 1606   5.689   0.922   6.096 -0.1480  0.9903  0.4010
   13SAPS  H11A 1607   5.736   0.885   6.002 -1.9060  0.8798 -0.4871
   13SAPS  H11B 1608   5.602   0.860   6.127  0.8479  0.0916  1.4706
   13SAPS     P 1609   5.869   0.769   6.210 -0.7081 -0.3900 -0.0888
   13SAPS   O13 1610   5.872   0.682   6.090 -0.1593 -0.2536 -0.2735
   13SAPS   O14 1611   6.005   0.804   6.262  0.1855  0.2483 -0.8064
   13SAPS   O12 1612   5.790   0.909   6.192 -0.3513  0.5064 -0.5773
   13SAPS   O11 1613   5.795   0.696   6.322  0.3925  0.3783  0.4800
   13SAPS    C1 1614   5.721   0.765   6.426 -0.7722 -0.6049  0.3196
   13SAPS    HA 1615   5.724   0.875   6.418 -2.3884 -0.4283  1.5855
   13SAPS    HB 1616   5.616   0.729   6.424 -1.0587  0.2521 -0.5185
   13SAPS    C2 1617   5.773   0.726   6.567 -0.6516 -0.5951 -0.0949
   13SAPS    HS 1618   5.692   0.774   6.626 -1.3028 -1.7925  0.0048
   13SAPS   O21 1619   5.897   0.782   6.599 -0.4785 -0.0165 -0.6220
   13SAPS   C21 1620   5.901   0.917   6.610 -0.0762  0.0045 -0.3929
   13SAPS   O22 1621   5.800   0.991   6.612 -0.1366  0.2844  0.8627
   13SAPS   C22 1622   6.040   0.962   6.621 -0.1035 -0.2570 -0.5266
   13SAPS   H2R 1623   6.107   0.874   6.615 -0.5357 -0.8816  2.3522
   13SAPS   H2S 1624   6.070   1.029   6.538  0.0773 -0.0651 -0.3037
   13SAPS    C3 1625   5.770   0.573   6.579 -0.6753  0.0275 -0.2386
   13SAPS    HX 1626   5.845   0.530   6.509 -0.1352  0.5031  0.0390
   13SAPS    HY 1627   5.680   0.524   6.537 -0.5067 -0.1037 -0.4440
   13SAPS   O31 1628   5.789   0.529   6.716  0.5012 -0.2816  0.0306
   13SAPS   C31 1629   5.671   0.536   6.781 -0.4071  0.7113 -0.2867
   13SAPS   O32 1630   5.564   0.572   6.733 -0.6627  0.3358 -0.6373
   13SAPS   C32 1631   5.707   0.500   6.929  0.1903  0.3744  0.5322
   13SAPS   H2X 1632   5.765   0.579   6.980  0.8880 -0.4022  0.9706
   13SAPS   H2Y 1633   5.771   0.410   6.942 -0.5405 -0.0192  1.5263
   13SAPS   C23 1634   6.049   1.043   6.758 -0.4384  0.2894  0.0781
   13SAPS   H3R 1635   6.010   0.974   6.835 -2.2714 -1.1066 -1.9997
   13SAPS   H3S 1636   5.978   1.129   6.758 -1.0884 -0.1517 -2.8449
   13SAPS   C24 1637   6.188   1.094   6.790 -0.2113  0.0675 -0.5216
   13SAPS   H4R 1638   6.191   1.143   6.890  2.0884 -2.3579  0.7467
   13SAPS   H4S 1639   6.213   1.165   6.709 -1.3608  0.8611 -0.1977
   13SAPS   C25 1640   6.282   0.978   6.792 -0.3931 -0.5753 -0.3670
   13SAPS   H5R 1641   6.311   0.957   6.688 -0.0857  1.1342 -0.6518
   13SAPS   C26 1642   6.331   0.911   6.899  0.7099 -1.2731  0.1229
   13SAPS   H6R 1643   6.406   0.830   6.890  0.5643 -1.4970  0.8318
   13SAPS   C27 1644   6.295   0.933   7.048 -0.1999  0.6045 -0.0598
   13SAPS   H7R 1645   6.284   0.838   7.105  0.1113  1.4913  1.5315
   13SAPS   H7S 1646   6.206   0.997   7.068 -2.3101 -2.4952  1.3454
   13SAPS   C28 1647   6.411   1.008   7.105 -0.3304 -0.1105 -0.1738
   13SAPS   H8R 1648   6.484   1.061   7.042 -0.3314  0.4900  0.3179
   13SAPS   C29 1649   6.441   1.009   7.238 -0.8444  0.3710 -0.6164
   13SAPS   H9R 1650   6.526   1.072   7.268  0.4135 -1.1224 -0.9149
   13SAPS  C210 1651   6.360   0.939   7.348 -0.4108  0.3723  0.5717
   13SAPS  H10R 1652   6.380   0.831   7.336 -0.7172  0.4809 -1.2273
   13SAPS  H10S 1653   6.250   0.949   7.334 -0.4265 -0.1977  0.2430
   13SAPS  C211 1654   6.418   0.981   7.489  0.1209 -0.6076  0.3442
   13SAPS  H11R 1655   6.527   0.991   7.495  0.1632 -1.3537  1.0190
   13SAPS  C212 1656   6.345   1.005   7.597  0.5041  0.2767 -0.1307
   13SAPS  H12R 1657   6.396   1.034   7.690 -0.3598 -0.1336  0.4892
   13SAPS  C213 1658   6.190   1.002   7.623 -0.3358  1.1225 -0.1144
   13SAPS  H13R 1659   6.159   0.897   7.640 -1.5740  1.4896 -0.0118
   13SAPS  H13S 1660   6.135   1.031   7.531 -2.2433 -1.9729 -0.0914
   13SAPS  C214 1661   6.137   1.089   7.744 -0.7340 -0.0678 -0.4379
   13SAPS  H14R 1662   6.153   1.197   7.729  1.7360 -0.5217 -1.6980
   13SAPS  C215 1663   6.084   1.048   7.859  0.4732  0.1986 -0.0055
   13SAPS  H15R 1664   6.051   1.121   7.934 -3.5262 -1.1663 -0.2324
   13SAPS  C216 1665   6.072   0.906   7.903  0.4289 -0.1018 -0.2051
   13SAPS  H16R 1666   6.172   0.871   7.936 -0.5016 -3.0024 -0.1865
   13SAPS  H16S 1667   6.056   0.845   7.811  0.6003  0.1163 -0.3819
   13SAPS  C217 1668   5.975   0.880   8.023 -0.0835 -0.2715  0.7064
   13SAPS  H17R 1669   5.887   0.948   8.014  0.7821  1.2233  2.8265
   13SAPS  H17S 1670   6.024   0.916   8.115 -0.0453 -0.5222  0.7855
   13SAPS  C218 1671   5.935   0.731   8.032  0.4887 -0.1680 -0.0527
   13SAPS  H18R 1672   6.011   0.664   7.986  0.4429 -0.2450 -0.0157
   13SAPS  H18S 1673   5.848   0.719   7.964  1.7239 -1.8996 -1.4128
   13SAPS  C219 1674   5.922   0.693   8.178  0.5874  0.1208  0.1310
   13SAPS  H19R 1675   6.026   0.707   8.214  1.0233  0.3835 -1.1601
   13SAPS  H19S 1676   5.897   0.586   8.195 -3.6863  0.6433 -1.6535
   13SAPS  C220 1677   5.841   0.792   8.251  0.4906  0.3133 -0.2663
   13SAPS  H20R 1678   5.740   0.802   8.206  0.7807  1.1977 -0.7362
   13SAPS  H20S 1679   5.879   0.896   8.247  0.5680  0.3680  1.1502
   13SAPS  H20T 1680   5.828   0.764   8.358  0.3058 -0.4653 -0.4885
   13SAPS   C33 1681   5.581   0.480   7.020  0.3541  0.3628  0.1358
   13SAPS   H3X 1682   5.525   0.389   6.988 -1.2350  1.2704  0.2457
   13SAPS   H3Y 1683   5.504   0.559   7.012 -1.6857 -1.3246  1.7707
   13SAPS   C34 1684   5.612   0.472   7.164  0.4963 -0.4779 -1.2139
   13SAPS   H4X 1685   5.666   0.559   7.207 -1.6837  0.6091 -0.5530
   13SAPS   H4Y 1686   5.682   0.386   7.172 -0.2691 -1.2254 -2.2848
   13SAPS   C35 1687   5.486   0.449   7.250  0.6510  0.0683  1.1287
   13SAPS   H5X 1688   5.440   0.358   7.208  1.8656  0.1391 -0.4543
   13SAPS   H5Y 1689   5.409   0.529   7.247  2.3937  1.7980 -0.2427
   13SAPS   C36 1690   5.506   0.414   7.394 -0.1127  0.7119  0.3088
   13SAPS   H6X 1691   5.551   0.313   7.397 -0.1923  0.6252 -0.8951
   13SAPS   H6Y 1692   5.411   0.401   7.450 -1.5875 -1.1649 -2.3928
   13SAPS   C37 1693   5.594   0.518   7.464  0.5347  0.8317 -0.4160
   13SAPS   H7X 1694   5.534   0.611   7.451 -2.3935 -0.8371  0.1932
   13SAPS   H7Y 1695   5.697   0.518   7.423  1.3061  3.4295  1.2546
   13SAPS   C38 1696   5.585   0.486   7.615 -0.0618 -0.0549  0.2604
   13SAPS   H8X 1697   5.636   0.395   7.654 -1.5453 -0.0713  2.3011
   13SAPS   H8Y 1698   5.479   0.469   7.641 -0.2393 -2.1431 -1.4976
   13SAPS   C39 1699   5.649   0.590   7.709  1.2329 -0.7308 -0.1774
   13SAPS   H9X 1700   5.619   0.688   7.669  1.4880  0.1819  1.7477
   13SAPS   H9Y 1701   5.759   0.580   7.701  1.2515 -1.5349  0.8097
   13SAPS  C310 1702   5.581   0.577   7.844 -0.5628 -0.3625  0.8356
   13SAPS  H10X 1703   5.474   0.603   7.833  0.2817  2.8898 -1.3068
   13SAPS  H10Y 1704   5.627   0.651   7.913 -0.8912  0.1558  0.5059
   13SAPS  C311 1705   5.612   0.450   7.922 -0.0833 -0.1280 -0.8378
   13SAPS  H11X 1706   5.721   0.429   7.922  0.2527  1.1487  1.9108
   13SAPS  H11Y 1707   5.556   0.364   7.880  1.6780 -0.6218 -2.2765
   13SAPS  C312 1708   5.578   0.470   8.068 -0.9751 -0.7517 -0.2794
   13SAPS  H12X 1709   5.472   0.502   8.077  0.0497  2.2072  3.7978
   13SAPS  H12Y 1710   5.627   0.560   8.110 -0.6282 -1.9946  2.1778
   13SAPS  C313 1711   5.604   0.342   8.155  0.5109 -0.4710 -0.3148
   13SAPS  H13X 1712   5.546   0.272   8.091 -0.6017  2.0828 -2.2919
   13SAPS  H13Y 1713   5.549   0.350   8.252  0.2878 -1.7473 -0.3151
   13SAPS  C314 1714   5.744   0.315   8.184 -0.2061  0.5771  0.1254
   13SAPS  H14X 1715   5.805   0.386   8.243 -0.4180 -0.3587  1.5104
   13SAPS  H14Y 1716   5.800   0.308   8.087  1.8830 -2.3977  1.3744
   13SAPS  C315 1717   5.778   0.176   8.255 -0.4837 -0.0218 -0.5766
   13SAPS  H15X 1718   5.705   0.106   8.209 -1.2253 -1.0444  1.9544
   13SAPS  H15Y 1719   5.750   0.174   8.362  1.7992 -0.6329  0.0696
   13SAPS  C316 1720   5.924   0.130   8.215  0.3652 -0.2399  0.3074
   13SAPS  H16X 1721   5.980   0.218   8.177  3.2534 -1.2128  1.9211
   13SAPS  H16Y 1722   5.925   0.055   8.133  0.3778  0.3794 -0.2677
   13SAPS  C317 1723   6.019   0.075   8.325  0.4026 -0.7172 -0.5530
   13SAPS  H17X 1724   6.046   0.163   8.389  1.5937 -0.5014 -1.3070
   13SAPS  H17Y 1725   6.116   0.038   8.286  1.3239 -3.2422  3.5601
   13SAPS  C318 1726   5.972  -0.044   8.420  0.3433  0.7821 -0.1848
   13SAPS  H18X 1727   5.863  -0.031   8.440  0.1642 -1.6466  0.6840
   13SAPS  H18Y 1728   6.029  -0.040   8.516 -0.9909  0.8438  0.6305
   13SAPS  H18Z 1729   5.992  -0.143   8.375 -2.3429 -0.2922  0.8110
   14SAPS     N 1730   4.810   2.756   5.483 -0.7966  0.6414  0.1337
   14SAPS   HN1 1731   4.756   2.842   5.505 -1.5157  0.8742 -2.2916
   14SAPS   HN2 1732   4.840   2.754   5.384 -2.9582 -3.1827 -0.6149
   14SAPS   HN3 1733   4.741   2.679   5.490 -0.7757  0.6670  0.7375
   14SAPS   C12 1734   4.921   2.721   5.573  0.0661  1.0009  0.3841
   14SAPS  H12A 1735   4.873   2.680   5.660  1.3919 -0.5043  0.4543
   14SAPS   C13 1736   5.015   2.609   5.520 -0.2293 -0.1423 -0.0372
   14SAPS  O13A 1737   4.997   2.564   5.400 -0.0299 -0.2214 -0.4599
   14SAPS  O13B 1738   5.092   2.552   5.594  0.0030  0.1321 -0.7548
   14SAPS   C11 1739   5.014   2.836   5.611  0.6254 -0.5164  0.1704
   14SAPS  H11A 1740   5.023   2.896   5.517  1.0021  1.2908  1.3136
   14SAPS  H11B 1741   5.120   2.814   5.634  0.2570 -3.3324 -0.4661
   14SAPS     P 1742   4.969   2.887   5.864  0.1164  0.1211 -0.5493
   14SAPS   O13 1743   5.106   2.927   5.909  0.0535 -0.3084 -0.2302
   14SAPS   O14 1744   4.848   2.955   5.923 -0.0926 -0.1409  0.7579
   14SAPS   O12 1745   4.948   2.915   5.711 -0.2914 -0.1176 -0.3969
   14SAPS   O11 1746   4.954   2.732   5.878  0.1069  0.8464 -0.4179
   14SAPS    C1 1747   4.829   2.662   5.912 -0.6142  0.2620  0.0661
   14SAPS    HA 1748   4.735   2.710   5.877 -1.2154  0.8497  2.3386
   14SAPS    HB 1749   4.840   2.559   5.872 -1.6459 -0.3352  1.2413
   14SAPS    C2 1750   4.814   2.639   6.064 -0.3400  0.2754 -0.1078
   14SAPS    HS 1751   4.843   2.735   6.112  1.2470 -0.4821  0.5196
   14SAPS   O21 1752   4.890   2.521   6.105  0.1706  0.6188 -0.1739
   14SAPS   C21 1753   5.005   2.550   6.159  0.2122  0.3923  0.6635
   14SAPS   O22 1754   5.038   2.662   6.199  0.3826 -0.3467  0.8365
   14SAPS   C22 1755   5.096   2.429   6.164  0.2662 -0.0989  0.5335
   14SAPS   H2R 1756   5.027   2.342   6.171 -2.4182  1.8421 -0.0739
   14SAPS   H2S 1757   5.147   2.412   6.067 -0.9184 -0.3109 -0.0778
   14SAPS    C3 1758   4.669   2.615   6.106 -0.2717  0.0418  0.6187
   14SAPS    HX 1759   4.635   2.512   6.079 -1.5297  0.3435  0.9987
   14SAPS    HY 1760   4.607   2.688   6.050  2.2729  1.9076  0.0624
   14SAPS   O31 1761   4.651   2.617   6.243 -0.5388  0.1939 -0.5853
   14SAPS   C31 1762   4.658   2.737   6.299 -0.3762  0.3593 -0.1630
   14SAPS   O32 1763   4.652   2.838   6.238  0.1491 -1.0271  0.1929
   14SAPS   C32 1764   4.703   2.730   6.441  0.1296  0.3670  0.2114
   14SAPS   H2X 1765   4.810   2.759   6.443  0.3421 -0.4169  0.3617
   14SAPS   H2Y 1766   4.703   2.627   6.483 -0.1794  0.4680  0.4706
   14SAPS   C23 1767   5.204   2.426   6.275  0.1369 -0.2021  0.2451
   14SAPS   H3R 1768   5.147   2.456   6.365  0.3576  2.0154 -0.3039
   14SAPS   H3S 1769   5.267   2.515   6.256 -0.3460  0.1033  0.0441
   14SAPS   C24 1770   5.269   2.290   6.294 -0.0236 -0.2925 -0.0867
   14SAPS   H4R 1771   5.330   2.316   6.383  0.7916 -0.8664 -0.4698
   14SAPS   H4S 1772   5.335   2.277   6.206  0.5231  1.0233  0.0988
   14SAPS   C25 1773   5.171   2.184   6.323  0.1835 -0.0783  0.2273
   14SAPS   H5R 1774   5.139   2.122   6.239  0.0109 -1.3528  1.1984
   14SAPS   C26 1775   5.123   2.149   6.449 -0.5847  0.2235  0.2092
   14SAPS   H6R 1776   5.050   2.067   6.460 -0.1491 -0.2501 -0.3261
   14SAPS   C27 1777   5.159   2.222   6.574 -0.1557  0.4169  0.2804
   14SAPS   H7R 1778   5.069   2.284   6.594 -1.5561 -1.4599  0.1983
   14SAPS   H7S 1779   5.249   2.286   6.561 -0.7122  1.6049  1.9603
   14SAPS   C28 1780   5.168   2.130   6.694 -0.2033 -0.5269 -0.3121
   14SAPS   H8R 1781   5.197   2.025   6.678  0.3993 -0.3588 -0.3518
   14SAPS   C29 1782   5.159   2.161   6.820 -0.0836  0.1437 -0.4533
   14SAPS   H9R 1783   5.173   2.077   6.891  2.7753  0.8832 -0.0247
   14SAPS  C210 1784   5.129   2.302   6.873 -0.5913  0.8203 -0.5164
   14SAPS  H10R 1785   5.028   2.307   6.919 -0.5907 -0.6373 -0.3201
   14SAPS  H10S 1786   5.135   2.385   6.799  2.3151  0.9663 -0.2525
   14SAPS  C211 1787   5.229   2.340   6.980  0.6297 -0.1516  0.1106
   14SAPS  H11R 1788   5.318   2.392   6.941 -0.3167  1.1449 -0.3743
   14SAPS  C212 1789   5.214   2.317   7.115  0.6764 -0.4810  0.4070
   14SAPS  H12R 1790   5.286   2.364   7.183  0.4617 -2.8901  2.4228
   14SAPS  C213 1791   5.088   2.268   7.178 -0.1141  0.0905  0.0815
   14SAPS  H13R 1792   5.004   2.262   7.106 -1.4564  0.7377  1.5282
   14SAPS  H13S 1793   5.056   2.341   7.256  3.2437 -0.1668  1.9093
   14SAPS  C214 1794   5.100   2.140   7.254  0.4074 -0.0642  0.1096
   14SAPS  H14R 1795   5.053   2.062   7.193  0.3294  0.6151 -0.7155
   14SAPS  C215 1796   5.154   2.116   7.376  0.5896  0.1761  0.6929
   14SAPS  H15R 1797   5.147   2.011   7.408  0.3686 -0.8289 -2.3411
   14SAPS  C216 1798   5.219   2.213   7.470  0.3348 -0.1326 -0.0748
   14SAPS  H16R 1799   5.143   2.291   7.493 -1.2764 -1.5945 -0.2520
   14SAPS  H16S 1800   5.299   2.262   7.409  0.2650 -2.4395 -2.1938
   14SAPS  C217 1801   5.265   2.137   7.593  0.6189  0.4274 -0.0443
   14SAPS  H17R 1802   5.330   2.050   7.568  1.5705  0.5601  1.8000
   14SAPS  H17S 1803   5.176   2.093   7.643  0.2952  0.5007 -0.5473
   14SAPS  C218 1804   5.341   2.224   7.692 -0.3224  0.1663  0.4760
   14SAPS  H18R 1805   5.286   2.316   7.718  0.8481  1.0399 -0.0580
   14SAPS  H18S 1806   5.432   2.253   7.634 -1.7552  1.9147 -1.0001
   14SAPS  C219 1807   5.396   2.153   7.813 -0.0494  0.5697 -0.6102
   14SAPS  H19R 1808   5.473   2.214   7.864  0.9965 -1.8829  0.8914
   14SAPS  H19S 1809   5.436   2.057   7.774 -0.5322 -0.0288  0.3373
   14SAPS  C220 1810   5.289   2.117   7.913 -0.7874  0.2744 -0.4330
   14SAPS  H20R 1811   5.234   2.208   7.946 -1.2580 -0.2837  0.3483
   14SAPS  H20S 1812   5.325   2.062   8.003 -0.8675 -0.6478 -0.9480
   14SAPS  H20T 1813   5.214   2.046   7.870  0.0266 -1.2957  0.6397
   14SAPS   C33 1814   4.614   2.810   6.539  0.1444  0.5317  0.4627
   14SAPS   H3X 1815   4.509   2.788   6.510  0.6458 -3.5421  1.2541
   14SAPS   H3Y 1816   4.644   2.917   6.542 -0.4284  0.6906  0.7584
   14SAPS   C34 1817   4.631   2.773   6.683 -0.4310  0.3362 -0.2029
   14SAPS   H4X 1818   4.614   2.665   6.700 -1.2038  0.1276 -2.1046
   14SAPS   H4Y 1819   4.557   2.820   6.751 -0.0634 -0.8193  1.0658
   14SAPS   C35 1820   4.785   2.799   6.717  0.0265  0.2521  0.1083
   14SAPS   H5X 1821   4.819   2.899   6.683  0.3939 -0.2466 -1.0498
   14SAPS   H5Y 1822   4.855   2.743   6.651  1.5462  0.2163  1.6713
   14SAPS   C36 1823   4.814   2.767   6.870  0.5427  0.3047  0.6274
   14SAPS   H6X 1824   4.765   2.674   6.905  1.5759 -0.3380  0.3925
   14SAPS   H6Y 1825   4.761   2.850   6.922 -0.4050 -0.0606  0.2652
   14SAPS   C37 1826   4.961   2.758   6.901  0.3775 -1.0353  0.0878
   14SAPS   H7X 1827   5.004   2.860   6.889 -0.2701 -0.7226  0.3269
   14SAPS   H7Y 1828   5.004   2.699   6.818  1.0234  1.2036 -1.2462
   14SAPS   C38 1829   5.000   2.704   7.037 -0.8244  0.3941 -0.6616
   14SAPS   H8X 1830   4.976   2.595   7.029 -0.6251  0.4298 -1.9265
   14SAPS   H8Y 1831   4.936   2.748   7.116 -0.0453 -0.4699  0.4922
   14SAPS   C39 1832   5.147   2.710   7.063  0.3512 -0.2894  0.4059
   14SAPS   H9X 1833   5.185   2.813   7.046 -0.6770  0.0529  0.1253
   14SAPS   H9Y 1834   5.186   2.634   6.992 -1.2324 -1.1777  0.4407
   14SAPS  C310 1835   5.183   2.675   7.211  0.6121 -0.2531 -0.0574
   14SAPS  H10X 1836   5.123   2.588   7.247 -0.7378  0.9947  0.8281
   14SAPS  H10Y 1837   5.145   2.766   7.263 -0.5679 -0.7264 -0.0545
   14SAPS  C311 1838   5.336   2.654   7.230  0.2167  0.3555 -0.6944
   14SAPS  H11X 1839   5.385   2.753   7.223  0.4179  0.2275 -1.0851
   14SAPS  H11Y 1840   5.360   2.584   7.147 -2.5981  0.5182 -1.7726
   14SAPS  C312 1841   5.376   2.600   7.358 -0.4601  0.3683 -0.1015
   14SAPS  H12X 1842   5.336   2.496   7.359 -0.3525  0.3236 -0.3410
   14SAPS  H12Y 1843   5.324   2.647   7.443 -1.3840 -1.8341  0.6381
   14SAPS  C313 1844   5.530   2.598   7.386  0.4902  0.5411 -0.1720
   14SAPS  H13X 1845   5.573   2.700   7.379  2.0181 -0.1239 -0.9186
   14SAPS  H13Y 1846   5.579   2.547   7.300 -1.8407 -0.2064 -1.1681
   14SAPS  C314 1847   5.551   2.514   7.510 -0.2981  0.9036  0.6376
   14SAPS  H14X 1848   5.661   2.515   7.524 -0.4844  1.3994  2.3251
   14SAPS  H14Y 1849   5.511   2.417   7.473  1.6922  0.3039 -0.0517
   14SAPS  C315 1850   5.475   2.576   7.637  0.0163 -0.0791  0.0328
   14SAPS  H15X 1851   5.373   2.534   7.645 -0.0590  0.4036  2.1804
   14SAPS  H15Y 1852   5.446   2.682   7.631 -1.3715 -0.4343  0.2056
   14SAPS  C316 1853   5.544   2.546   7.769 -0.2142  0.1443 -0.0202
   14SAPS  H16X 1854   5.643   2.597   7.775  0.7347 -1.7211  1.2222
   14SAPS  H16Y 1855   5.565   2.437   7.773  1.4944  0.3017 -2.6198
   14SAPS  C317 1856   5.454   2.580   7.894 -0.4177 -0.3478  0.0616
   14SAPS  H17X 1857   5.368   2.512   7.878 -1.1468  0.9156 -1.6045
   14SAPS  H17Y 1858   5.422   2.685   7.878 -3.5281 -1.0632  0.9535
   14SAPS  C318 1859   5.505   2.549   8.031  0.0397  0.1876  0.1352
   14SAPS  H18X 1860   5.431   2.589   8.104 -0.1403  0.9627 -0.4583
   14SAPS  H18Y 1861   5.601   2.601   8.054  0.1943 -0.5217  1.1625
   14SAPS  H18Z 1862   5.519   2.441   8.052  1.0323  0.6322  1.9903
   15SAPS     N 1863   6.220   1.526   5.648 -0.2910  0.6822 -0.5757
   15SAPS   HN1 1864   6.281   1.527   5.733  1.7607  0.6100 -1.9774
   15SAPS   HN2 1865   6.140   1.463   5.670 -0.5008  0.7842 -1.0425
   15SAPS   HN3 1866   6.266   1.483   5.565  1.9289  1.0425  0.4014
   15SAPS   C12 1867   6.161   1.655   5.622 -0.1839 -0.2266 -0.0663
   15SAPS  H12A 1868   6.240   1.727   5.605 -0.5205  0.2776  0.4666
   15SAPS   C13 1869   6.084   1.654   5.493  0.0298  0.4046 -0.3700
   15SAPS  O13A 1870   6.056   1.541   5.436 -0.2667  0.1235 -0.3782
   15SAPS  O13B 1871   6.056   1.759   5.431 -0.1144 -0.0785  0.4420
   15SAPS   C11 1872   6.054   1.689   5.734 -0.1684  0.0182 -0.2481
   15SAPS  H11A 1873   5.980   1.607   5.743 -1.6896  1.4611  0.9305
   15SAPS  H11B 1874   6.005   1.782   5.700 -1.7553 -0.2169  1.2801
   15SAPS     P 1875   6.101   1.639   5.996  0.0601 -0.0080  0.0337
   15SAPS   O13 1876   6.122   1.494   5.966  0.0767  0.3069 -0.2082
   15SAPS   O14 1877   6.190   1.695   6.104  0.4780  0.5799 -0.1226
   15SAPS   O12 1878   6.124   1.720   5.861 -0.1884 -0.3128 -0.0416
   15SAPS   O11 1879   5.954   1.664   6.036  0.1364 -0.0762  0.4566
   15SAPS    C1 1880   5.897   1.796   6.038 -0.3230 -0.9123 -0.1452
   15SAPS    HA 1881   5.980   1.869   6.055  1.0080 -2.5832  0.9200
   15SAPS    HB 1882   5.844   1.821   5.944  1.0076  0.9007 -0.4642
   15SAPS    C2 1883   5.795   1.812   6.154 -0.2637  0.2103 -0.4714
   15SAPS    HS 1884   5.781   1.921   6.167  3.2348  0.4695  2.8989
   15SAPS   O21 1885   5.861   1.762   6.277  0.5387  0.3272  0.4569
   15SAPS   C21 1886   5.954   1.846   6.319  0.0811  0.3632 -0.0282
   15SAPS   O22 1887   5.978   1.949   6.266 -0.1135 -0.5368 -0.4895
   15SAPS   C22 1888   6.033   1.772   6.431 -0.6968 -0.7329  0.3109
   15SAPS   H2R 1889   5.955   1.740   6.503 -2.7483  0.2417 -1.3502
   15SAPS   H2S 1890   6.083   1.690   6.375 -0.8949  0.8845 -2.4163
   15SAPS    C3 1891   5.662   1.725   6.126 -0.6347  0.1341  0.0812
   15SAPS    HX 1892   5.696   1.642   6.059 -0.7486 -2.6731  3.2525
   15SAPS    HY 1893   5.595   1.796   6.073 -0.2875 -0.1247 -0.7342
   15SAPS   O31 1894   5.604   1.666   6.243  0.0518 -0.3893  0.3239
   15SAPS   C31 1895   5.580   1.727   6.348 -0.1197 -0.1161 -0.7196
   15SAPS   O32 1896   5.611   1.844   6.383 -0.2687 -0.4427 -0.1047
   15SAPS   C32 1897   5.494   1.637   6.442 -0.2395 -0.2915  0.2255
   15SAPS   H2X 1898   5.572   1.573   6.490  2.2112  2.5549  0.3080
   15SAPS   H2Y 1899   5.415   1.587   6.381 -1.2945  1.7182 -0.1456
   15SAPS   C23 1900   6.129   1.856   6.513 -0.5033  1.0146  0.3905
   15SAPS   H3R 1901   6.219   1.860   6.448 -1.3114 -0.0998 -0.8415
   15SAPS   H3S 1902   6.152   1.782   6.591 -0.0180  0.2611 -0.4455
   15SAPS   C24 1903   6.076   1.992   6.567  0.5581  0.8447 -0.1716
   15SAPS   H4R 1904   6.062   2.066   6.485 -2.2791  0.8576  0.2206
   15SAPS   H4S 1905   6.152   2.046   6.628 -0.4138  1.3322  0.6415
   15SAPS   C25 1906   5.940   1.979   6.645 -0.4765  0.2843 -0.6408
   15SAPS   H5R 1907   5.849   1.988   6.584 -0.8500 -0.3365 -0.1903
   15SAPS   C26 1908   5.927   1.935   6.772  0.2469 -0.0092 -0.2323
   15SAPS   H6R 1909   5.830   1.937   6.823  0.7917  1.1797  0.8017
   15SAPS   C27 1910   6.049   1.895   6.856  0.6123  0.1274  0.0030
   15SAPS   H7R 1911   6.142   1.934   6.808  0.9408 -1.5470 -0.7997
   15SAPS   H7S 1912   6.056   1.785   6.866 -2.8051 -0.5755 -3.1049
   15SAPS   C28 1913   6.038   1.971   6.981  0.2643 -0.5469 -0.2915
   15SAPS   H8R 1914   6.051   2.079   6.965  0.3659 -0.5019  0.0713
   15SAPS   C29 1915   6.027   1.916   7.105  0.1269 -0.1245  0.3078
   15SAPS   H9R 1916   6.011   1.992   7.183  1.4452  1.9483 -1.3398
   15SAPS  C210 1917   6.020   1.769   7.138 -0.4935  0.0885 -0.1613
   15SAPS  H10R 1918   6.115   1.716   7.117 -0.4335  0.3698 -0.6136
   15SAPS  H10S 1919   5.948   1.714   7.074 -1.3615 -2.4095  2.6905
   15SAPS  C211 1920   5.960   1.750   7.275  0.2434  0.4635  0.2932
   15SAPS  H11R 1921   5.856   1.715   7.284  0.0281  1.1036  0.3330
   15SAPS  C212 1922   6.027   1.765   7.391  0.1311  0.6181 -0.1755
   15SAPS  H12R 1923   5.962   1.766   7.480  0.7219 -0.9375  0.3124
   15SAPS  C213 1924   6.167   1.826   7.400 -0.2758  0.0519  1.1769
   15SAPS  H13R 1925   6.182   1.900   7.482 -0.5637 -0.4590  1.6992
   15SAPS  H13S 1926   6.195   1.882   7.309  0.6188 -1.7141  0.3021
   15SAPS  C214 1927   6.266   1.711   7.401  0.4412 -0.2128  0.3929
   15SAPS  H14R 1928   6.221   1.610   7.396 -0.7520  0.3304 -0.2840
   15SAPS  C215 1929   6.399   1.728   7.409  0.4546  0.7257  0.0222
   15SAPS  H15R 1930   6.462   1.637   7.409  0.4940  0.6590 -2.6622
   15SAPS  C216 1931   6.464   1.866   7.424  1.4891  0.6229  0.6600
   15SAPS  H16R 1932   6.395   1.943   7.383  0.3833 -0.3473  0.6565
   15SAPS  H16S 1933   6.558   1.878   7.367  1.9173  0.6106  1.3580
   15SAPS  C217 1934   6.482   1.908   7.567 -0.5657  0.4613 -0.2236
   15SAPS  H17R 1935   6.384   1.894   7.618 -0.5257  0.8102 -0.0516
   15SAPS  H17S 1936   6.502   2.017   7.564  1.1169  0.1634 -0.7264
   15SAPS  C218 1937   6.598   1.827   7.636  0.3201 -0.7106 -0.3864
   15SAPS  H18R 1938   6.693   1.838   7.579  0.3322 -1.7144 -0.5799
   15SAPS  H18S 1939   6.571   1.719   7.625  0.3171 -0.5167 -3.1156
   15SAPS  C219 1940   6.626   1.870   7.781  0.3791 -0.3293  0.2096
   15SAPS  H19R 1941   6.533   1.858   7.840  0.0894 -0.4613 -0.2709
   15SAPS  H19S 1942   6.650   1.979   7.778  0.9097 -0.4553 -0.2793
   15SAPS  C220 1943   6.746   1.805   7.849 -0.0062  0.4132  0.3612
   15SAPS  H20R 1944   6.768   1.838   7.953  0.3159 -0.5907  0.6229
   15SAPS  H20S 1945   6.839   1.810   7.788  0.4397  1.9707  1.1165
   15SAPS  H20T 1946   6.732   1.695   7.850 -1.2616  0.5274  2.5790
   15SAPS   C33 1947   5.418   1.707   6.556  0.2138  0.3111 -0.4259
   15SAPS   H3X 1948   5.327   1.646   6.575 -0.2751  0.5089 -1.9875
   15SAPS   H3Y 1949   5.392   1.809   6.521 -0.3092 -0.4442 -2.4297
   15SAPS   C34 1950   5.500   1.710   6.688  0.8451 -0.4611 -0.4082
   15SAPS   H4X 1951   5.581   1.784   6.671  1.5093 -1.2224 -0.6063
   15SAPS   H4Y 1952   5.547   1.611   6.706 -2.4108 -2.1972 -0.8141
   15SAPS   C35 1953   5.427   1.755   6.813 -0.0363 -0.2176 -0.0772
   15SAPS   H5X 1954   5.322   1.720   6.821  0.5200 -1.5496  2.0828
   15SAPS   H5Y 1955   5.427   1.866   6.817  0.2939 -0.2472  0.9435
   15SAPS   C36 1956   5.488   1.699   6.939  0.2377  0.3162  0.3121
   15SAPS   H6X 1957   5.594   1.731   6.936  0.4308 -0.4021 -0.7876
   15SAPS   H6Y 1958   5.491   1.588   6.937 -0.8019  0.2653 -2.0773
   15SAPS   C37 1959   5.425   1.755   7.070  0.7313  0.5114 -0.2269
   15SAPS   H7X 1960   5.317   1.729   7.079  0.7361  1.0876  1.8770
   15SAPS   H7Y 1961   5.436   1.866   7.075  1.7611  0.3869  0.5078
   15SAPS   C38 1962   5.495   1.711   7.202  0.0488 -0.7917 -0.1468
   15SAPS   H8X 1963   5.601   1.745   7.202 -0.5379  1.1358  0.3434
   15SAPS   H8Y 1964   5.493   1.600   7.207  0.7466 -0.8045 -0.0802
   15SAPS   C39 1965   5.411   1.755   7.319  0.0630  0.2758 -0.3175
   15SAPS   H9X 1966   5.304   1.727   7.304  0.7608 -3.1097  0.1402
   15SAPS   H9Y 1967   5.408   1.864   7.340 -0.1059 -0.2435  2.7083
   15SAPS  C310 1968   5.453   1.678   7.444 -0.7856  0.9034  0.2028
   15SAPS  H10X 1969   5.563   1.690   7.458 -1.0031  1.7435  1.2650
   15SAPS  H10Y 1970   5.435   1.570   7.425  1.8101  0.7723 -2.2178
   15SAPS  C311 1971   5.395   1.721   7.577  1.2193  0.3164 -0.4137
   15SAPS  H11X 1972   5.448   1.812   7.613  0.0798  0.9889 -0.3882
   15SAPS  H11Y 1973   5.431   1.640   7.645  1.6685 -0.0821 -1.1153
   15SAPS  C312 1974   5.239   1.746   7.579  0.3652  0.1644 -0.5647
   15SAPS  H12X 1975   5.192   1.652   7.542  0.3874  1.1741 -3.3385
   15SAPS  H12Y 1976   5.209   1.831   7.514  0.6908  0.0497 -0.8678
   15SAPS  C313 1977   5.203   1.788   7.720  0.1140 -0.2148  0.4672
   15SAPS  H13X 1978   5.229   1.895   7.736 -0.6836 -0.0079  0.4585
   15SAPS  H13Y 1979   5.268   1.730   7.788  0.0878 -0.0449  0.6389
   15SAPS  C314 1980   5.058   1.765   7.755  0.1833 -0.3627 -0.2600
   15SAPS  H14X 1981   5.026   1.659   7.753 -1.4067  0.0668 -2.7361
   15SAPS  H14Y 1982   5.000   1.807   7.669  1.2491  1.9547  0.0726
   15SAPS  C315 1983   5.001   1.826   7.882 -0.4580 -0.6746  0.0051
   15SAPS  H15X 1984   4.893   1.803   7.889 -0.4287 -1.3634 -1.3076
   15SAPS  H15Y 1985   5.005   1.936   7.870  1.2668 -0.9065 -2.6768
   15SAPS  C316 1986   5.064   1.786   8.024 -0.0687 -0.2350 -0.3630
   15SAPS  H16X 1987   5.162   1.837   8.033  1.0410 -2.2079 -0.5921
   15SAPS  H16Y 1988   5.078   1.676   8.034  0.7471 -0.1628 -0.6219
   15SAPS  C317 1989   4.968   1.833   8.128  0.1850 -0.0629  0.4077
   15SAPS  H17X 1990   4.871   1.791   8.094 -0.0376  0.2664  0.6259
   15SAPS  H17Y 1991   4.963   1.944   8.131 -0.7014 -0.0607 -0.7414
   15SAPS  C318 1992   5.001   1.786   8.269  0.9722  0.0629 -0.3165
   15SAPS  H18X 1993   4.996   1.675   8.273 -0.7604  0.1224  0.1856
   15SAPS  H18Y 1994   4.936   1.835   8.345  2.8855 -0.4634  1.7462
   15SAPS  H18Z 1995   5.107   1.817   8.280  1.1974 -0.3036 -1.3401
   16SAPS     N 1996   6.719   5.207   6.483 -0.1820  0.4817  0.1623
   16SAPS   HN1 1997   6.652   5.238   6.410  0.7593  0.9741 -0.5287
   16SAPS   HN2 1998   6.714   5.283   6.553  0.1719 -1.3589  2.2976
   16SAPS   HN3 1999   6.815   5.201   6.443 -0.3891  0.4433 -0.3430
   16SAPS   C12 2000   6.662   5.080   6.533 -0.0362  0.6784  0.5217
   16SAPS  H12A 2001   6.590   5.110   6.608  1.3410 -2.4937  3.4134
   16SAPS   C13 2002   6.595   5.001   6.421 -0.6199  0.8963  0.4181
   16SAPS  O13A 2003   6.586   5.041   6.304  0.0646 -0.3203  0.8272
   16SAPS  O13B 2004   6.564   4.880   6.441  0.6015 -0.2460  0.0974
   16SAPS   C11 2005   6.768   4.989   6.609  1.3507 -0.7604  0.3679
   16SAPS  H11A 2006   6.703   4.916   6.663 -0.0986  0.1025 -0.1461
   16SAPS  H11B 2007   6.801   5.059   6.690 -0.5170  0.4101  0.1951
   16SAPS     P 2008   7.006   5.005   6.495  0.1210  0.2285  0.1433
   16SAPS   O13 2009   7.098   4.899   6.438 -0.0918 -0.0415  0.8565
   16SAPS   O14 2010   6.976   5.124   6.412 -0.5232  0.1742 -0.4283
   16SAPS   O12 2011   6.869   4.930   6.531 -0.3951  0.1925 -0.0961
   16SAPS   O11 2012   7.049   5.061   6.635  0.0857  0.4462  0.1775
   16SAPS    C1 2013   7.088   4.961   6.739  0.4243 -0.8099  0.2201
   16SAPS    HA 2014   7.027   4.868   6.741 -0.8633  0.0055 -0.0478
   16SAPS    HB 2015   7.196   4.939   6.728  0.5128 -0.6446  0.7140
   16SAPS    C2 2016   7.076   5.017   6.889  0.3425 -0.2187  0.4446
   16SAPS    HS 2017   6.968   5.020   6.914 -0.0404 -2.7673 -0.6715
   16SAPS   O21 2018   7.118   5.154   6.896  0.0329 -0.6293  0.0560
   16SAPS   C21 2019   7.064   5.227   6.998  0.1388 -0.3244 -0.1951
   16SAPS   O22 2020   6.963   5.198   7.060  0.1176  0.9286 -0.6622
   16SAPS   C22 2021   7.153   5.344   7.036  0.4867  0.1729  0.5046
   16SAPS   H2R 2022   7.256   5.315   7.008  0.6677 -0.5247  1.8307
   16SAPS   H2S 2023   7.118   5.433   6.979 -2.1467  0.2486  2.0735
   16SAPS    C3 2024   7.163   4.925   6.991 -0.7801  0.7695  0.0286
   16SAPS    HX 2025   7.267   4.960   6.971 -1.5229  2.7432 -0.6346
   16SAPS    HY 2026   7.169   4.820   6.957 -1.9208  0.5088  0.5725
   16SAPS   O31 2027   7.128   4.941   7.133 -0.1003  0.1944 -0.3485
   16SAPS   C31 2028   7.024   4.874   7.170  0.5673 -0.2585  0.4946
   16SAPS   O32 2029   6.961   4.791   7.099 -0.3270  0.0184 -0.1141
   16SAPS   C32 2030   6.985   4.901   7.319 -0.6420 -0.8586 -1.1376
   16SAPS   H2X 2031   6.923   4.814   7.350 -1.7265  0.3450  0.2585
   16SAPS   H2Y 2032   6.928   4.997   7.322  2.6182  1.2342  1.1621
   16SAPS   C23 2033   7.142   5.377   7.186  0.3604  0.2616 -0.4510
   16SAPS   H3R 2034   7.181   5.280   7.226 -0.2805 -0.0738 -0.6217
   16SAPS   H3S 2035   7.038   5.374   7.223  0.9629 -1.3132  1.2967
   16SAPS   C24 2036   7.223   5.501   7.232  0.3180 -0.0424  0.3391
   16SAPS   H4R 2037   7.329   5.507   7.198  0.2843  1.1436  0.4190
   16SAPS   H4S 2038   7.223   5.515   7.342 -0.8719  1.5202  0.1673
   16SAPS   C25 2039   7.162   5.627   7.175 -0.2791 -0.1538 -0.5566
   16SAPS   H5R 2040   7.175   5.621   7.066  2.1061  0.6189 -0.3609
   16SAPS   C26 2041   7.102   5.728   7.241 -0.1843  0.0213 -0.0019
   16SAPS   H6R 2042   7.058   5.801   7.172 -0.1218 -1.9669 -2.2697
   16SAPS   C27 2043   7.076   5.747   7.392 -0.1336 -0.3524  0.5089
   16SAPS   H7R 2044   7.129   5.665   7.445 -1.2867 -1.2029  0.3754
   16SAPS   H7S 2045   6.967   5.735   7.406 -0.5712  1.2667 -1.1048
   16SAPS   C28 2046   7.125   5.885   7.436  0.6511  0.4167  0.2352
   16SAPS   H8R 2047   7.130   5.970   7.366 -1.0428  1.5687  1.4167
   16SAPS   C29 2048   7.162   5.914   7.566 -0.8594 -0.3694  0.3656
   16SAPS   H9R 2049   7.179   6.021   7.584 -0.8652 -0.2358 -0.3905
   16SAPS  C210 2050   7.182   5.821   7.685  0.2398 -0.3358 -0.0017
   16SAPS  H10R 2051   7.185   5.712   7.668  1.6968 -1.1898  4.3946
   16SAPS  H10S 2052   7.110   5.845   7.767 -0.4037  1.5217 -1.0365
   16SAPS  C211 2053   7.319   5.845   7.737  0.0423 -1.5935  0.2390
   16SAPS  H11R 2054   7.393   5.786   7.680  0.2442 -0.3040 -0.8847
   16SAPS  C212 2055   7.356   5.923   7.843  0.3342  0.5031 -0.0528
   16SAPS  H12R 2056   7.458   5.928   7.884  0.3892  1.2274 -0.2616
   16SAPS  C213 2057   7.261   6.002   7.928  0.3297 -0.0636 -0.4707
   16SAPS  H13R 2058   7.156   5.965   7.929 -0.6260  2.3877  1.4697
   16SAPS  H13S 2059   7.250   6.102   7.881  1.1867  1.0966  1.6694
   16SAPS  C214 2060   7.306   6.020   8.069 -0.0863 -0.9743 -0.4752
   16SAPS  H14R 2061   7.388   5.955   8.104  0.7640 -1.6756 -3.4820
   16SAPS  C215 2062   7.255   6.123   8.146  0.4247  0.0374  0.1563
   16SAPS  H15R 2063   7.283   6.135   8.252 -1.7532  0.3974  0.7437
   16SAPS  C216 2064   7.148   6.218   8.108  0.2402 -0.8879  0.7025
   16SAPS  H16R 2065   7.081   6.159   8.043  1.0394 -0.1727 -0.8160
   16SAPS  H16S 2066   7.186   6.302   8.046  1.4345 -1.9107  0.0112
   16SAPS  C217 2067   7.078   6.263   8.241  0.5398  0.1875 -0.7869
   16SAPS  H17R 2068   7.057   6.176   8.306  1.0192  0.6227 -0.0263
   16SAPS  H17S 2069   6.980   6.310   8.220  0.1288  0.6262  1.7333
   16SAPS  C218 2070   7.159   6.362   8.324  0.1123 -0.2670 -0.0593
   16SAPS  H18R 2071   7.176   6.459   8.272  2.5719 -0.2491  0.6487
   16SAPS  H18S 2072   7.263   6.325   8.336 -0.0077 -0.7173 -0.3823
   16SAPS  C219 2073   7.106   6.389   8.465  0.4309  0.0613 -0.0980
   16SAPS  H19R 2074   7.080   6.303   8.530 -0.7102  2.6006  3.0632
   16SAPS  H19S 2075   7.012   6.448   8.463  0.6330  0.3898  0.0037
   16SAPS  C220 2076   7.203   6.473   8.560 -0.0577 -0.2941  0.6757
   16SAPS  H20R 2077   7.145   6.513   8.646 -2.1972 -0.1843 -0.7285
   16SAPS  H20S 2078   7.232   6.565   8.505 -1.7011  1.4359  2.5296
   16SAPS  H20T 2079   7.288   6.412   8.596  0.8781  0.9668  0.6850
   16SAPS   C33 2080   7.101   4.927   7.425  0.8355 -0.0081 -0.6004
   16SAPS   H3X 2081   7.158   5.016   7.393  0.0745  1.0296  0.8315
   16SAPS   H3Y 2082   7.169   4.839   7.429  1.4833  0.3249 -2.8648
   16SAPS   C34 2083   7.036   4.959   7.559  0.1634  0.1799  0.3486
   16SAPS   H4X 2084   6.993   4.869   7.606 -0.6020  0.7356  0.7273
   16SAPS   H4Y 2085   6.956   5.033   7.540  0.8997  0.6905 -0.9267
   16SAPS   C35 2086   7.126   5.026   7.665 -0.6294  0.8137 -0.1078
   16SAPS   H5X 2087   7.131   5.135   7.645  3.1947  0.3046 -3.0565
   16SAPS   H5Y 2088   7.227   4.988   7.639 -0.4742  2.0878 -1.5712
   16SAPS   C36 2089   7.078   5.004   7.811  0.5776  0.2818  0.5448
   16SAPS   H6X 2090   7.062   4.898   7.840 -0.3526  0.6168  1.3306
   16SAPS   H6Y 2091   6.976   5.048   7.807 -0.6341 -2.3883 -0.0575
   16SAPS   C37 2092   7.161   5.074   7.905  0.2451 -0.0828 -0.4859
   16SAPS   H7X 2093   7.169   5.181   7.877 -2.1525  0.2562 -0.0731
   16SAPS   H7Y 2094   7.263   5.031   7.902 -0.5357 -2.0193 -1.1972
   16SAPS   C38 2095   7.100   5.084   8.048 -0.5278  0.5934 -0.2254
   16SAPS   H8X 2096   7.112   4.994   8.111 -0.5469  1.3434  0.8900
   16SAPS   H8Y 2097   6.996   5.122   8.056 -0.0874  1.7388  0.4317
   16SAPS   C39 2098   7.182   5.182   8.134  0.0956 -0.4211  0.3788
   16SAPS   H9X 2099   7.176   5.282   8.086 -2.0397 -0.0849  1.2582
   16SAPS   H9Y 2100   7.289   5.153   8.136  0.8106  2.0144  0.3205
   16SAPS  C310 2101   7.115   5.184   8.271 -0.2418  0.0288 -0.5466
   16SAPS  H10X 2102   7.118   5.081   8.313  1.3140  0.8202  1.5081
   16SAPS  H10Y 2103   7.014   5.230   8.273 -0.6746 -0.9016 -0.3988
   16SAPS  C311 2104   7.195   5.280   8.371 -0.1962  0.0822 -0.0849
   16SAPS  H11X 2105   7.172   5.386   8.349 -1.5966 -0.4778 -1.4629
   16SAPS  H11Y 2106   7.301   5.256   8.349  0.0685  0.6677  0.5189
   16SAPS  C312 2107   7.134   5.266   8.515 -0.1369 -0.0561 -0.3033
   16SAPS  H12X 2108   7.146   5.164   8.556 -0.6996  0.2916  0.7686
   16SAPS  H12Y 2109   7.027   5.296   8.514  0.0896  0.9334  1.4775
   16SAPS  C313 2110   7.199   5.365   8.624  0.0308 -0.0742  0.1642
   16SAPS  H13X 2111   7.173   5.472   8.610  1.4773  0.4223  1.0007
   16SAPS  H13Y 2112   7.308   5.354   8.604 -0.4353 -0.6579 -2.4378
   16SAPS  C314 2113   7.164   5.333   8.775 -1.0941  0.0495 -0.4992
   16SAPS  H14X 2114   7.189   5.227   8.798 -0.7148  0.8287  3.3358
   16SAPS  H14Y 2115   7.055   5.348   8.789 -0.9143  1.6964 -0.7250
   16SAPS  C315 2116   7.241   5.407   8.887 -0.3319 -0.0555  0.2027
   16SAPS  H15X 2117   7.348   5.390   8.865  0.1342  1.7573  0.9075
   16SAPS  H15Y 2118   7.203   5.365   8.982  0.4518 -1.7677 -0.2023
   16SAPS  C316 2119   7.202   5.556   8.898  0.3169 -0.3983 -0.3385
   16SAPS  H16X 2120   7.107   5.564   8.955 -0.1153  0.2952 -1.1332
   16SAPS  H16Y 2121   7.180   5.605   8.800  0.2068 -0.9925 -0.6147
   16SAPS  C317 2122   7.307   5.635   8.972 -0.5962 -0.5565 -0.1080
   16SAPS  H17X 2123   7.314   5.598   9.077 -0.7945  1.7449  0.7815
   16SAPS  H17Y 2124   7.282   5.743   8.975 -0.2897 -0.4976  1.5374
   16SAPS  C318 2125   7.445   5.636   8.903  0.0378 -0.7901  0.4627
   16SAPS  H18X 2126   7.448   5.660   8.794  4.4571  3.4867  1.1723
   16SAPS  H18Y 2127   7.500   5.540   8.914  0.7413 -0.2849  1.4921
   16SAPS  H18Z 2128   7.518   5.710   8.944 -1.5968  0.7464  0.7308
   17SAPC     N 2129   3.884   2.686  10.499 -0.0744 -0.2329 -0.1121
   17SAPC   C12 2130   4.028   2.638  10.506 -0.4163  0.1027 -0.1410
   17SAPC  H12A 2131   4.065   2.650  10.606 -0.2882  0.2064 -0.2008
   17SAPC  H12B 2132   4.096   2.701  10.450 -1.0225  1.4891  0.6364
   17SAPC   C13 2133   3.831   2.691  10.362  0.8378  0.6130 -0.2717
   17SAPC  H13A 2134   3.846   2.593  10.321  1.3211  0.8816 -0.7549
   17SAPC  H13B 2135   3.727   2.720  10.361 -0.0223 -2.1371  0.3582
   17SAPC  H13C 2136   3.892   2.760  10.305  0.3719  1.9414  0.7757
   17SAPC   C14 2137   3.794   2.593  10.577 -0.2963 -0.3135 -0.1766
   17SAPC  H14A 2138   3.689   2.619  10.572  0.1282  1.9956  1.3184
   17SAPC  H14B 2139   3.801   2.492  10.540  0.9338 -0.9276  1.6090
   17SAPC  H14C 2140   3.812   2.588  10.683 -3.4680  1.1531  0.5699
   17SAPC   C15 2141   3.883   2.827  10.560 -0.0147  0.2855 -0.4917
   17SAPC  H15A 2142   3.947   2.891  10.501 -0.0183  0.4232 -0.3462
   17SAPC  H15B 2143   3.788   2.876  10.571  0.0299  0.0272  1.3781
   17SAPC  H15C 2144   3.924   2.817  10.660 -2.7743  0.0968  0.6973
   17SAPC   C11 2145   4.048   2.495  10.458 -0.1627  0.7043 -0.1927
   17SAPC  H11A 2146   3.994   2.479  10.362 -2.3043  1.4453  0.8219
   17SAPC  H11B 2147   4.009   2.419  10.530  0.9281  1.1277  0.8614
   17SAPC     P 2148   4.275   2.546  10.340  0.0600  0.3867  0.3780
   17SAPC   O13 2149   4.271   2.697  10.351  0.3415  0.1473  0.2023
   17SAPC   O14 2150   4.414   2.488  10.341  0.5583 -0.0464  0.3299
   17SAPC   O12 2151   4.192   2.480  10.458  0.6126 -0.0429  0.5618
   17SAPC   O11 2152   4.199   2.503  10.216 -0.3792 -0.9755  0.4859
   17SAPC    C1 2153   4.173   2.361  10.188 -0.5077  0.6976 -0.6409
   17SAPC    HA 2154   4.264   2.302  10.214 -0.8339  0.6881  0.5315
   17SAPC    HB 2155   4.089   2.318  10.246 -2.1719  0.6156 -2.9817
   17SAPC    C2 2156   4.139   2.329  10.041 -0.0305  0.0921 -0.0053
   17SAPC    HS 2157   4.117   2.221  10.027  1.1475 -0.3115  1.0931
   17SAPC   O21 2158   4.252   2.375   9.962 -0.0220 -0.2480  0.5167
   17SAPC   C21 2159   4.355   2.297   9.973 -0.4295  0.1745  1.3855
   17SAPC   O22 2160   4.358   2.186  10.025  0.4076  0.4622 -0.1699
   17SAPC   C22 2161   4.481   2.361   9.905 -0.1588 -0.0143 -0.4018
   17SAPC   H2R 2162   4.461   2.373   9.797 -0.8885 -2.8710 -0.6777
   17SAPC   H2S 2163   4.488   2.461   9.953  3.8416 -0.4876  0.3815
   17SAPC    C3 2164   4.026   2.415   9.986  0.0201 -0.3305  0.0324
   17SAPC    HX 2165   4.041   2.517  10.026 -3.0625 -0.5330  2.0807
   17SAPC    HY 2166   3.931   2.374  10.029 -0.2548  1.6791  1.4824
   17SAPC   O31 2167   4.023   2.412   9.842  0.4736 -0.2633 -0.5841
   17SAPC   C31 2168   3.986   2.293   9.783  0.1405  0.5104 -0.6085
   17SAPC   O32 2169   3.937   2.198   9.844  0.3852  0.2303 -0.0988
   17SAPC   C32 2170   4.011   2.296   9.640 -0.4637 -0.8030 -0.0685
   17SAPC   H2X 2171   3.976   2.197   9.605  0.7049 -1.0677 -0.5343
   17SAPC   H2Y 2172   4.120   2.304   9.620 -0.2670  1.7430  1.5003
   17SAPC   C23 2173   4.616   2.289   9.918  0.7777  0.2271 -0.4888
   17SAPC   H3R 2174   4.637   2.269  10.025  0.3232 -1.1243 -0.6328
   17SAPC   H3S 2175   4.698   2.360   9.892  1.6893 -0.2707  0.8957
   17SAPC   C24 2176   4.598   2.169   9.827 -0.0192 -0.1729  0.4927
   17SAPC   H4R 2177   4.503   2.112   9.842  0.6719 -1.4415  0.2045
   17SAPC   H4S 2178   4.670   2.092   9.862  0.1266 -0.0253  0.5168
   17SAPC   C25 2179   4.621   2.196   9.684  0.5019 -0.5206 -0.2944
   17SAPC   H5R 2180   4.719   2.237   9.655 -0.1074  0.0732 -1.6243
   17SAPC   C26 2181   4.530   2.185   9.587  0.7849  0.0869  0.6477
   17SAPC   H6R 2182   4.566   2.201   9.484 -1.2114  0.5124 -0.0365
   17SAPC   C27 2183   4.380   2.148   9.586 -0.4070 -0.8224  0.6786
   17SAPC   H7R 2184   4.324   2.234   9.543 -0.0953 -0.5723  0.7709
   17SAPC   H7S 2185   4.349   2.133   9.691 -1.1599  1.0612  0.7716
   17SAPC   C28 2186   4.341   2.016   9.518 -0.3455 -0.2463  0.2732
   17SAPC   H8R 2187   4.320   1.931   9.585  1.1931 -0.2033  0.8603
   17SAPC   C29 2188   4.325   1.995   9.383  0.3130 -0.2868 -0.1510
   17SAPC   H9R 2189   4.288   1.896   9.350  1.0586 -0.4610 -0.4953
   17SAPC  C210 2190   4.341   2.103   9.276 -0.1196  0.3021 -0.8446
   17SAPC  H10R 2191   4.352   2.203   9.324  1.5828  0.2576 -1.0809
   17SAPC  H10S 2192   4.249   2.103   9.214 -0.4242 -2.4005 -0.5157
   17SAPC  C211 2193   4.456   2.082   9.178 -0.3162 -0.1730  0.2669
   17SAPC  H11R 2194   4.559   2.079   9.216 -0.4228 -2.0166  0.4826
   17SAPC  C212 2195   4.441   2.067   9.048 -0.7620 -0.0327  0.7325
   17SAPC  H12R 2196   4.534   2.063   8.989  1.1680  3.5893  3.1688
   17SAPC  C213 2197   4.317   2.075   8.952 -0.1920 -0.6229 -0.1054
   17SAPC  H13R 2198   4.353   2.131   8.863  0.0653  0.4774  0.6724
   17SAPC  H13S 2199   4.248   2.143   9.007  0.2083  1.4035 -1.9541
   17SAPC  C214 2200   4.257   1.945   8.908  0.1928 -0.0745 -0.4263
   17SAPC  H14R 2201   4.160   1.927   8.956  1.3860  0.6082  2.5114
   17SAPC  C215 2202   4.310   1.864   8.815 -0.3617  0.2402  0.0212
   17SAPC  H15R 2203   4.253   1.771   8.796  0.3568 -0.2458  0.1908
   17SAPC  C216 2204   4.434   1.879   8.740 -0.2505  0.3059 -0.1342
   17SAPC  H16R 2205   4.526   1.835   8.784  0.3462 -0.2060 -1.7850
   17SAPC  H16S 2206   4.465   1.983   8.715 -2.3185  0.4134 -2.7310
   17SAPC  C217 2207   4.435   1.817   8.594 -0.8142 -0.6317 -0.6043
   17SAPC  H17R 2208   4.421   1.710   8.616 -0.6122 -0.5529 -0.0768
   17SAPC  H17S 2209   4.535   1.830   8.546  0.1761 -0.7772  1.3276
   17SAPC  C218 2210   4.323   1.866   8.491 -1.0082  0.3051 -0.3312
   17SAPC  H18R 2211   4.324   1.977   8.488 -0.7272  0.2980 -2.1503
   17SAPC  H18S 2212   4.227   1.839   8.540  0.1734 -4.3772 -0.1189
   17SAPC  C219 2213   4.348   1.817   8.346  0.6320  0.0137 -0.1143
   17SAPC  H19R 2214   4.357   1.707   8.360 -1.8446 -0.7739 -3.4648
   17SAPC  H19S 2215   4.437   1.868   8.304 -0.3461  0.9990 -1.0329
   17SAPC  C220 2216   4.235   1.852   8.249 -0.4605 -0.3386  0.2461
   17SAPC  H20R 2217   4.250   1.803   8.150  0.8914  0.5492 -0.0129
   17SAPC  H20S 2218   4.234   1.960   8.227 -0.0616 -0.3380  0.2204
   17SAPC  H20T 2219   4.141   1.818   8.298 -0.3711 -2.2165 -0.7647
   17SAPC   C33 2220   3.941   2.420   9.570  0.6056 -0.4251  0.1678
   17SAPC   H3X 2221   3.989   2.517   9.596  0.5957 -0.1540 -0.7611
   17SAPC   H3Y 2222   3.835   2.423   9.604  0.4916  1.7320 -0.2274
   17SAPC   C34 2223   3.951   2.411   9.412 -0.6312  0.0887 -0.2855
   17SAPC   H4X 2224   4.057   2.400   9.380 -0.4174 -1.8828  0.9385
   17SAPC   H4Y 2225   3.913   2.508   9.373 -0.5366 -0.2433 -1.2210
   17SAPC   C35 2226   3.877   2.295   9.344  0.0892  0.4458  0.0862
   17SAPC   H5X 2227   3.771   2.327   9.337  0.2468  0.6730 -2.6420
   17SAPC   H5Y 2228   3.892   2.200   9.398 -1.7465 -1.2972 -2.2500
   17SAPC   C36 2229   3.938   2.269   9.206  0.2399 -0.1847  0.2131
   17SAPC   H6X 2230   4.040   2.230   9.224  0.6202 -0.4638 -2.1379
   17SAPC   H6Y 2231   3.943   2.368   9.155  1.1323  0.3159  1.2469
   17SAPC   C37 2232   3.861   2.170   9.120  0.0110 -0.4042 -0.0242
   17SAPC   H7X 2233   3.762   2.213   9.095 -1.6417 -2.6337  2.1531
   17SAPC   H7Y 2234   3.832   2.086   9.187 -2.1805  0.8516  0.6778
   17SAPC   C38 2235   3.931   2.131   8.996  0.0773 -0.1380  0.1209
   17SAPC   H8X 2236   3.866   2.056   8.945 -1.4531 -0.5601  2.5052
   17SAPC   H8Y 2237   4.030   2.086   9.017  0.9620  1.6998  0.1604
   17SAPC   C39 2238   3.961   2.247   8.903 -0.2498 -0.5331  0.3207
   17SAPC   H9X 2239   4.024   2.322   8.955  3.5490 -1.9348 -1.8216
   17SAPC   H9Y 2240   3.864   2.291   8.871 -0.6160 -1.0773  0.6737
   17SAPC  C310 2241   4.028   2.209   8.769  0.4624  0.2555  0.0464
   17SAPC  H10X 2242   4.128   2.170   8.796 -0.1628 -1.2502  0.2889
   17SAPC  H10Y 2243   4.039   2.307   8.717  0.1947  0.8930  1.1521
   17SAPC  C311 2244   3.929   2.131   8.681 -0.0700  1.0186 -0.3891
   17SAPC  H11X 2245   3.826   2.160   8.710 -0.3391  1.2076 -1.4761
   17SAPC  H11Y 2246   3.934   2.020   8.692  0.6413  1.0575 -0.2881
   17SAPC  C312 2247   3.941   2.170   8.533 -0.5930 -0.1368 -0.3214
   17SAPC  H12X 2248   3.939   2.281   8.521 -1.3937  0.0232  1.0728
   17SAPC  H12Y 2249   3.860   2.125   8.472  0.1267 -0.7216 -0.8575
   17SAPC  C313 2250   4.077   2.125   8.469  0.5910  0.2366  0.6599
   17SAPC  H13X 2251   4.077   2.015   8.451  0.8053  0.5851 -1.7218
   17SAPC  H13Y 2252   4.150   2.165   8.543 -1.1894  0.1118  2.6016
   17SAPC  C314 2253   4.110   2.188   8.332  0.1732  0.1365 -0.2317
   17SAPC  H14X 2254   4.058   2.149   8.242  1.4155  1.1558 -1.4301
   17SAPC  H14Y 2255   4.215   2.157   8.316  0.5554  1.0867  0.3463
   17SAPC  C315 2256   4.114   2.343   8.317 -0.5204  1.1508  0.5839
   17SAPC  H15X 2257   4.161   2.400   8.400 -1.2889  1.2325  0.9705
   17SAPC  H15Y 2258   4.009   2.379   8.307 -1.0735 -0.3669  0.6687
   17SAPC  C316 2259   4.181   2.384   8.179  0.4020 -0.2556 -0.0808
   17SAPC  H16X 2260   4.257   2.309   8.149  0.1205 -0.2457 -0.8342
   17SAPC  H16Y 2261   4.228   2.484   8.197  0.9882 -1.0213  3.4742
   17SAPC  C317 2262   4.077   2.400   8.070 -0.2241 -1.1864  0.3273
   17SAPC  H17X 2263   3.992   2.468   8.090 -1.1462 -2.3738  0.6068
   17SAPC  H17Y 2264   4.039   2.295   8.066 -2.5279 -0.3766 -1.1784
   17SAPC  C318 2265   4.129   2.423   7.926 -0.1769 -0.6110  0.0126
   17SAPC  H18X 2266   4.192   2.344   7.882  0.8068  0.0587  0.1930
   17SAPC  H18Y 2267   4.041   2.422   7.857 -0.4016 -2.9783  0.2539
   17SAPC  H18Z 2268   4.197   2.511   7.921  0.2820 -0.9330  0.4819
   18SAPC     N 2269   6.132   1.829  10.750 -0.0631  0.3009  0.4938
   18SAPC   C12 2270   6.147   1.826  10.605  0.1606 -0.8385 -0.6479
   18SAPC  H12A 2271   6.250   1.858  10.593 -0.8531  4.8797  2.2733
   18SAPC  H12B 2272   6.081   1.899  10.561  1.1737 -1.7252 -3.8457
   18SAPC   C13 2273   6.090   1.966  10.797 -0.3800 -0.1506 -0.2331
   18SAPC  H13A 2274   5.991   1.979  10.758  0.1083  1.7650 -0.9666
   18SAPC  H13B 2275   6.088   1.973  10.905  0.0953 -0.5880 -0.1890
   18SAPC  H13C 2276   6.157   2.041  10.757  0.0043 -0.9064 -1.0556
   18SAPC   C14 2277   6.016   1.748  10.792  0.0889 -0.1994 -0.0824
   18SAPC  H14A 2278   6.029   1.650  10.747 -0.0403 -0.6589  0.8556
   18SAPC  H14B 2279   6.033   1.735  10.898  1.1951 -0.4665 -0.2793
   18SAPC  H14C 2280   5.929   1.799  10.752  0.4085  0.1122 -0.3827
   18SAPC   C15 2281   6.246   1.783  10.829  0.4522 -0.5871  0.2932
   18SAPC  H15A 2282   6.347   1.810  10.803  1.1080 -1.6538  1.5657
   18SAPC  H15B 2283   6.242   1.822  10.930 -1.7511 -0.5663  0.2464
   18SAPC  H15C 2284   6.258   1.676  10.838 -0.5299 -0.9940 -2.3820
   18SAPC   C11 2285   6.127   1.693  10.518 -0.6649 -0.4151 -0.6617
   18SAPC  H11A 2286   6.145   1.716  10.411  0.5303 -1.2240 -0.6487
   18SAPC  H11B 2287   6.023   1.655  10.531 -0.3212 -1.3035 -0.4884
   18SAPC     P 2288   6.360   1.581  10.514 -0.0176 -0.1893 -0.0796
   18SAPC   O13 2289   6.408   1.718  10.516 -0.5639  0.4869  0.2357
   18SAPC   O14 2290   6.433   1.489  10.605 -0.4178  0.2307  0.2481
   18SAPC   O12 2291   6.208   1.587  10.556  0.0634 -0.0891 -0.1750
   18SAPC   O11 2292   6.352   1.534  10.365  0.2312  0.1461 -0.0775
   18SAPC    C1 2293   6.266   1.418  10.335 -0.0482  0.5136  0.4248
   18SAPC    HA 2294   6.317   1.339  10.276  0.7798  0.9675  0.5242
   18SAPC    HB 2295   6.231   1.359  10.422  1.0790  2.3042  2.1815
   18SAPC    C2 2296   6.142   1.459  10.252  0.1226 -0.0197  0.8933
   18SAPC    HS 2297   6.067   1.510  10.315 -0.0890  0.6479  0.1111
   18SAPC   O21 2298   6.092   1.348  10.183 -0.5272  0.0211 -0.1568
   18SAPC   C21 2299   5.999   1.284  10.256 -0.5244 -0.5899 -0.4555
   18SAPC   O22 2300   5.979   1.303  10.375  0.0779  0.0072 -0.5320
   18SAPC   C22 2301   5.930   1.187  10.167  1.0040  0.1189 -0.1155
   18SAPC   H2R 2302   6.018   1.131  10.130  2.7056  0.9526  2.3689
   18SAPC   H2S 2303   5.865   1.119  10.226  1.2767  0.8601  1.0740
   18SAPC    C3 2304   6.191   1.553  10.142  0.0245  0.1591  0.0858
   18SAPC    HX 2305   6.280   1.527  10.080  0.4978 -0.2183  0.9125
   18SAPC    HY 2306   6.205   1.650  10.195 -0.4966  1.1430 -1.4812
   18SAPC   O31 2307   6.083   1.576  10.058  0.4870  0.2362  0.5411
   18SAPC   C31 2308   6.075   1.698  10.003 -0.1937 -0.4284  0.0537
   18SAPC   O32 2309   6.160   1.786  10.020  0.6876 -0.3777  0.5473
   18SAPC   C32 2310   5.955   1.703   9.919  0.2409 -0.3500 -0.1433
   18SAPC   H2X 2311   5.859   1.720   9.972 -0.1365 -0.7086 -0.7017
   18SAPC   H2Y 2312   5.954   1.604   9.869  1.4937 -1.3175  1.6576
   18SAPC   C23 2313   5.834   1.246  10.057 -0.0763  0.5728 -0.0610
   18SAPC   H3R 2314   5.890   1.321   9.997 -1.7228  2.3481  0.5568
   18SAPC   H3S 2315   5.747   1.282  10.115 -1.9758 -1.3034 -1.5838
   18SAPC   C24 2316   5.783   1.129   9.967 -0.8471  0.2334  0.4817
   18SAPC   H4R 2317   5.731   1.186   9.887  0.4893  0.9354  0.0700
   18SAPC   H4S 2318   5.704   1.074  10.021 -0.2578  0.9461  2.1461
   18SAPC   C25 2319   5.885   1.030   9.915 -0.4446  0.3747  0.3281
   18SAPC   H5R 2320   5.933   0.970   9.994 -0.7927 -1.1018 -0.5394
   18SAPC   C26 2321   5.923   1.019   9.788  0.3573  0.8428  0.7233
   18SAPC   H6R 2322   5.993   0.937   9.766  0.7411  1.5181 -0.6177
   18SAPC   C27 2323   5.877   1.102   9.667 -0.8103  0.0589  0.6010
   18SAPC   H7R 2324   5.928   1.200   9.679 -1.5957  0.3529  1.7278
   18SAPC   H7S 2325   5.771   1.137   9.664 -0.7357  0.4153  1.5849
   18SAPC   C28 2326   5.927   1.038   9.541  0.7572  0.0015 -0.1366
   18SAPC   H8R 2327   6.027   0.993   9.543  0.4101 -0.8207 -0.4966
   18SAPC   C29 2328   5.850   1.025   9.419 -0.3518  0.2772 -0.2817
   18SAPC   H9R 2329   5.900   0.979   9.334 -1.8567 -1.1419 -0.4513
   18SAPC  C210 2330   5.720   1.102   9.378 -0.5309  0.1343  0.1734
   18SAPC  H10R 2331   5.686   1.183   9.446 -0.3532  0.0298  0.3884
   18SAPC  H10S 2332   5.633   1.033   9.380 -1.5039  1.3047 -0.6542
   18SAPC  C211 2333   5.738   1.171   9.247  0.3681 -0.2579  0.1861
   18SAPC  H11R 2334   5.828   1.233   9.235  0.5322 -0.9129 -2.5066
   18SAPC  C212 2335   5.661   1.149   9.140 -0.4218  0.1990 -0.4861
   18SAPC  H12R 2336   5.686   1.207   9.050  0.0506  2.9029  1.2663
   18SAPC  C213 2337   5.546   1.050   9.132 -0.4546 -0.4821  0.2452
   18SAPC  H13R 2338   5.495   1.039   9.230 -1.4291 -0.6636 -0.2670
   18SAPC  H13S 2339   5.589   0.951   9.109 -1.0072 -0.7335  0.2768
   18SAPC  C214 2340   5.449   1.089   9.027 -0.4893  0.3556  1.0102
   18SAPC  H14R 2341   5.356   1.136   9.062 -1.7734 -0.7630 -0.7302
   18SAPC  C215 2342   5.471   1.083   8.893 -0.2182 -0.0672 -0.3228
   18SAPC  H15R 2343   5.385   1.107   8.828 -2.2928 -1.7411  1.6070
   18SAPC  C216 2344   5.594   1.052   8.813  0.1900  0.0589 -0.1798
   18SAPC  H16R 2345   5.683   1.045   8.880 -0.9020 -1.4019  1.1697
   18SAPC  H16S 2346   5.614   1.147   8.759 -0.9365  1.4346  1.7056
   18SAPC  C217 2347   5.602   0.939   8.710  0.6877  0.5225  0.0101
   18SAPC  H17R 2348   5.625   0.842   8.758  0.3778  1.3782  1.9732
   18SAPC  H17S 2349   5.690   0.948   8.643 -0.4333  0.0664 -1.5889
   18SAPC  C218 2350   5.489   0.930   8.612 -0.4703 -0.2154 -0.5059
   18SAPC  H18R 2351   5.455   1.030   8.577  1.3595  0.0736 -1.5762
   18SAPC  H18S 2352   5.402   0.880   8.659  1.0508 -1.1446  1.5175
   18SAPC  C219 2353   5.518   0.850   8.484  0.3093  0.6019  0.3807
   18SAPC  H19R 2354   5.565   0.755   8.518 -1.8475 -0.4991  0.5034
   18SAPC  H19S 2355   5.596   0.905   8.429  0.0111  2.2716  1.5656
   18SAPC  C220 2356   5.407   0.830   8.386  0.4423  0.3716  0.5890
   18SAPC  H20R 2357   5.440   0.769   8.299 -0.0113 -1.5443  1.6839
   18SAPC  H20S 2358   5.360   0.920   8.342  1.5965  0.5146 -0.4060
   18SAPC  H20T 2359   5.331   0.768   8.440 -0.4274  1.5411  0.7539
   18SAPC   C33 2360   5.960   1.819   9.814 -0.5380  0.1238 -0.0193
   18SAPC   H3X 2361   5.985   1.916   9.862 -1.2238 -0.7682  2.2528
   18SAPC   H3Y 2362   5.868   1.827   9.751 -1.0097 -0.9636  0.5161
   18SAPC   C34 2363   6.067   1.796   9.707 -0.5433  0.3587 -0.1682
   18SAPC   H4X 2364   6.060   1.693   9.665 -0.9768  0.1692  0.3510
   18SAPC   H4Y 2365   6.163   1.814   9.760 -1.3583  1.8820  0.8708
   18SAPC   C35 2366   6.060   1.895   9.594 -0.3366 -0.3599  1.0428
   18SAPC   H5X 2367   6.162   1.916   9.555 -0.5426  1.2200  1.2526
   18SAPC   H5Y 2368   6.019   1.991   9.634  0.0469 -0.0465  0.7022
   18SAPC   C36 2369   5.978   1.846   9.466 -0.4132  0.3421 -0.1211
   18SAPC   H6X 2370   5.869   1.836   9.487 -0.2089  2.0060  2.0638
   18SAPC   H6Y 2371   6.017   1.744   9.446  0.5738 -0.4898  4.7113
   18SAPC   C37 2372   5.996   1.932   9.340 -0.6152 -0.4696 -0.2600
   18SAPC   H7X 2373   6.106   1.947   9.332 -0.2673 -2.1841  0.8284
   18SAPC   H7Y 2374   5.953   2.032   9.359  2.6654  1.0798 -0.3373
   18SAPC   C38 2375   5.951   1.863   9.200  0.6076  0.0960  0.0085
   18SAPC   H8X 2376   5.841   1.869   9.188  0.8075  0.0993 -2.5301
   18SAPC   H8Y 2377   5.987   1.757   9.203 -1.2419 -0.5459  1.0713
   18SAPC   C39 2378   5.992   1.940   9.077 -0.1829 -0.2337  0.0020
   18SAPC   H9X 2379   6.095   1.917   9.040  0.3382  0.5805  0.9001
   18SAPC   H9Y 2380   5.990   2.047   9.107  0.4823 -1.1168  3.6116
   18SAPC  C310 2381   5.904   1.913   8.953  0.2423 -0.2788  0.8449
   18SAPC  H10X 2382   5.818   1.984   8.944  0.4432 -0.2397 -1.1715
   18SAPC  H10Y 2383   5.873   1.807   8.941  0.4843 -0.2618  0.0252
   18SAPC  C311 2384   5.988   1.949   8.833  0.3008 -0.2390 -0.8324
   18SAPC  H11X 2385   6.076   1.880   8.826 -0.1330 -0.9379  0.2660
   18SAPC  H11Y 2386   6.027   2.051   8.849 -0.2287 -0.1685  0.0685
   18SAPC  C312 2387   5.918   1.933   8.696 -0.3566  0.0478 -0.6626
   18SAPC  H12X 2388   5.831   2.001   8.680  0.7619  0.8286 -4.2664
   18SAPC  H12Y 2389   5.870   1.833   8.698 -0.3843  0.0648 -0.2960
   18SAPC  C313 2390   6.003   1.958   8.573  0.0023 -0.1262 -1.0234
   18SAPC  H13X 2391   5.941   1.931   8.485  1.1810 -1.0881 -1.5970
   18SAPC  H13Y 2392   6.094   1.893   8.576  1.5954  1.8783 -2.6315
   18SAPC  C314 2393   6.053   2.099   8.542  0.2313 -0.2711 -0.1214
   18SAPC  H14X 2394   6.145   2.088   8.481 -0.0768 -0.6462 -0.5329
   18SAPC  H14Y 2395   6.075   2.154   8.635  0.1151 -0.1307 -0.1772
   18SAPC  C315 2396   5.963   2.191   8.467 -0.3055  0.2603  0.6593
   18SAPC  H15X 2397   5.864   2.204   8.516 -0.4374  3.8043 -0.2446
   18SAPC  H15Y 2398   5.930   2.142   8.373 -1.9835 -2.8961  2.7071
   18SAPC  C316 2399   6.019   2.332   8.432  0.1496 -0.2757  0.3832
   18SAPC  H16X 2400   6.129   2.326   8.417  0.8039  1.0035  3.7143
   18SAPC  H16Y 2401   6.002   2.405   8.514  2.9569  0.2426  0.6090
   18SAPC  C317 2402   5.947   2.382   8.306 -0.3164 -0.6016  0.4612
   18SAPC  H17X 2403   5.838   2.378   8.326 -0.3388 -1.8680  0.1395
   18SAPC  H17Y 2404   5.954   2.302   8.229 -0.8781 -2.4317  2.2340
   18SAPC  C318 2405   6.000   2.516   8.260  0.3879 -0.4464  0.5066
   18SAPC  H18X 2406   5.948   2.593   8.321 -0.0582 -1.5181  1.5217
   18SAPC  H18Y 2407   5.986   2.537   8.152  1.5055 -1.1342  0.2124
   18SAPC  H18Z 2408   6.110   2.515   8.274  0.5050 -2.1923 -0.2647
   19SAPC     N 2409   2.964   3.781  10.423 -0.2549 -0.0487  0.2394
   19SAPC   C12 2410   3.079   3.702  10.482 -0.1423  0.4438 -0.3751
   19SAPC  H12A 2411   3.141   3.661  10.404  0.9235 -1.8490  1.5817
   19SAPC  H12B 2412   3.036   3.613  10.524  1.4625  1.5166  4.0948
   19SAPC   C13 2413   2.898   3.698  10.323  0.0089  0.0778 -0.1450
   19SAPC  H13A 2414   2.862   3.608  10.370 -1.9714  0.8104 -0.1881
   19SAPC  H13B 2415   2.812   3.748  10.281 -0.4674  0.5847  1.3631
   19SAPC  H13C 2416   2.977   3.668  10.257  0.0602 -2.4096  0.9447
   19SAPC   C14 2417   2.863   3.814  10.521  0.5046 -0.2984  0.3480
   19SAPC  H14A 2418   2.827   3.730  10.578  1.3967 -0.0965  1.2419
   19SAPC  H14B 2419   2.904   3.886  10.590  3.0422  0.0518 -1.3790
   19SAPC  H14C 2420   2.774   3.855  10.475 -1.0705 -0.7521  2.8171
   19SAPC   C15 2421   3.028   3.904  10.362 -0.5043 -0.3551  0.6064
   19SAPC  H15A 2422   3.127   3.871  10.333 -0.6722 -0.5148  0.2105
   19SAPC  H15B 2423   2.977   3.945  10.277 -0.1253 -1.9829 -0.4485
   19SAPC  H15C 2424   3.045   3.981  10.436  0.0655  1.3708 -1.2334
   19SAPC   C11 2425   3.159   3.770  10.592 -0.5201 -0.1908  0.1593
   19SAPC  H11A 2426   3.229   3.698  10.640  2.1010  0.9588 -1.6795
   19SAPC  H11B 2427   3.085   3.809  10.665  0.4777 -0.5965  1.4294
   19SAPC     P 2428   3.393   3.863  10.522  0.4168 -0.3129  0.2920
   19SAPC   O13 2429   3.455   3.884  10.657 -0.7476  0.4259  0.0975
   19SAPC   O14 2430   3.423   3.736  10.445  0.5795 -0.1058 -0.1668
   19SAPC   O12 2431   3.235   3.880  10.545  0.0281 -0.1299  0.1074
   19SAPC   O11 2432   3.438   3.980  10.420  0.1303  0.3708  0.7132
   19SAPC    C1 2433   3.341   4.081  10.383 -0.5753  0.5545  0.4387
   19SAPC    HA 2434   3.239   4.042  10.364 -0.1065 -0.9199  0.8149
   19SAPC    HB 2435   3.328   4.154  10.466 -1.6542 -0.2838  1.0341
   19SAPC    C2 2436   3.386   4.155  10.252  0.5319 -0.2757  0.2219
   19SAPC    HS 2437   3.322   4.242  10.227  0.8034 -0.6622 -1.9975
   19SAPC   O21 2438   3.393   4.062  10.145 -0.4918  0.5758  0.7081
   19SAPC   C21 2439   3.273   4.044  10.094  0.1487 -0.1154 -0.1079
   19SAPC   O22 2440   3.166   4.087  10.134 -0.5079 -0.2561 -0.3245
   19SAPC   C22 2441   3.276   3.957   9.967 -0.1827 -0.3501 -0.3509
   19SAPC   H2R 2442   3.381   3.941   9.936 -0.7897  1.4288 -3.8144
   19SAPC   H2S 2443   3.222   3.863   9.994  1.6700 -1.1498  0.7177
   19SAPC    C3 2444   3.519   4.214  10.283 -0.0913 -0.2028 -0.3603
   19SAPC    HX 2445   3.587   4.129  10.307 -0.9972 -1.2978 -1.5611
   19SAPC    HY 2446   3.510   4.274  10.376 -0.2237  1.6120 -1.5045
   19SAPC   O31 2447   3.558   4.299  10.171  0.3763 -0.2590 -0.3449
   19SAPC   C31 2448   3.663   4.269  10.093 -0.2482  0.9304 -0.2990
   19SAPC   O32 2449   3.734   4.173  10.114  0.0632  0.2938  0.3562
   19SAPC   C32 2450   3.667   4.373   9.985 -0.5935  0.6749  1.1102
   19SAPC   H2X 2451   3.713   4.462  10.033  2.2292 -0.7576  1.2930
   19SAPC   H2Y 2452   3.560   4.397   9.965 -0.9949  1.3616  3.7540
   19SAPC   C23 2453   3.213   4.035   9.851 -0.2527  0.0272  1.1423
   19SAPC   H3R 2454   3.130   4.099   9.887  0.4580  0.6426  1.7422
   19SAPC   H3S 2455   3.166   3.965   9.779  1.4675 -0.5433  0.5068
   19SAPC   C24 2456   3.324   4.113   9.770 -0.7568  0.0917  0.6092
   19SAPC   H4R 2457   3.425   4.068   9.763 -0.1861  1.1482  1.8004
   19SAPC   H4S 2458   3.344   4.198   9.838  0.1815 -0.4482  1.0172
   19SAPC   C25 2459   3.253   4.139   9.642  0.1311  0.4604 -0.5040
   19SAPC   H5R 2460   3.188   4.227   9.642 -0.4574  0.0310 -0.3087
   19SAPC   C26 2461   3.259   4.059   9.533 -0.8070  0.0086 -0.5089
   19SAPC   H6R 2462   3.211   4.097   9.442  0.6909 -1.8887 -2.1881
   19SAPC   C27 2463   3.342   3.934   9.511  0.5373  1.0238 -0.3130
   19SAPC   H7R 2464   3.267   3.851   9.517  0.3082  1.0828 -1.9628
   19SAPC   H7S 2465   3.417   3.913   9.590  1.6041  2.0847 -1.0067
   19SAPC   C28 2466   3.411   3.933   9.374 -1.1271  0.1708  0.4240
   19SAPC   H8R 2467   3.493   4.003   9.357 -2.5016  1.7545 -0.0157
   19SAPC   C29 2468   3.379   3.850   9.270 -0.8493 -0.3513 -0.5101
   19SAPC   H9R 2469   3.440   3.850   9.179  0.0419 -0.1948  0.0701
   19SAPC  C210 2470   3.274   3.737   9.269 -0.1026  0.5946  0.0758
   19SAPC  H10R 2471   3.222   3.728   9.172 -1.4150 -0.6514  0.8507
   19SAPC  H10S 2472   3.191   3.763   9.339  0.8849  2.0463  0.7711
   19SAPC  C211 2473   3.339   3.607   9.292  0.6922 -0.4512 -0.4519
   19SAPC  H11R 2474   3.385   3.598   9.391 -1.8919 -2.2051  0.6899
   19SAPC  C212 2475   3.379   3.512   9.207  0.0405  0.1232  0.0068
   19SAPC  H12R 2476   3.441   3.430   9.247 -0.8983 -0.8353 -0.4487
   19SAPC  C213 2477   3.349   3.515   9.059 -0.6623 -0.0741 -0.0927
   19SAPC  H13R 2478   3.433   3.470   9.002 -0.8462  0.5930 -0.9211
   19SAPC  H13S 2479   3.338   3.620   9.024  1.9946  0.5755  0.7927
   19SAPC  C214 2480   3.219   3.437   9.038 -0.5457  0.3799 -0.0660
   19SAPC  H14R 2481   3.170   3.401   9.130  1.1254 -0.4437  0.5395
   19SAPC  C215 2482   3.159   3.406   8.918 -0.6183 -0.3846 -0.2851
   19SAPC  H15R 2483   3.062   3.356   8.914 -0.9512  0.2728 -0.5540
   19SAPC  C216 2484   3.214   3.458   8.790 -0.1214  0.2170  0.0987
   19SAPC  H16R 2485   3.316   3.419   8.774 -0.0648  0.0630  0.8172
   19SAPC  H16S 2486   3.228   3.568   8.796 -1.4860  0.3282  1.9019
   19SAPC  C217 2487   3.124   3.413   8.672  0.8411 -0.0691  0.0063
   19SAPC  H17R 2488   3.103   3.304   8.680  0.9083 -0.0003  1.2890
   19SAPC  H17S 2489   3.180   3.426   8.577  0.5822 -0.7125 -0.2384
   19SAPC  C218 2490   2.987   3.491   8.669  0.5044 -0.5735  0.0709
   19SAPC  H18R 2491   3.011   3.586   8.721  0.4427 -1.5504  1.9787
   19SAPC  H18S 2492   2.905   3.434   8.717  1.1700 -1.1597  0.5344
   19SAPC  C219 2493   2.935   3.534   8.530 -0.0389  0.4358  0.7629
   19SAPC  H19R 2494   2.916   3.451   8.458 -0.8628  1.7783 -0.6357
   19SAPC  H19S 2495   3.035   3.570   8.497 -0.3119  1.6372  1.2085
   19SAPC  C220 2496   2.817   3.631   8.519 -0.4120  0.1254  0.1826
   19SAPC  H20R 2497   2.797   3.667   8.416  0.3205  2.2484  0.7297
   19SAPC  H20S 2498   2.853   3.727   8.563 -0.0767 -0.1855  0.6006
   19SAPC  H20T 2499   2.725   3.603   8.575 -0.0745  0.4594  0.9199
   19SAPC   C33 2500   3.757   4.353   9.859 -0.7710 -0.1061  0.4092
   19SAPC   H3X 2501   3.863   4.344   9.890 -0.5730  0.1312 -0.1742
   19SAPC   H3Y 2502   3.749   4.448   9.802  2.3740  0.1987  0.2825
   19SAPC   C34 2503   3.708   4.237   9.781 -0.4668  0.3526  0.0878
   19SAPC   H4X 2504   3.603   4.263   9.754 -0.1428  2.0725  0.3796
   19SAPC   H4Y 2505   3.709   4.150   9.851 -0.5347 -0.5715 -1.0239
   19SAPC   C35 2506   3.786   4.210   9.653 -0.6637 -0.3931  1.1094
   19SAPC   H5X 2507   3.897   4.208   9.664 -0.3805  0.8114 -0.9148
   19SAPC   H5Y 2508   3.765   4.302   9.594 -0.5368 -0.1114  1.5015
   19SAPC   C36 2509   3.742   4.085   9.577 -0.5911 -0.0791 -0.1184
   19SAPC   H6X 2510   3.633   4.097   9.562 -0.3586  3.3388  0.1908
   19SAPC   H6Y 2511   3.768   4.008   9.653 -2.0167  1.9157  2.5410
   19SAPC   C37 2512   3.824   4.056   9.441 -0.1804  0.0418  0.0564
   19SAPC   H7X 2513   3.767   3.971   9.397 -2.5566  1.1804  0.7334
   19SAPC   H7Y 2514   3.928   4.027   9.465  0.3190  0.7760 -1.1399
   19SAPC   C38 2515   3.838   4.176   9.346  0.3816  0.1962  0.8236
   19SAPC   H8X 2516   3.877   4.269   9.393 -1.2631 -1.1459  5.3863
   19SAPC   H8Y 2517   3.732   4.195   9.317  0.8926  0.6193 -0.9027
   19SAPC   C39 2518   3.910   4.140   9.212 -0.4712  0.4982  0.1604
   19SAPC   H9X 2519   3.895   4.221   9.137 -0.6732 -0.6383 -1.0643
   19SAPC   H9Y 2520   3.855   4.058   9.162  0.5417  1.7510 -3.3257
   19SAPC  C310 2521   4.064   4.117   9.224  0.8546 -0.2942  0.2901
   19SAPC  H10X 2522   4.082   4.037   9.299 -0.8237 -0.2739  0.7659
   19SAPC  H10Y 2523   4.104   4.212   9.263 -1.5869  1.1726 -0.5353
   19SAPC  C311 2524   4.127   4.110   9.081  0.0687  0.5395  0.2036
   19SAPC  H11X 2525   4.071   4.172   9.008 -1.0040  2.3670  2.4540
   19SAPC  H11Y 2526   4.103   4.007   9.045 -0.9236  0.5989  0.6708
   19SAPC  C312 2527   4.273   4.150   9.091 -0.5614  0.5217  0.2070
   19SAPC  H12X 2528   4.314   4.074   9.162 -1.3903 -2.1950 -2.0197
   19SAPC  H12Y 2529   4.265   4.250   9.137 -1.2831  0.9685 -0.8557
   19SAPC  C313 2530   4.350   4.150   8.960 -0.1044 -0.3678  0.4287
   19SAPC  H13X 2531   4.292   4.198   8.879 -1.1941  0.5633  1.7250
   19SAPC  H13Y 2532   4.358   4.041   8.941  0.0749 -0.5158  1.3279
   19SAPC  C314 2533   4.486   4.219   8.980 -0.7008 -0.2773 -0.3706
   19SAPC  H14X 2534   4.535   4.154   9.055  1.5388 -0.5373 -1.9618
   19SAPC  H14Y 2535   4.473   4.318   9.029  0.3502 -0.4923  0.3694
   19SAPC  C315 2536   4.554   4.236   8.847 -0.0061  0.3161 -0.0146
   19SAPC  H15X 2537   4.654   4.282   8.857 -0.0881  0.6591 -0.7453
   19SAPC  H15Y 2538   4.493   4.300   8.780  0.3217 -0.0507 -0.6709
   19SAPC  C316 2539   4.583   4.098   8.781  0.3365 -0.1100 -0.2575
   19SAPC  H16X 2540   4.647   4.121   8.694  0.7173 -3.7243 -1.0782
   19SAPC  H16Y 2541   4.493   4.044   8.744 -0.0209 -2.2024  3.1664
   19SAPC  C317 2542   4.652   3.987   8.870 -0.3053  0.2513 -0.5603
   19SAPC  H17X 2543   4.595   3.975   8.964 -0.0199  1.4066 -0.2268
   19SAPC  H17Y 2544   4.746   4.024   8.916 -0.7377 -1.1063  1.5368
   19SAPC  C318 2545   4.680   3.858   8.804  0.1194 -0.0483 -0.3419
   19SAPC  H18X 2546   4.702   3.782   8.882  0.1326 -0.1064 -0.4024
   19SAPC  H18Y 2547   4.779   3.865   8.754  0.8361  0.6240  1.1158
   19SAPC  H18Z 2548   4.594   3.812   8.751 -1.7934  1.2097  1.5124
   20SAPC     N 2549   4.230   0.059  10.853 -0.0341  0.1560 -0.7608
   20SAPC   C12 2550   4.208   0.214  10.860  0.5877 -0.5128 -0.5130
   20SAPC  H12A 2551   4.304   0.262  10.857  0.4282 -0.0455  0.9761
   20SAPC  H12B 2552   4.155   0.235  10.952 -2.6162  1.6748 -2.6337
   20SAPC   C13 2553   4.101  -0.012  10.859  0.1051  1.2947 -0.5266
   20SAPC  H13A 2554   4.056   0.016  10.765  2.4109  1.2046 -1.7479
   20SAPC  H13B 2555   4.104  -0.120  10.848 -0.7135  1.2793 -0.6257
   20SAPC  H13C 2556   4.035   0.003  10.942 -0.5220 -0.4837 -0.6671
   20SAPC   C14 2557   4.300   0.028  10.735 -0.1860  0.0014  0.0457
   20SAPC  H14A 2558   4.326  -0.077  10.732  0.7245  0.0808  2.6602
   20SAPC  H14B 2559   4.242   0.054  10.647 -0.1332 -1.9424 -0.6085
   20SAPC  H14C 2560   4.397   0.075  10.724 -0.7266  1.7611  2.1429
   20SAPC   C15 2561   4.311   0.016  10.967  0.4229 -0.4951  0.3482
   20SAPC  H15A 2562   4.323  -0.091  10.956 -1.1217 -0.7087  0.6262
   20SAPC  H15B 2563   4.410   0.060  10.971  1.2495 -2.1688 -0.6406
   20SAPC  H15C 2564   4.264   0.029  11.063 -1.1107 -0.8447 -0.3213
   20SAPC   C11 2565   4.113   0.284  10.757  0.2143 -0.2629  0.1268
   20SAPC  H11A 2566   4.154   0.257  10.657 -2.0890  0.6101 -1.1375
   20SAPC  H11B 2567   4.123   0.394  10.760  0.0444 -0.2667  0.9605
   20SAPC     P 2568   3.865   0.301  10.817  0.2653  0.5824 -0.0100
   20SAPC   O13 2569   3.770   0.199  10.870 -0.4983 -0.2433  0.3379
   20SAPC   O14 2570   3.912   0.406  10.909  0.0061 -0.6497 -0.0733
   20SAPC   O12 2571   3.984   0.229  10.751  0.3882  0.0990  0.4836
   20SAPC   O11 2572   3.792   0.368  10.693  1.0992  0.2440  0.6350
   20SAPC    C1 2573   3.762   0.287  10.575 -0.2050  0.5239 -0.2391
   20SAPC    HA 2574   3.809   0.187  10.586 -0.1888  0.6408  0.8518
   20SAPC    HB 2575   3.652   0.272  10.573 -0.2160  0.0043  1.9776
   20SAPC    C2 2576   3.800   0.350  10.445  0.0560 -0.4580 -0.5317
   20SAPC    HS 2577   3.777   0.459  10.443 -1.8329 -0.7984  0.1752
   20SAPC   O21 2578   3.745   0.265  10.345 -0.3004  0.2044 -0.9922
   20SAPC   C21 2579   3.626   0.305  10.302  0.3019  1.0036  0.2761
   20SAPC   O22 2580   3.561   0.393  10.351 -0.2540 -0.2726 -0.2967
   20SAPC   C22 2581   3.577   0.206  10.200 -0.8443 -0.4726  0.3299
   20SAPC   H2R 2582   3.622   0.106  10.218  1.9254  0.5982 -0.1431
   20SAPC   H2S 2583   3.466   0.199  10.205 -0.9575  1.2194  0.9204
   20SAPC    C3 2584   3.951   0.340  10.429  0.1662  0.1902 -0.7296
   20SAPC    HX 2585   3.982   0.233  10.432  0.1852  0.2109  0.9021
   20SAPC    HY 2586   4.003   0.377  10.520 -0.3113  1.1927 -0.8550
   20SAPC   O31 2587   3.987   0.398  10.302 -0.6170 -0.1351 -0.1080
   20SAPC   C31 2588   4.110   0.399  10.281  0.5229  0.5490  0.6244
   20SAPC   O32 2589   4.205   0.366  10.355  0.5385 -0.1229 -0.0853
   20SAPC   C32 2590   4.125   0.446  10.136 -0.0081  0.4019 -0.3080
   20SAPC   H2X 2591   4.056   0.531  10.120  0.1334  0.0284 -3.5723
   20SAPC   H2Y 2592   4.117   0.363  10.063 -1.0505  2.3694 -2.5464
   20SAPC   C23 2593   3.619   0.248  10.057  0.4389  0.1883  0.0713
   20SAPC   H3R 2594   3.605   0.165   9.985 -0.2048  1.5231 -1.4323
   20SAPC   H3S 2595   3.728   0.272  10.055  0.7507 -1.1679 -0.0114
   20SAPC   C24 2596   3.551   0.375  10.011 -0.2510 -0.3549 -0.0509
   20SAPC   H4R 2597   3.571   0.454  10.086 -0.8194  0.1903 -0.4567
   20SAPC   H4S 2598   3.441   0.363  10.017 -0.4290  1.6763  2.7023
   20SAPC   C25 2599   3.606   0.422   9.878  0.2740 -0.8483 -0.3059
   20SAPC   H5R 2600   3.686   0.497   9.892 -1.7866  1.2301  1.2516
   20SAPC   C26 2601   3.575   0.382   9.752 -0.3874  0.5098 -0.3054
   20SAPC   H6R 2602   3.618   0.425   9.660 -1.0223  0.0689 -0.8267
   20SAPC   C27 2603   3.472   0.271   9.724 -0.1133 -0.7983 -0.0555
   20SAPC   H7R 2604   3.408   0.300   9.637  0.7447 -0.9422 -0.7469
   20SAPC   H7S 2605   3.400   0.272   9.808 -0.8289  1.8158 -0.6010
   20SAPC   C28 2606   3.536   0.142   9.710  0.1694  0.1954  0.2568
   20SAPC   H8R 2607   3.603   0.102   9.788 -0.3244 -0.9688  0.1090
   20SAPC   C29 2608   3.503   0.054   9.607 -0.2546 -0.5758 -0.0616
   20SAPC   H9R 2609   3.553  -0.044   9.600  0.2634 -0.4260  1.2638
   20SAPC  C210 2610   3.390   0.072   9.508 -0.6683 -0.3049  0.6886
   20SAPC  H10R 2611   3.298   0.109   9.557 -0.2112 -0.0794  1.3971
   20SAPC  H10S 2612   3.374  -0.032   9.471  2.3437 -0.8573  0.6748
   20SAPC  C211 2613   3.421   0.176   9.408 -0.6386  0.5107  0.3844
   20SAPC  H11R 2614   3.446   0.275   9.450 -0.7362 -0.1043  1.9675
   20SAPC  C212 2615   3.414   0.156   9.278  0.3004  0.7077 -0.0619
   20SAPC  H12R 2616   3.447   0.235   9.210 -2.4659  1.8269 -0.2425
   20SAPC  C213 2617   3.361   0.028   9.204  0.0148 -0.5048  0.0113
   20SAPC  H13R 2618   3.299  -0.021   9.283 -0.8631  2.1446  1.0648
   20SAPC  H13S 2619   3.444  -0.037   9.167  0.0366 -0.1625 -0.5601
   20SAPC  C214 2620   3.277   0.051   9.083  0.1076 -0.3342 -0.6252
   20SAPC  H14R 2621   3.331   0.045   8.987  0.7936 -0.4711 -0.2389
   20SAPC  C215 2622   3.147   0.080   9.084  0.2437 -0.1757  0.5288
   20SAPC  H15R 2623   3.091   0.103   8.992 -1.2854 -0.4056  1.3682
   20SAPC  C216 2624   3.050   0.097   9.197  0.2209 -0.3777 -0.7578
   20SAPC  H16R 2625   3.106   0.058   9.285  0.3453  1.9539  0.2701
   20SAPC  H16S 2626   2.965   0.026   9.179  1.1862 -1.6695 -0.3927
   20SAPC  C217 2627   3.010   0.238   9.224  0.3082 -0.2676 -0.0694
   20SAPC  H17R 2628   2.935   0.268   9.147 -0.2145 -0.1576  0.4704
   20SAPC  H17S 2629   3.101   0.300   9.212  0.0991 -0.0033 -0.2981
   20SAPC  C218 2630   2.943   0.270   9.362 -0.2032  0.3753 -0.0042
   20SAPC  H18R 2631   2.892   0.177   9.394  0.1355  0.7779  1.7985
   20SAPC  H18S 2632   2.861   0.344   9.369 -0.9333 -0.4661  0.5247
   20SAPC  C219 2633   3.046   0.309   9.466  0.7250 -0.3839 -0.8209
   20SAPC  H19R 2634   3.076   0.415   9.453 -1.9461  0.7463  1.2393
   20SAPC  H19S 2635   3.136   0.243   9.469  0.2050 -1.0840  0.2636
   20SAPC  C220 2636   2.988   0.309   9.611 -0.0078 -1.0316  0.0002
   20SAPC  H20R 2637   3.068   0.345   9.678 -0.1673  1.5982 -1.1051
   20SAPC  H20S 2638   2.949   0.207   9.633 -1.2887 -0.4452  0.5239
   20SAPC  H20T 2639   2.914   0.392   9.606  2.7041  1.5323  0.0652
   20SAPC   C33 2640   4.276   0.487  10.128 -0.0494 -0.1502 -0.3398
   20SAPC   H3X 2641   4.346   0.401  10.131  1.2211  0.8029 -1.3259
   20SAPC   H3Y 2642   4.304   0.549  10.215 -0.8220  0.1831 -0.3204
   20SAPC   C34 2643   4.319   0.572  10.009  0.5415 -0.1039 -0.2424
   20SAPC   H4X 2644   4.247   0.654   9.994  1.3810  0.4287 -1.5122
   20SAPC   H4Y 2645   4.314   0.502   9.922 -0.9270 -1.8040  1.1199
   20SAPC   C35 2646   4.458   0.629  10.025 -0.3808  0.0129 -0.6452
   20SAPC   H5X 2647   4.525   0.543  10.045 -0.0561  0.2789 -0.5820
   20SAPC   H5Y 2648   4.465   0.702  10.108  2.8238 -1.3921  0.4469
   20SAPC   C36 2649   4.505   0.706   9.896  0.3429  0.4103  0.1833
   20SAPC   H6X 2650   4.605   0.749   9.919  0.2557 -0.0247  1.4941
   20SAPC   H6Y 2651   4.429   0.779   9.861  0.2325  0.4941  0.5911
   20SAPC   C37 2652   4.533   0.616   9.774 -0.0284  0.1376 -0.0324
   20SAPC   H7X 2653   4.439   0.563   9.748  0.1407 -1.0441  1.6027
   20SAPC   H7Y 2654   4.598   0.537   9.817  0.5122  0.1907 -0.7160
   20SAPC   C38 2655   4.592   0.689   9.653 -0.6314  0.3091  0.4957
   20SAPC   H8X 2656   4.635   0.606   9.594 -2.5716 -0.0232 -0.5476
   20SAPC   H8Y 2657   4.670   0.762   9.683 -0.4689  0.8170 -1.0892
   20SAPC   C39 2658   4.480   0.751   9.565  0.0732  0.1696  0.4381
   20SAPC   H9X 2659   4.415   0.812   9.630  0.7779 -1.3626  2.6853
   20SAPC   H9Y 2660   4.415   0.670   9.524 -1.3420  1.6336 -0.3125
   20SAPC  C310 2661   4.530   0.827   9.443 -0.0868 -0.6458 -0.3881
   20SAPC  H10X 2662   4.625   0.880   9.467 -0.6742  0.3254 -0.1467
   20SAPC  H10Y 2663   4.445   0.898   9.434  1.3943  1.7657  2.7099
   20SAPC  C311 2664   4.550   0.736   9.321  0.3371 -0.3190  0.5107
   20SAPC  H11X 2665   4.462   0.668   9.313  0.2053 -0.0661 -0.2323
   20SAPC  H11Y 2666   4.633   0.667   9.346  1.0811  0.2679 -0.2948
   20SAPC  C312 2667   4.545   0.793   9.179 -0.1723  0.6814  0.0108
   20SAPC  H12X 2668   4.611   0.882   9.176  1.6720 -0.6518 -1.8206
   20SAPC  H12Y 2669   4.439   0.819   9.158  0.5464  2.0355 -2.1822
   20SAPC  C313 2670   4.610   0.698   9.082 -0.1884 -0.4771  0.6347
   20SAPC  H13X 2671   4.567   0.597   9.101  1.0104 -1.2603 -0.6230
   20SAPC  H13Y 2672   4.718   0.688   9.110  0.2929 -0.7013 -1.2110
   20SAPC  C314 2673   4.598   0.726   8.928  0.1768 -0.8877 -0.3166
   20SAPC  H14X 2674   4.624   0.831   8.905 -0.8606 -0.6296 -0.3497
   20SAPC  H14Y 2675   4.496   0.703   8.889 -1.7008  1.4588  2.7498
   20SAPC  C315 2676   4.703   0.641   8.850 -0.4156  0.3954  0.1153
   20SAPC  H15X 2677   4.805   0.668   8.885  0.4211  1.0008 -2.5754
   20SAPC  H15Y 2678   4.693   0.672   8.744  0.7241  2.7197  0.6285
   20SAPC  C316 2679   4.680   0.485   8.852  0.3654 -1.0537 -0.5864
   20SAPC  H16X 2680   4.594   0.465   8.785 -0.4657  0.4463 -0.0172
   20SAPC  H16Y 2681   4.649   0.455   8.954 -2.0044  1.5989 -0.4135
   20SAPC  C317 2682   4.792   0.379   8.828  0.0304 -0.6568  0.7432
   20SAPC  H17X 2683   4.874   0.383   8.903 -0.6967 -0.1084  1.5329
   20SAPC  H17Y 2684   4.838   0.428   8.739 -0.2609 -0.7477  0.5424
   20SAPC  C318 2685   4.750   0.229   8.791 -0.1647 -0.0591  0.0967
   20SAPC  H18X 2686   4.653   0.224   8.736  0.1719  0.6244 -0.5848
   20SAPC  H18Y 2687   4.740   0.172   8.886  3.8620 -2.3936 -0.6858
   20SAPC  H18Z 2688   4.833   0.184   8.733  0.8962  0.2149  1.3699
   21SAPC     N 2689   2.236   6.257  10.522 -0.0293 -0.3403 -0.5933
   21SAPC   C12 2690   2.233   6.119  10.586 -0.2636  0.0681 -0.7813
   21SAPC  H12A 2691   2.179   6.043  10.532  2.1963 -1.4144 -1.2956
   21SAPC  H12B 2692   2.193   6.117  10.686  1.3598  0.0752 -0.1127
   21SAPC   C13 2693   2.095   6.314  10.530  0.1260  0.0918  0.4720
   21SAPC  H13A 2694   2.021   6.252  10.482  1.2281  0.1699 -1.4232
   21SAPC  H13B 2695   2.067   6.317  10.635  3.6810 -0.4730  1.5952
   21SAPC  H13C 2696   2.081   6.409  10.481  0.3571 -0.8083 -1.4143
   21SAPC   C14 2697   2.333   6.350  10.600 -0.3645  0.2560  0.0932
   21SAPC  H14A 2698   2.420   6.289  10.622 -1.4427 -2.1171 -1.7985
   21SAPC  H14B 2699   2.366   6.435  10.543  2.0852  0.7125  2.0141
   21SAPC  H14C 2700   2.286   6.390  10.689  0.1453 -2.2427  1.5962
   21SAPC   C15 2701   2.289   6.255  10.383 -0.0235  0.6985  0.7593
   21SAPC  H15A 2702   2.308   6.356  10.350  1.6985 -0.1807 -1.1483
   21SAPC  H15B 2703   2.388   6.213  10.381  0.9033  2.7507 -1.4041
   21SAPC  H15C 2704   2.224   6.195  10.320 -0.4045  0.7022  1.1445
   21SAPC   C11 2705   2.369   6.053  10.603 -0.4074  0.0472 -0.4775
   21SAPC  H11A 2706   2.421   6.041  10.505 -0.5027 -0.0400 -0.5171
   21SAPC  H11B 2707   2.360   5.956  10.655  1.3303  0.6083  1.0017
   21SAPC     P 2708   2.607   6.077  10.712  0.4549  0.1625  0.2202
   21SAPC   O13 2709   2.673   6.159  10.811 -0.1648  0.2742  1.1540
   21SAPC   O14 2710   2.601   5.932  10.750 -0.4779 -0.4511  0.2769
   21SAPC   O12 2711   2.458   6.122  10.695  0.5881  0.0964  0.7982
   21SAPC   O11 2712   2.675   6.100  10.576 -0.2046 -0.1156  0.4815
   21SAPC    C1 2713   2.698   6.236  10.535  0.3259  0.2868 -0.2382
   21SAPC    HA 2714   2.600   6.284  10.514  0.8939  1.9363  0.6709
   21SAPC    HB 2715   2.746   6.300  10.613 -0.6545 -2.2425  2.6642
   21SAPC    C2 2716   2.781   6.230  10.409  1.2357 -0.7374  0.0854
   21SAPC    HS 2717   2.765   6.326  10.355 -2.1267 -1.3979 -0.3177
   21SAPC   O21 2718   2.744   6.116  10.332  0.1968  0.1173 -0.2398
   21SAPC   C21 2719   2.635   6.136  10.263  0.2863 -0.1812  0.1966
   21SAPC   O22 2720   2.564   6.235  10.270 -0.1424  0.5825 -0.3352
   21SAPC   C22 2721   2.594   6.015  10.193  0.2236 -0.8401  0.0135
   21SAPC   H2R 2722   2.583   5.931  10.265  0.0680 -1.0177 -0.2165
   21SAPC   H2S 2723   2.497   6.035  10.142  0.8140 -1.6241 -1.5001
   21SAPC    C3 2724   2.936   6.236  10.436 -0.0452 -0.4542 -0.3418
   21SAPC    HX 2725   2.978   6.147  10.486  1.8165 -0.9407 -2.5984
   21SAPC    HY 2726   2.949   6.326  10.500  0.3235 -0.3320 -0.5821
   21SAPC   O31 2727   2.999   6.259  10.305 -0.8102  0.3469 -0.2870
   21SAPC   C31 2728   3.037   6.145  10.249 -0.5702  0.0665  0.0011
   21SAPC   O32 2729   3.033   6.035  10.299 -0.4277  0.4698  0.2896
   21SAPC   C32 2730   3.105   6.171  10.111 -0.5310 -0.3872 -0.5402
   21SAPC   H2X 2731   3.213   6.145  10.106 -0.3155  0.7382 -2.9124
   21SAPC   H2Y 2732   3.082   6.277  10.089 -2.7131 -0.3095  1.7032
   21SAPC   C23 2733   2.706   5.973  10.094  0.0223  0.0971 -0.0969
   21SAPC   H3R 2734   2.794   5.919  10.134 -1.5781 -1.1792  1.8606
   21SAPC   H3S 2735   2.738   6.060  10.032  1.7923  0.6804  1.5532
   21SAPC   C24 2736   2.641   5.879   9.996 -0.0180 -0.0004 -0.2832
   21SAPC   H4R 2737   2.544   5.919   9.960  0.6276  1.6902 -0.2704
   21SAPC   H4S 2738   2.608   5.784  10.042  0.9412  0.4335  1.3747
   21SAPC   C25 2739   2.732   5.856   9.874 -0.0528  0.0889  0.4442
   21SAPC   H5R 2740   2.814   5.787   9.901 -0.5076 -0.6848 -0.1313
   21SAPC   C26 2741   2.714   5.926   9.763  0.8659  0.9242  0.8893
   21SAPC   H6R 2742   2.780   5.890   9.683 -0.5826 -1.0692  0.4977
   21SAPC   C27 2743   2.609   6.034   9.731  0.4038  0.5365 -0.0711
   21SAPC   H7R 2744   2.543   6.065   9.814 -1.6458  2.3160 -2.2198
   21SAPC   H7S 2745   2.555   5.999   9.641 -0.8179 -0.3610  0.9759
   21SAPC   C28 2746   2.693   6.164   9.701  0.3015  0.1177  1.2269
   21SAPC   H8R 2747   2.718   6.227   9.788 -0.6423  3.2426 -0.6136
   21SAPC   C29 2748   2.720   6.221   9.582  0.3758  0.7075  0.2457
   21SAPC   H9R 2749   2.787   6.307   9.583  1.2341  0.0508  0.3222
   21SAPC  C210 2750   2.684   6.175   9.439 -0.6925 -0.1489  0.1859
   21SAPC  H10R 2751   2.649   6.264   9.383 -1.0509  0.7048  1.7277
   21SAPC  H10S 2752   2.598   6.104   9.437  2.6112 -4.5624 -1.1207
   21SAPC  C211 2753   2.788   6.103   9.346  0.5207  0.4104 -0.5439
   21SAPC  H11R 2754   2.880   6.066   9.394 -0.7123 -0.7166  1.0902
   21SAPC  C212 2755   2.786   6.080   9.213  0.1712 -0.0833 -1.0811
   21SAPC  H12R 2756   2.868   6.034   9.156  0.2700  0.9097 -1.7806
   21SAPC  C213 2757   2.666   6.125   9.130 -0.5086  0.0912  0.1922
   21SAPC  H13R 2758   2.680   6.232   9.103 -0.2261  0.0717  0.2568
   21SAPC  H13S 2759   2.566   6.108   9.176 -0.8315  1.0584 -0.1372
   21SAPC  C214 2760   2.672   6.039   9.008  0.2666  0.9861  0.1236
   21SAPC  H14R 2761   2.725   5.943   9.012  1.6297  1.5822 -2.0037
   21SAPC  C215 2762   2.608   6.082   8.895 -0.1830 -0.0588 -0.0836
   21SAPC  H15R 2763   2.615   6.026   8.800 -1.2683 -0.8958  0.2978
   21SAPC  C216 2764   2.526   6.217   8.897  0.0035  0.3204  0.1144
   21SAPC  H16R 2765   2.495   6.253   8.997 -1.4283 -1.0737  0.2244
   21SAPC  H16S 2766   2.425   6.202   8.851 -0.7044  1.7474  1.1551
   21SAPC  C217 2767   2.591   6.337   8.819  0.4868  0.0402 -0.2487
   21SAPC  H17R 2768   2.691   6.348   8.865  0.5790 -2.8635  0.4186
   21SAPC  H17S 2769   2.532   6.431   8.828  1.7571  0.7559  0.8829
   21SAPC  C218 2770   2.626   6.311   8.675 -0.3301 -0.0292  0.0369
   21SAPC  H18R 2771   2.695   6.225   8.687 -0.0138  0.3835  1.4215
   21SAPC  H18S 2772   2.693   6.393   8.641 -2.1921  1.2437 -0.6615
   21SAPC  C219 2773   2.512   6.292   8.573  0.2788  0.5084  0.3744
   21SAPC  H19R 2774   2.446   6.378   8.597 -0.1864  0.0608  0.7416
   21SAPC  H19S 2775   2.457   6.196   8.587  0.6041  0.0931 -1.0334
   21SAPC  C220 2776   2.558   6.311   8.431 -0.1971  0.0550  0.0398
   21SAPC  H20R 2777   2.627   6.233   8.395 -0.3110  0.7059 -1.6629
   21SAPC  H20S 2778   2.606   6.408   8.405  0.7761 -1.0846 -2.6833
   21SAPC  H20T 2779   2.467   6.303   8.368 -0.8418 -0.7920  1.0417
   21SAPC   C33 2780   3.043   6.083  10.000  0.6540 -0.7186  0.2660
   21SAPC   H3X 2781   3.073   6.143   9.911 -0.4574  0.7888  0.8458
   21SAPC   H3Y 2782   2.932   6.092  10.004  0.8515  4.2154  1.0456
   21SAPC   C34 2783   3.100   5.940   9.995 -0.0725  0.5338 -0.2001
   21SAPC   H4X 2784   3.025   5.871  10.041 -0.2870 -0.7022 -2.2882
   21SAPC   H4Y 2785   3.198   5.933  10.047  0.0224 -1.0483 -0.5309
   21SAPC   C35 2786   3.124   5.886   9.851  0.2685  0.4965  0.1117
   21SAPC   H5X 2787   3.214   5.936   9.811 -0.2063  0.2679 -1.3205
   21SAPC   H5Y 2788   3.041   5.906   9.780  1.3215 -1.1574 -1.6882
   21SAPC   C36 2789   3.164   5.737   9.849  0.5044  0.3020 -0.2254
   21SAPC   H6X 2790   3.076   5.671   9.867  0.3080  0.7362  0.4586
   21SAPC   H6Y 2791   3.248   5.718   9.919  0.6499 -0.3150 -0.5578
   21SAPC   C37 2792   3.240   5.688   9.727 -0.6289  0.0832 -0.7669
   21SAPC   H7X 2793   3.271   5.583   9.744 -0.3402  0.4454  1.2739
   21SAPC   H7Y 2794   3.331   5.752   9.724 -0.6570  0.1257 -0.7209
   21SAPC   C38 2795   3.162   5.700   9.593  0.0886 -0.2742 -0.5855
   21SAPC   H8X 2796   3.116   5.800   9.582  1.8566  0.5408 -0.9247
   21SAPC   H8Y 2797   3.079   5.626   9.587  0.9212 -1.3552  0.6142
   21SAPC   C39 2798   3.248   5.701   9.468 -0.4417  0.5095  0.1438
   21SAPC   H9X 2799   3.341   5.760   9.480 -0.8892  0.9679  1.4482
   21SAPC   H9Y 2800   3.190   5.756   9.390  3.0588  2.0245 -1.6165
   21SAPC  C310 2801   3.277   5.555   9.424 -0.4941  0.0257  0.3404
   21SAPC  H10X 2802   3.185   5.493   9.416 -0.3077 -0.0443 -4.6115
   21SAPC  H10Y 2803   3.343   5.501   9.494  0.5438  0.0048 -0.6261
   21SAPC  C311 2804   3.336   5.558   9.283 -0.0890  0.0745  0.8075
   21SAPC  H11X 2805   3.438   5.603   9.274  0.5007 -1.3339  0.1653
   21SAPC  H11Y 2806   3.262   5.616   9.223 -0.2665 -1.6220 -0.6966
   21SAPC  C312 2807   3.349   5.419   9.220 -0.2647  0.4534 -0.1547
   21SAPC  H12X 2808   3.244   5.384   9.221 -0.0285 -0.2812 -0.5282
   21SAPC  H12Y 2809   3.397   5.349   9.292  1.3960  1.9672  0.3240
   21SAPC  C313 2810   3.397   5.410   9.071 -0.3268 -0.0667 -0.2367
   21SAPC  H13X 2811   3.506   5.429   9.067 -0.6008  1.5119 -1.1375
   21SAPC  H13Y 2812   3.348   5.497   9.022 -0.8757 -0.7420 -0.9154
   21SAPC  C314 2813   3.364   5.279   9.006 -0.1878  0.7331  0.2790
   21SAPC  H14X 2814   3.253   5.280   9.000 -0.3400 -2.1864  0.9437
   21SAPC  H14Y 2815   3.385   5.183   9.057 -0.4398 -0.3975 -1.6597
   21SAPC  C315 2816   3.422   5.254   8.868 -0.8209 -0.3039 -0.8399
   21SAPC  H15X 2817   3.532   5.240   8.877 -0.7641  0.9679  0.9887
   21SAPC  H15Y 2818   3.406   5.351   8.815  1.1687  2.3235  2.8629
   21SAPC  C316 2819   3.352   5.145   8.798  0.0598 -0.3469 -0.2573
   21SAPC  H16X 2820   3.247   5.132   8.831  1.0430  0.5733  3.9262
   21SAPC  H16Y 2821   3.408   5.051   8.821  2.7218  1.6001  1.9550
   21SAPC  C317 2822   3.358   5.169   8.644  0.1919 -0.0638 -0.5509
   21SAPC  H17X 2823   3.466   5.178   8.624  0.3452 -0.1008  0.2383
   21SAPC  H17Y 2824   3.307   5.259   8.603 -0.1217 -0.5178 -1.1813
   21SAPC  C318 2825   3.305   5.048   8.561 -0.3718  0.4723  0.5486
   21SAPC  H18X 2826   3.367   4.958   8.580 -1.0170  0.1163  0.9891
   21SAPC  H18Y 2827   3.298   5.064   8.451  0.7714  3.1550  0.7849
   21SAPC  H18Z 2828   3.203   5.026   8.598 -1.0464  0.1980 -1.3692
   22SAPC     N 2829   2.208   3.638  10.606  0.1299  0.1949  0.1264
   22SAPC   C12 2830   2.182   3.765  10.690  0.7577  0.4926  0.2785
   22SAPC  H12A 2831   2.223   3.748  10.789  0.6265  0.5635  0.3448
   22SAPC  H12B 2832   2.078   3.764  10.720  0.7059 -4.3807  0.6738
   22SAPC   C13 2833   2.351   3.610  10.597  0.0461 -0.1177  0.2001
   22SAPC  H13A 2834   2.369   3.521  10.539 -2.8566  0.0036 -1.0316
   22SAPC  H13B 2835   2.404   3.691  10.548  0.6742  0.3266  1.5555
   22SAPC  H13C 2836   2.402   3.579  10.687 -0.1445 -4.9965 -1.1055
   22SAPC   C14 2837   2.141   3.516  10.671 -0.2534  0.5484 -0.5784
   22SAPC  H14A 2838   2.178   3.491  10.769  0.8079  1.6815 -0.6639
   22SAPC  H14B 2839   2.036   3.539  10.679 -0.2147 -0.0169  2.7644
   22SAPC  H14C 2840   2.147   3.431  10.604  1.5654 -0.6975  1.0505
   22SAPC   C15 2841   2.143   3.659  10.468  0.7036  0.1688 -0.0056
   22SAPC  H15A 2842   2.198   3.737  10.418 -1.3359  1.4708 -0.3383
   22SAPC  H15B 2843   2.154   3.570  10.409  2.2395  1.6716 -2.1159
   22SAPC  H15C 2844   2.045   3.703  10.482  0.1272 -0.7323 -1.0784
   22SAPC   C11 2845   2.227   3.898  10.637  0.4113  0.1121  1.1095
   22SAPC  H11A 2846   2.207   3.978  10.710 -1.1389  0.7446  0.0402
   22SAPC  H11B 2847   2.171   3.918  10.543  0.1756  2.0069  1.6103
   22SAPC     P 2848   2.494   3.949  10.659 -0.4607  0.4793 -0.1643
   22SAPC   O13 2849   2.477   4.086  10.717  0.1181 -0.4930 -0.7268
   22SAPC   O14 2850   2.536   3.847  10.760  0.4534 -0.0338 -0.2634
   22SAPC   O12 2851   2.365   3.901  10.587 -0.4783  0.2123 -0.1073
   22SAPC   O11 2852   2.598   3.948  10.540 -0.6154 -0.1938  0.6136
   22SAPC    C1 2853   2.610   4.066  10.454 -0.4135  0.1258 -0.9628
   22SAPC    HA 2854   2.646   4.150  10.516 -0.1545  2.3132 -3.8628
   22SAPC    HB 2855   2.682   4.036  10.375 -0.3323  0.1283 -0.8898
   22SAPC    C2 2856   2.482   4.105  10.389  1.4653  1.0110  0.0288
   22SAPC    HS 2857   2.417   4.135  10.474  1.7760  0.7367  0.3669
   22SAPC   O21 2858   2.430   3.990  10.323 -0.0357  0.3208 -0.5137
   22SAPC   C21 2859   2.307   3.989  10.289 -0.2884  0.1036 -0.0365
   22SAPC   O22 2860   2.225   4.071  10.315  0.4298  0.3969  0.5860
   22SAPC   C22 2861   2.278   3.875  10.197 -0.0753  0.6219 -0.5507
   22SAPC   H2R 2862   2.353   3.797  10.219  0.3030  0.9339 -0.7163
   22SAPC   H2S 2863   2.175   3.834  10.202  0.2383 -0.1859 -0.5901
   22SAPC    C3 2864   2.520   4.219  10.299  0.0151 -0.2866 -0.0590
   22SAPC    HX 2865   2.607   4.189  10.236  0.3353 -0.4660  0.4556
   22SAPC    HY 2866   2.553   4.303  10.364  0.6517 -0.3977 -0.2265
   22SAPC   O31 2867   2.420   4.250  10.200  0.5512  0.5078 -0.0364
   22SAPC   C31 2868   2.331   4.343  10.236  0.8704  0.4776  0.7104
   22SAPC   O32 2869   2.339   4.416  10.333  0.4373 -0.1879  0.4558
   22SAPC   C32 2870   2.207   4.332  10.142 -0.0347 -0.1770  0.8542
   22SAPC   H2X 2871   2.119   4.382  10.188 -0.8616  0.7990 -1.5851
   22SAPC   H2Y 2872   2.185   4.224  10.128  1.0917 -0.4342  0.9488
   22SAPC   C23 2873   2.290   3.915  10.042  0.4598  0.9419 -0.5759
   22SAPC   H3R 2874   2.384   3.971  10.022  1.5368  0.1635  1.8998
   22SAPC   H3S 2875   2.204   3.985  10.031 -0.3952  0.0578  0.2807
   22SAPC   C24 2876   2.272   3.790   9.955 -0.3644 -0.4166  0.0122
   22SAPC   H4R 2877   2.183   3.738   9.995  0.1992 -0.5511  1.1382
   22SAPC   H4S 2878   2.353   3.714   9.962  0.0006 -0.0885 -0.5418
   22SAPC   C25 2879   2.265   3.832   9.811 -0.3856 -0.1315 -0.4347
   22SAPC   H5R 2880   2.210   3.926   9.792 -1.8450 -0.7797  0.4304
   22SAPC   C26 2881   2.310   3.767   9.699  0.1763  0.2092 -0.2942
   22SAPC   H6R 2882   2.300   3.811   9.598 -2.3163  0.7346  0.1078
   22SAPC   C27 2883   2.389   3.636   9.690 -0.8882 -0.3997 -0.3307
   22SAPC   H7R 2884   2.462   3.617   9.772  1.0234 -0.4584 -1.9671
   22SAPC   H7S 2885   2.462   3.648   9.607  1.5056 -1.6222  1.4737
   22SAPC   C28 2886   2.314   3.506   9.664 -0.1266  0.1478  0.1507
   22SAPC   H8R 2887   2.316   3.436   9.750 -0.1538 -0.5605 -0.4100
   22SAPC   C29 2888   2.254   3.466   9.554  0.7640 -1.0088 -0.1627
   22SAPC   H9R 2889   2.207   3.367   9.554 -1.7677  0.1069 -1.6607
   22SAPC  C210 2890   2.261   3.536   9.421 -0.5006 -0.5854  0.1908
   22SAPC  H10R 2891   2.345   3.606   9.403  0.8952 -1.9746  1.0246
   22SAPC  H10S 2892   2.164   3.589   9.410 -1.6488 -2.0693  2.3283
   22SAPC  C211 2893   2.264   3.436   9.309  0.6470 -0.6301  0.4388
   22SAPC  H11R 2894   2.358   3.410   9.259 -0.2851 -3.4496 -0.0050
   22SAPC  C212 2895   2.153   3.374   9.262  0.0603 -0.0110  0.3442
   22SAPC  H12R 2896   2.180   3.294   9.192 -0.1664 -0.3583  0.6489
   22SAPC  C213 2897   2.007   3.385   9.299 -0.4182  0.2968 -0.1139
   22SAPC  H13R 2898   1.952   3.415   9.207  0.4983  0.7323 -0.5448
   22SAPC  H13S 2899   1.991   3.464   9.376  1.3997 -1.4279  2.1909
   22SAPC  C214 2900   1.962   3.249   9.353  0.2509  0.2193 -0.5495
   22SAPC  H14R 2901   1.955   3.236   9.462 -0.7025  1.0782 -0.4939
   22SAPC  C215 2902   1.943   3.144   9.271  0.0584  0.1181  0.1568
   22SAPC  H15R 2903   1.930   3.045   9.317  1.4452 -0.0539  0.2174
   22SAPC  C216 2904   1.945   3.137   9.124 -0.1699  0.0126 -0.3182
   22SAPC  H16R 2905   2.044   3.108   9.082 -0.2197 -1.1241  0.3172
   22SAPC  H16S 2906   1.928   3.242   9.092  1.8714  0.0067 -1.5972
   22SAPC  C217 2907   1.840   3.043   9.065 -0.3743  0.6417  0.4053
   22SAPC  H17R 2908   1.743   3.085   9.102  0.5314  1.2538  2.2372
   22SAPC  H17S 2909   1.848   2.944   9.114 -2.0606  0.4139  0.2895
   22SAPC  C218 2910   1.839   3.049   8.909 -0.0706  0.4768 -0.2378
   22SAPC  H18R 2911   1.937   3.026   8.863  0.5589  0.5393  1.0232
   22SAPC  H18S 2912   1.821   3.157   8.890  0.9199  0.9496  1.2752
   22SAPC  C219 2913   1.734   2.958   8.843 -0.5488  0.0006 -0.3521
   22SAPC  H19R 2914   1.630   2.959   8.880  0.1501  2.4974  1.8498
   22SAPC  H19S 2915   1.774   2.855   8.856 -0.4087  0.1675  0.5855
   22SAPC  C220 2916   1.722   2.980   8.688 -0.6421  0.1241 -0.1268
   22SAPC  H20R 2917   1.676   3.079   8.668 -1.1633 -0.0943 -0.0146
   22SAPC  H20S 2918   1.661   2.900   8.641 -0.8886 -0.7978  1.6871
   22SAPC  H20T 2919   1.827   2.976   8.651 -0.6583 -0.0741 -0.1532
   22SAPC   C33 2920   2.241   4.388  10.001  0.4178  0.0795  0.1692
   22SAPC   H3X 2921   2.267   4.495  10.006  2.0743 -0.2825 -0.0571
   22SAPC   H3Y 2922   2.145   4.384   9.946  1.5940  2.3904 -2.2486
   22SAPC   C34 2923   2.351   4.316   9.921  0.6013  0.2528  0.1777
   22SAPC   H4X 2924   2.343   4.205   9.924  2.9880  0.0346  0.7974
   22SAPC   H4Y 2925   2.456   4.342   9.948  1.5777 -3.8895  1.2365
   22SAPC   C35 2926   2.345   4.347   9.767  1.6533  0.2243 -0.7898
   22SAPC   H5X 2927   2.306   4.451   9.761  1.3917  0.1854  0.0514
   22SAPC   H5Y 2928   2.260   4.294   9.719 -1.1849  3.2424  0.5134
   22SAPC   C36 2929   2.471   4.346   9.694 -0.1734 -0.1162 -0.3299
   22SAPC   H6X 2930   2.514   4.243   9.686 -1.6921 -0.7723 -0.3509
   22SAPC   H6Y 2931   2.548   4.412   9.740 -0.5472 -0.0174  0.1530
   22SAPC   C37 2932   2.453   4.366   9.544  0.8157  0.5742 -0.0087
   22SAPC   H7X 2933   2.554   4.385   9.502  0.5607  1.0528 -0.4120
   22SAPC   H7Y 2934   2.388   4.456   9.534  0.4092  0.1731 -1.0383
   22SAPC   C38 2935   2.396   4.242   9.472  0.1056 -0.3647 -0.0832
   22SAPC   H8X 2936   2.292   4.212   9.496  0.1205 -0.8286 -0.5694
   22SAPC   H8Y 2937   2.446   4.146   9.498 -4.0645 -2.0798  2.4558
   22SAPC   C39 2938   2.403   4.261   9.322 -0.7289  0.4324 -0.3993
   22SAPC   H9X 2939   2.401   4.371   9.308 -0.7222  0.5655  0.6278
   22SAPC   H9Y 2940   2.309   4.214   9.287 -2.6900  0.8589  3.7690
   22SAPC  C310 2941   2.529   4.201   9.257 -0.1280 -0.3040  0.5494
   22SAPC  H10X 2942   2.524   4.090   9.257 -2.3617 -0.3686 -3.1953
   22SAPC  H10Y 2943   2.621   4.228   9.314  0.2659 -1.2559  0.3827
   22SAPC  C311 2944   2.530   4.238   9.110  0.3485  0.6776 -0.3508
   22SAPC  H11X 2945   2.569   4.341   9.101  2.5889  0.0482  1.2563
   22SAPC  H11Y 2946   2.429   4.233   9.065  0.5046 -0.1409 -0.6322
   22SAPC  C312 2947   2.632   4.150   9.027  0.0979 -0.3736  0.2711
   22SAPC  H12X 2948   2.591   4.047   9.033  0.0644 -0.4400 -0.8502
   22SAPC  H12Y 2949   2.727   4.154   9.085 -0.3103  0.5432  0.9082
   22SAPC  C313 2950   2.658   4.192   8.882 -0.1439 -0.2825  0.2101
   22SAPC  H13X 2951   2.736   4.270   8.887  0.8936 -1.3015  0.2675
   22SAPC  H13Y 2952   2.564   4.238   8.844  0.3301  0.3905 -0.1730
   22SAPC  C314 2953   2.714   4.079   8.786 -0.2474  0.3435  0.3908
   22SAPC  H14X 2954   2.625   4.019   8.757  0.2287 -0.4068  0.4597
   22SAPC  H14Y 2955   2.788   4.022   8.846  0.4384  1.1551  0.3364
   22SAPC  C315 2956   2.790   4.140   8.668 -0.5386  0.0815  0.6914
   22SAPC  H15X 2957   2.888   4.191   8.688  0.7356 -2.2977  0.8150
   22SAPC  H15Y 2958   2.718   4.214   8.626  0.4004 -0.3552 -1.8614
   22SAPC  C316 2959   2.814   4.047   8.546  0.0023  0.2262  0.0221
   22SAPC  H16X 2960   2.715   4.012   8.512 -0.3737  1.9940 -0.7992
   22SAPC  H16Y 2961   2.869   3.954   8.574 -1.1377 -0.5711 -0.3476
   22SAPC  C317 2962   2.890   4.120   8.437  0.6196  0.6635 -0.3809
   22SAPC  H17X 2963   2.989   4.147   8.481  0.1852 -0.8743  1.7452
   22SAPC  H17Y 2964   2.827   4.203   8.400  1.4427  1.8137  0.7145
   22SAPC  C318 2965   2.913   4.039   8.315 -0.6861 -0.4212  0.3224
   22SAPC  H18X 2966   2.971   4.108   8.250  1.4886 -0.4867  2.1034
   22SAPC  H18Y 2967   2.812   4.015   8.273 -0.6798 -0.7346  0.4809
   22SAPC  H18Z 2968   2.977   3.951   8.337  3.2432  2.1485  0.0212
   23SAPC     N 2969   5.183   4.755  10.901 -0.7013 -0.2161 -0.4259
   23SAPC   C12 2970   5.119   4.754  10.770  0.3143 -0.7959  0.1737
   23SAPC  H12A 2971   5.016   4.722  10.776  0.1462 -0.3249 -0.1223
   23SAPC  H12B 2972   5.163   4.678  10.707  1.4465  0.5421 -0.7186
   23SAPC   C13 2973   5.112   4.833  11.012 -0.1905  0.1551  0.3330
   23SAPC  H13A 2974   5.012   4.797  11.029 -1.0168  1.8064 -0.7948
   23SAPC  H13B 2975   5.159   4.821  11.108 -0.3421  0.4318  0.4415
   23SAPC  H13C 2976   5.104   4.935  10.978  2.7980  1.5755  3.2809
   23SAPC   C14 2977   5.195   4.611  10.938 -0.1376 -0.0735  0.4081
   23SAPC  H14A 2978   5.249   4.599  11.031  0.6469  2.3667  0.3382
   23SAPC  H14B 2979   5.099   4.562  10.933  0.6425 -1.7013  0.7702
   23SAPC  H14C 2980   5.260   4.573  10.860 -0.0419  2.3981 -0.8267
   23SAPC   C15 2981   5.319   4.824  10.885 -0.0259  1.0851  0.0048
   23SAPC  H15A 2982   5.376   4.809  10.976 -0.4704 -1.0676 -0.0207
   23SAPC  H15B 2983   5.369   4.777  10.802  0.1555  0.1265  0.6496
   23SAPC  H15C 2984   5.308   4.929  10.862  3.0971  1.9884  1.9212
   23SAPC   C11 2985   5.125   4.889  10.687 -0.1409 -0.3771  0.7314
   23SAPC  H11A 2986   5.065   4.884  10.594 -1.0012  2.8257  0.9725
   23SAPC  H11B 2987   5.230   4.897  10.652 -0.0394 -1.8410  0.6358
   23SAPC     P 2988   4.948   5.066  10.773  0.1433  0.0935 -0.2122
   23SAPC   O13 2989   4.858   4.975  10.689  0.0461  0.0639 -0.6055
   23SAPC   O14 2990   4.924   5.068  10.915  0.5842  0.0152 -0.2369
   23SAPC   O12 2991   5.092   5.014  10.748 -0.4061 -0.8295 -0.7796
   23SAPC   O11 2992   4.932   5.212  10.707 -0.0370 -0.0282 -0.1279
   23SAPC    C1 2993   5.037   5.301  10.700 -0.2193  0.6817  0.6126
   23SAPC    HA 2994   4.993   5.395  10.740 -0.7828  0.0185  1.5916
   23SAPC    HB 2995   5.118   5.274  10.771 -1.7784  2.5092  3.2473
   23SAPC    C2 2996   5.094   5.329  10.557 -0.6941 -0.0939  0.2937
   23SAPC    HS 2997   5.030   5.401  10.501 -0.4469 -0.5462 -0.5932
   23SAPC   O21 2998   5.104   5.208  10.485  0.1661  0.5700 -0.3606
   23SAPC   C21 2999   4.982   5.175  10.427  0.1019  0.5037  0.0573
   23SAPC   O22 3000   4.883   5.243  10.407  0.4211  0.0816 -0.4402
   23SAPC   C22 3001   5.002   5.037  10.369  0.5812  0.1919 -0.4600
   23SAPC   H2R 3002   5.096   4.990  10.405  1.2333  0.1107 -2.1868
   23SAPC   H2S 3003   4.926   4.963  10.401  0.4073  0.0384 -1.2170
   23SAPC    C3 3004   5.233   5.406  10.555  0.0626 -0.0072 -0.3864
   23SAPC    HX 3005   5.310   5.329  10.574 -0.0699 -0.1957 -0.6115
   23SAPC    HY 3006   5.226   5.476  10.641 -0.6045 -0.6029  0.0539
   23SAPC   O31 3007   5.252   5.471  10.430 -0.1681  0.4959  0.0824
   23SAPC   C31 3008   5.203   5.599  10.424  0.5655 -0.0087 -0.3074
   23SAPC   O32 3009   5.118   5.645  10.504 -0.5386  0.3455 -0.6067
   23SAPC   C32 3010   5.246   5.680  10.302 -0.1774 -0.4220  0.2161
   23SAPC   H2X 3011   5.340   5.733  10.328 -1.2797  1.1343  1.2182
   23SAPC   H2Y 3012   5.166   5.757  10.297 -0.4364 -0.2917  3.7312
   23SAPC   C23 3013   4.996   5.033  10.220 -0.3315  0.0329  0.2743
   23SAPC   H3R 3014   5.083   5.086  10.175 -0.2541  1.4257  1.9551
   23SAPC   H3S 3015   4.909   5.094  10.187 -0.3504  0.4201  1.0233
   23SAPC   C24 3016   4.989   4.883  10.165  0.3019 -0.7804 -0.1675
   23SAPC   H4R 3017   4.968   4.888  10.056 -1.6388  0.1645  0.1958
   23SAPC   H4S 3018   4.907   4.828  10.215 -0.4731  0.6282  0.1623
   23SAPC   C25 3019   5.115   4.806  10.192  0.1623 -0.0471 -1.1478
   23SAPC   H5R 3020   5.145   4.809  10.297 -1.3032  2.1150 -0.7270
   23SAPC   C26 3021   5.199   4.751  10.103 -0.4419  0.6041 -0.7859
   23SAPC   H6R 3022   5.270   4.680  10.149 -3.1791 -1.2882  0.8090
   23SAPC   C27 3023   5.190   4.766   9.955 -0.0161 -0.3132  0.2608
   23SAPC   H7R 3024   5.160   4.869   9.927 -1.4486 -0.5796  0.7383
   23SAPC   H7S 3025   5.101   4.706   9.926 -0.9170  0.8829  0.5118
   23SAPC   C28 3026   5.308   4.732   9.863 -0.0669  0.2311  0.2786
   23SAPC   H8R 3027   5.408   4.755   9.903  0.3488 -0.5743 -0.2844
   23SAPC   C29 3028   5.297   4.675   9.741 -0.5202 -0.1332 -0.0804
   23SAPC   H9R 3029   5.388   4.650   9.684 -1.4565  0.3549 -1.8609
   23SAPC  C210 3030   5.172   4.630   9.678  0.2907  0.3978  0.2056
   23SAPC  H10R 3031   5.105   4.582   9.753 -1.6854  1.7446 -0.6039
   23SAPC  H10S 3032   5.192   4.549   9.605  2.3598 -0.0199  1.1563
   23SAPC  C211 3033   5.094   4.741   9.606  0.3707 -0.2088 -0.4808
   23SAPC  H11R 3034   5.032   4.798   9.676 -0.2438  0.6006 -1.6583
   23SAPC  C212 3035   5.114   4.780   9.479  0.2282  0.9171  0.7317
   23SAPC  H12R 3036   5.069   4.874   9.443 -1.3315  0.0713  0.3538
   23SAPC  C213 3037   5.217   4.726   9.382  1.3258 -0.4694 -0.1129
   23SAPC  H13R 3038   5.309   4.683   9.428  1.4959 -0.2422 -0.2395
   23SAPC  H13S 3039   5.256   4.810   9.321  0.6602  0.2019  0.3718
   23SAPC  C214 3040   5.148   4.616   9.307  0.3621  0.4258  0.2325
   23SAPC  H14R 3041   5.160   4.521   9.362  0.2096  2.1496  3.4168
   23SAPC  C215 3042   5.079   4.616   9.190 -0.5439 -0.0216  0.2538
   23SAPC  H15R 3043   5.029   4.523   9.159  0.9277 -0.8857  0.3643
   23SAPC  C216 3044   5.060   4.736   9.096  0.1917 -0.4971  0.3780
   23SAPC  H16R 3045   5.138   4.814   9.108 -0.7873  0.3771  1.3489
   23SAPC  H16S 3046   4.956   4.771   9.111  0.8423  0.4763  3.3314
   23SAPC  C217 3047   5.055   4.691   8.940  0.6042 -0.3946  0.0211
   23SAPC  H17R 3048   4.983   4.607   8.926  0.2345  0.1365 -1.5054
   23SAPC  H17S 3049   5.148   4.643   8.904  0.7941 -2.9006  3.3753
   23SAPC  C218 3050   4.992   4.799   8.845  0.8442  0.4233 -1.6387
   23SAPC  H18R 3051   5.024   4.899   8.882 -0.9823  0.0622  1.2902
   23SAPC  H18S 3052   4.881   4.797   8.851  0.8936 -0.2074 -0.5868
   23SAPC  C219 3053   5.038   4.767   8.708  0.0487 -0.3264  1.1041
   23SAPC  H19R 3054   5.043   4.659   8.685  0.9360 -0.8441  3.3823
   23SAPC  H19S 3055   5.141   4.800   8.683  0.3128 -1.2912  0.8795
   23SAPC  C220 3056   4.945   4.833   8.597  0.0680 -0.4733  0.1960
   23SAPC  H20R 3057   4.954   4.944   8.594  2.1588 -0.5634  1.2310
   23SAPC  H20S 3058   4.838   4.805   8.597  0.5341 -2.3754 -0.3627
   23SAPC  H20T 3059   4.990   4.805   8.500 -3.2021 -0.6788 -1.3729
   23SAPC   C33 3060   5.269   5.586  10.186 -0.1381 -0.0373  0.2928
   23SAPC   H3X 3061   5.184   5.517  10.166 -0.5676  0.3228  0.8411
   23SAPC   H3Y 3062   5.363   5.529  10.200 -0.2763 -0.8379 -1.7596
   23SAPC   C34 3063   5.285   5.663  10.052  0.0373 -0.1230  0.5790
   23SAPC   H4X 3064   5.364   5.738  10.070 -2.3873  2.5621  0.6908
   23SAPC   H4Y 3065   5.193   5.723  10.036  0.3004  0.3692  0.9033
   23SAPC   C35 3066   5.310   5.567   9.936 -0.2953 -0.1019 -0.4822
   23SAPC   H5X 3067   5.227   5.495   9.917  0.7653 -1.4526 -0.2214
   23SAPC   H5Y 3068   5.399   5.506   9.965  0.8979  1.9438  0.4042
   23SAPC   C36 3069   5.331   5.643   9.803 -0.2076  0.0267 -0.3604
   23SAPC   H6X 3070   5.433   5.687   9.803 -0.6381  1.1269  1.3165
   23SAPC   H6Y 3071   5.269   5.735   9.794  1.0298  0.8018 -1.2758
   23SAPC   C37 3072   5.309   5.550   9.679  0.3078 -0.6273  0.2740
   23SAPC   H7X 3073   5.200   5.546   9.661  0.3786  0.1358 -0.3878
   23SAPC   H7Y 3074   5.347   5.449   9.704  0.1196 -0.6393  0.5166
   23SAPC   C38 3075   5.372   5.606   9.550  0.1906 -0.1619  0.2777
   23SAPC   H8X 3076   5.481   5.617   9.568  0.1987  0.0837  0.0778
   23SAPC   H8Y 3077   5.331   5.706   9.527 -1.6701 -1.2481 -1.4143
   23SAPC   C39 3078   5.329   5.511   9.433 -0.2747  0.6836 -0.7161
   23SAPC   H9X 3079   5.222   5.488   9.448 -0.0056 -0.4638 -0.4511
   23SAPC   H9Y 3080   5.380   5.414   9.454 -1.0838  0.2391 -0.7394
   23SAPC  C310 3081   5.366   5.583   9.302 -0.1483 -0.0235 -0.0841
   23SAPC  H10X 3082   5.473   5.611   9.313  0.4477 -1.6303 -1.3329
   23SAPC  H10Y 3083   5.317   5.682   9.316  1.3444  0.4427  2.6944
   23SAPC  C311 3084   5.325   5.506   9.176  0.5548 -0.4421  0.3691
   23SAPC  H11X 3085   5.216   5.499   9.161  0.5975  1.0706 -0.9220
   23SAPC  H11Y 3086   5.357   5.400   9.187 -0.3058 -0.7850 -0.2681
   23SAPC  C312 3087   5.369   5.580   9.051 -0.5352  0.5801  0.3816
   23SAPC  H12X 3088   5.477   5.600   9.066 -0.4232  0.8470 -0.6707
   23SAPC  H12Y 3089   5.320   5.677   9.032  1.2316  1.3871 -0.2627
   23SAPC  C313 3090   5.361   5.489   8.923 -0.3765 -0.1186 -0.0328
   23SAPC  H13X 3091   5.258   5.492   8.881 -0.5227 -1.0129  0.2435
   23SAPC  H13Y 3092   5.381   5.382   8.946  0.5568  0.2418  0.9001
   23SAPC  C314 3093   5.465   5.536   8.811 -0.6817 -0.9299  0.3514
   23SAPC  H14X 3094   5.558   5.522   8.870 -2.3165 -1.6182  2.9257
   23SAPC  H14Y 3095   5.467   5.645   8.789 -0.3110 -0.4738  2.4214
   23SAPC  C315 3096   5.468   5.455   8.686  0.0389  0.0252 -0.3491
   23SAPC  H15X 3097   5.372   5.478   8.635  1.0275  2.4794 -1.2566
   23SAPC  H15Y 3098   5.477   5.349   8.717 -1.1091  0.3378  1.1604
   23SAPC  C316 3099   5.581   5.502   8.596  0.1687  0.3735 -0.2710
   23SAPC  H16X 3100   5.674   5.445   8.619 -0.4388  0.1851  1.9766
   23SAPC  H16Y 3101   5.609   5.607   8.620 -0.0831  0.1115  1.2472
   23SAPC  C317 3102   5.560   5.499   8.448  0.0659  0.3142  0.3104
   23SAPC  H17X 3103   5.490   5.582   8.425 -0.3642 -0.0943  0.1348
   23SAPC  H17Y 3104   5.509   5.403   8.423  1.9141 -0.7901  0.6108
   23SAPC  C318 3105   5.688   5.502   8.353  0.0557 -0.4041  0.4137
   23SAPC  H18X 3106   5.666   5.472   8.249  1.1640 -1.7831  0.5424
   23SAPC  H18Y 3107   5.754   5.419   8.387 -1.2483 -2.1591 -1.1341
   23SAPC  H18Z 3108   5.726   5.606   8.348  2.0193 -1.0853  0.2397
   24SAPC     N 3109   6.093   6.410  10.928  1.0440 -0.3366  0.7975
   24SAPC   C12 3110   6.093   6.262  10.946  0.4750  0.4975 -0.0887
   24SAPC  H12A 3111   5.991   6.229  10.930  0.0374  2.5414 -2.0334
   24SAPC  H12B 3112   6.122   6.243  11.048  0.4147 -0.5223 -0.2466
   24SAPC   C13 3113   6.048   6.438  10.792  0.0016 -0.0205  0.1863
   24SAPC  H13A 3114   5.944   6.419  10.769 -0.4142 -0.8848  2.5499
   24SAPC  H13B 3115   6.067   6.542  10.770  0.0588 -0.0048  0.3092
   24SAPC  H13C 3116   6.096   6.373  10.720  1.7353  1.0598  0.3082
   24SAPC   C14 3117   6.010   6.489  11.026  0.4809  0.4590 -0.6089
   24SAPC  H14A 3118   5.913   6.448  11.049 -0.2182  1.3811 -1.7864
   24SAPC  H14B 3119   6.061   6.505  11.120  0.0327  0.7455 -0.4104
   24SAPC  H14C 3120   5.977   6.586  10.992 -1.5868  0.5336  1.3904
   24SAPC   C15 3121   6.236   6.469  10.931  0.0558 -0.0835  1.2712
   24SAPC  H15A 3122   6.300   6.419  10.859 -0.1438  1.1710  0.1840
   24SAPC  H15B 3123   6.241   6.577  10.922 -0.7686 -0.0543  1.0578
   24SAPC  H15C 3124   6.278   6.442  11.027  1.1112  1.3290  1.2512
   24SAPC   C11 3125   6.182   6.174  10.849 -0.8520  0.1802 -0.2496
   24SAPC  H11A 3126   6.142   6.185  10.746 -1.0439  0.6955 -0.1251
   24SAPC  H11B 3127   6.178   6.067  10.877 -2.3753  0.2964  0.0917
   24SAPC     P 3128   6.431   6.168  10.920  0.1081 -0.0913 -0.0585
   24SAPC   O13 3129   6.419   6.234  11.053 -0.4941 -0.1468  0.4921
   24SAPC   O14 3130   6.440   6.024  10.916  0.5588  0.5613 -0.2118
   24SAPC   O12 3131   6.323   6.218  10.834 -0.2868  0.1085 -0.8286
   24SAPC   O11 3132   6.564   6.220  10.839  0.0629  0.2765 -0.4705
   24SAPC    C1 3133   6.577   6.358  10.819 -0.2340 -0.2258 -0.3436
   24SAPC    HA 3134   6.487   6.419  10.839 -2.2369 -1.2034 -5.1019
   24SAPC    HB 3135   6.660   6.390  10.886 -0.5316 -0.2360  0.0286
   24SAPC    C2 3136   6.620   6.391  10.674 -0.2250 -0.0300 -1.0693
   24SAPC    HS 3137   6.639   6.499  10.657  1.7628 -0.3493 -1.1605
   24SAPC   O21 3138   6.525   6.342  10.578  0.6474  0.1619 -0.4730
   24SAPC   C21 3139   6.412   6.402  10.578 -0.7109 -0.7841 -0.0716
   24SAPC   O22 3140   6.381   6.504  10.639 -0.1226  0.2666 -0.4641
   24SAPC   C22 3141   6.307   6.325  10.499  0.2509 -0.4843  0.0787
   24SAPC   H2R 3142   6.353   6.263  10.420 -0.4320 -0.1985 -0.5541
   24SAPC   H2S 3143   6.250   6.263  10.572  0.4619  1.7690  2.2911
   24SAPC    C3 3144   6.755   6.333  10.631 -0.7571  0.2944 -0.6724
   24SAPC    HX 3145   6.753   6.222  10.635 -1.8606  0.3239  0.9110
   24SAPC    HY 3146   6.829   6.365  10.708  0.5969 -2.4452 -0.7058
   24SAPC   O31 3147   6.797   6.375  10.499 -0.0883  0.1034 -0.4028
   24SAPC   C31 3148   6.927   6.396  10.481 -0.1153 -0.5284  0.9130
   24SAPC   O32 3149   7.017   6.357  10.553 -0.4727  0.6008 -0.9905
   24SAPC   C32 3150   6.937   6.479  10.355 -0.6384 -0.2406 -0.7826
   24SAPC   H2X 3151   6.857   6.555  10.361 -2.2850 -1.9090 -0.4876
   24SAPC   H2Y 3152   6.926   6.420  10.261 -1.0008  0.5801 -1.2643
   24SAPC   C23 3153   6.207   6.419  10.431  0.2409  0.0080 -0.1453
   24SAPC   H3R 3154   6.258   6.516  10.411 -0.2158  1.1558  3.5821
   24SAPC   H3S 3155   6.130   6.438  10.509 -1.2442 -1.5057 -1.1770
   24SAPC   C24 3156   6.137   6.358  10.300 -0.1711 -0.5731 -0.0174
   24SAPC   H4R 3157   6.096   6.258  10.321 -0.1823 -0.8404 -1.2152
   24SAPC   H4S 3158   6.220   6.362  10.226 -0.6125 -1.2661 -0.5570
   24SAPC   C25 3159   6.015   6.427  10.247  0.5154 -0.4857  0.1691
   24SAPC   H5R 3160   5.942   6.455  10.324 -0.2546  1.4180 -1.1592
   24SAPC   C26 3161   5.983   6.466  10.116  0.0081  1.2558 -0.5635
   24SAPC   H6R 3162   5.882   6.506  10.096 -1.5761 -1.0846  2.0495
   24SAPC   C27 3163   6.060   6.440   9.986  0.2624 -0.1525 -0.3981
   24SAPC   H7R 3164   5.992   6.416   9.902 -1.2166  0.6746  0.5198
   24SAPC   H7S 3165   6.118   6.346  10.003  3.0005  1.7468  1.6204
   24SAPC   C28 3166   6.150   6.560   9.951 -0.3892  0.1097 -0.0036
   24SAPC   H8R 3167   6.153   6.652  10.011 -0.8434  0.6648 -0.8216
   24SAPC   C29 3168   6.211   6.557   9.830 -0.7116 -1.0140 -0.2482
   24SAPC   H9R 3169   6.278   6.639   9.801  1.1302 -2.5493 -0.4895
   24SAPC  C210 3170   6.204   6.452   9.725  0.6061  0.6772 -0.2590
   24SAPC  H10R 3171   6.235   6.493   9.627  0.2703  1.8386  0.0986
   24SAPC  H10S 3172   6.099   6.421   9.708  0.9699 -1.3235  0.8435
   24SAPC  C211 3173   6.290   6.330   9.749 -0.0276  0.3221  0.4296
   24SAPC  H11R 3174   6.331   6.303   9.847  0.2289  1.6026  0.6926
   24SAPC  C212 3175   6.325   6.237   9.654 -0.4389  0.7993 -0.4717
   24SAPC  H12R 3176   6.400   6.161   9.681 -1.2417  0.6562  1.5026
   24SAPC  C213 3177   6.284   6.232   9.511 -0.0068 -0.3389 -0.0038
   24SAPC  H13R 3178   6.200   6.304   9.502  0.8829  0.6802 -0.3584
   24SAPC  H13S 3179   6.235   6.132   9.503 -2.7048  0.9140 -0.2188
   24SAPC  C214 3180   6.391   6.248   9.410 -0.1971 -0.0884 -0.2077
   24SAPC  H14R 3181   6.480   6.190   9.440  0.7939  1.1852 -0.5612
   24SAPC  C215 3182   6.402   6.326   9.301 -0.4622  0.4397  0.2371
   24SAPC  H15R 3183   6.498   6.328   9.248 -1.4070 -0.3296 -1.5926
   24SAPC  C216 3184   6.309   6.427   9.249  0.4323 -0.2242  0.1251
   24SAPC  H16R 3185   6.246   6.463   9.333  0.0667 -1.5789  0.4520
   24SAPC  H16S 3186   6.249   6.383   9.167  1.4796 -1.4084 -0.0395
   24SAPC  C217 3187   6.381   6.552   9.198  0.1160 -0.0482  0.8695
   24SAPC  H17R 3188   6.450   6.591   9.275  2.8181 -0.0875 -1.3503
   24SAPC  H17S 3189   6.306   6.630   9.171 -1.8919 -1.6442  1.5957
   24SAPC  C218 3190   6.464   6.525   9.071 -0.1834 -0.2776  0.5015
   24SAPC  H18R 3191   6.405   6.504   8.979  0.3195 -1.4081  0.4204
   24SAPC  H18S 3192   6.526   6.434   9.084  0.3492  0.1312  0.8794
   24SAPC  C219 3193   6.544   6.656   9.039  0.3539  0.2419 -0.0322
   24SAPC  H19R 3194   6.616   6.682   9.120  1.9161 -2.2323 -0.5238
   24SAPC  H19S 3195   6.475   6.742   9.020  0.0907  0.1823  0.6284
   24SAPC  C220 3196   6.625   6.634   8.908  0.4955 -0.4687 -0.1764
   24SAPC  H20R 3197   6.591   6.554   8.840 -1.0393  1.8940 -2.3801
   24SAPC  H20S 3198   6.728   6.606   8.940  0.5863  1.4994  1.4577
   24SAPC  H20T 3199   6.632   6.728   8.848 -0.7642  0.5088  1.1434
   24SAPC   C33 3200   7.078   6.546  10.341  0.2035 -0.6413 -0.0739
   24SAPC   H3X 3201   7.146   6.478  10.396 -0.5962  0.7383  2.7927
   24SAPC   H3Y 3202   7.096   6.638  10.400  0.0392  0.2616 -1.3987
   24SAPC   C34 3203   7.121   6.573  10.193 -0.3124  0.3455  0.2247
   24SAPC   H4X 3204   7.076   6.498  10.123 -2.4143  0.7478  1.0565
   24SAPC   H4Y 3205   7.231   6.578  10.202 -0.4223  0.9532  1.4424
   24SAPC   C35 3206   7.063   6.708  10.149 -0.3172  0.1407  0.2544
   24SAPC   H5X 3207   7.091   6.798  10.207 -1.7677  2.7818 -2.7994
   24SAPC   H5Y 3208   6.952   6.700  10.142 -0.3144  0.5069 -0.3235
   24SAPC   C36 3209   7.096   6.746   9.998 -0.1567 -0.7372  0.1106
   24SAPC   H6X 3210   7.046   6.674   9.931 -1.3026  0.5107 -0.4182
   24SAPC   H6Y 3211   7.206   6.731   9.991 -0.6405 -4.2106 -2.2873
   24SAPC   C37 3212   7.053   6.890   9.955 -0.1569  0.5631 -0.4875
   24SAPC   H7X 3213   7.099   6.955  10.032 -0.8122 -2.3797  2.6811
   24SAPC   H7Y 3214   6.943   6.909   9.954  0.0582  1.9044 -0.0422
   24SAPC   C38 3215   7.099   6.927   9.815 -0.1175  1.0760 -0.0743
   24SAPC   H8X 3216   7.201   6.885   9.798  0.1620  0.7827  2.0394
   24SAPC   H8Y 3217   7.096   7.038   9.810  0.9956  1.2481  2.1409
   24SAPC   C39 3218   7.002   6.868   9.710  0.4580  0.7252  0.3959
   24SAPC   H9X 3219   6.899   6.898   9.738  1.1127  0.5961  3.2263
   24SAPC   H9Y 3220   7.015   6.758   9.719  1.2786  0.7416 -0.3804
   24SAPC  C310 3221   7.030   6.922   9.569 -0.0990  0.2164  0.4115
   24SAPC  H10X 3222   7.138   6.899   9.556 -0.2195 -0.1770  0.0915
   24SAPC  H10Y 3223   7.010   7.031   9.567  0.3780  0.3042  0.1113
   24SAPC  C311 3224   6.933   6.858   9.458 -0.3028 -0.1102  0.0027
   24SAPC  H11X 3225   6.830   6.861   9.501 -1.0286 -1.2615 -1.5890
   24SAPC  H11Y 3226   6.960   6.751   9.456 -1.1883 -0.3500  0.4934
   24SAPC  C312 3227   6.950   6.915   9.318  0.0911 -0.4829  0.2620
   24SAPC  H12X 3228   7.055   6.920   9.282 -0.4224 -0.6669 -1.3406
   24SAPC  H12Y 3229   6.933   7.025   9.318 -1.5055 -0.6986 -0.6723
   24SAPC  C313 3230   6.862   6.834   9.219 -0.1333  0.1694  0.9182
   24SAPC  H13X 3231   6.761   6.817   9.263  0.4059 -1.6788  1.5505
   24SAPC  H13Y 3232   6.891   6.729   9.194  0.5954  0.6181 -0.1779
   24SAPC  C314 3233   6.828   6.911   9.090  0.5209  0.1775  0.4867
   24SAPC  H14X 3234   6.777   7.006   9.118  0.4303  0.4074 -0.3997
   24SAPC  H14Y 3235   6.755   6.853   9.028  0.2787 -1.0972  1.9118
   24SAPC  C315 3236   6.952   6.937   8.995 -0.3245  0.2045 -0.9666
   24SAPC  H15X 3237   7.012   6.844   8.986 -2.4308 -1.3849  0.4182
   24SAPC  H15Y 3238   7.010   7.015   9.050  0.9808 -1.2104 -0.2640
   24SAPC  C316 3239   6.924   6.982   8.856 -0.2014  0.5501  0.3292
   24SAPC  H16X 3240   6.838   7.050   8.870 -0.4631  0.2249  0.3273
   24SAPC  H16Y 3241   6.891   6.898   8.791 -0.6787  1.0636 -0.1002
   24SAPC  C317 3242   7.027   7.077   8.790 -0.1996  1.2014 -0.9518
   24SAPC  H17X 3243   7.126   7.026   8.786 -1.1114 -0.8079  0.2158
   24SAPC  H17Y 3244   7.039   7.168   8.852 -1.4287  0.9557 -0.3263
   24SAPC  C318 3245   6.987   7.122   8.653 -0.6185 -0.3381  0.5545
   24SAPC  H18X 3246   6.907   7.199   8.649 -0.0666  0.2107 -2.2496
   24SAPC  H18Y 3247   6.947   7.039   8.592 -0.7426 -0.6491  1.0546
   24SAPC  H18Z 3248   7.073   7.167   8.598 -0.7925 -3.0363 -2.1725
   25SAPC     N 3249   3.704   2.566   5.954  0.1771 -0.4837  0.3489
   25SAPC   C12 3250   3.794   2.626   6.064  0.0603  0.5039 -0.6252
   25SAPC  H12A 3251   3.753   2.609   6.162 -1.5096  0.9149 -1.1889
   25SAPC  H12B 3252   3.800   2.733   6.062 -2.7246  0.7300 -0.3440
   25SAPC   C13 3253   3.711   2.412   5.949 -0.3404 -0.5832 -0.8329
   25SAPC  H13A 3254   3.657   2.375   5.863 -3.3592 -0.6805  0.9723
   25SAPC  H13B 3255   3.812   2.375   5.946  0.1518  0.7546 -2.1666
   25SAPC  H13C 3256   3.651   2.372   6.029  2.3270  2.5434  3.1197
   25SAPC   C14 3257   3.558   2.616   5.962  0.5173  0.3881 -0.2563
   25SAPC  H14A 3258   3.508   2.566   6.043  3.1972  1.3405  2.1319
   25SAPC  H14B 3259   3.554   2.723   5.974  0.0373  0.2714  0.6887
   25SAPC  H14C 3260   3.503   2.585   5.874  0.0516  1.8110 -0.4796
   25SAPC   C15 3261   3.749   2.622   5.833 -0.1114 -0.0357  0.4477
   25SAPC  H15A 3262   3.726   2.727   5.823  1.7413  0.2331 -1.9580
   25SAPC  H15B 3263   3.853   2.618   5.805 -0.3446 -1.0524 -0.3643
   25SAPC  H15C 3264   3.703   2.562   5.756 -1.5718  0.3993  0.9458
   25SAPC   C11 3265   3.943   2.578   6.059 -0.1139 -0.3767 -0.7774
   25SAPC  H11A 3266   3.939   2.468   6.047  0.3038 -0.5144  0.2527
   25SAPC  H11B 3267   3.981   2.600   6.161  0.0742  1.1782 -1.1513
   25SAPC     P 3268   4.088   2.773   5.986 -0.4617 -0.3842 -0.1840
   25SAPC   O13 3269   4.173   2.805   5.865  0.7006 -0.2502  0.2424
   25SAPC   O14 3270   3.985   2.867   6.032 -0.4678 -0.3256 -1.1900
   25SAPC   O12 3271   4.012   2.641   5.951 -0.5495  0.2368 -0.0860
   25SAPC   O11 3272   4.175   2.731   6.104  0.1043  0.3153  0.0925
   25SAPC    C1 3273   4.278   2.625   6.098 -0.7930 -0.4827 -0.1458
   25SAPC    HA 3274   4.251   2.544   6.027  1.3270  0.6519 -2.3966
   25SAPC    HB 3275   4.375   2.666   6.062 -0.5219 -1.0876 -0.1070
   25SAPC    C2 3276   4.303   2.557   6.236  0.2340 -0.3300 -0.4212
   25SAPC    HS 3277   4.408   2.521   6.246 -0.1544 -1.3173  0.2523
   25SAPC   O21 3278   4.211   2.447   6.257  0.1047  0.1918  0.2633
   25SAPC   C21 3279   4.230   2.337   6.184 -0.3657 -0.1237  0.4384
   25SAPC   O22 3280   4.334   2.298   6.134 -0.1873 -0.0340  0.1298
   25SAPC   C22 3281   4.102   2.263   6.189  0.3404 -0.0877  0.4344
   25SAPC   H2R 3282   4.112   2.178   6.260 -0.7151  1.1128  2.0930
   25SAPC   H2S 3283   4.023   2.328   6.231  0.1101 -0.4967  0.6385
   25SAPC    C3 3284   4.286   2.656   6.359 -0.3048  0.2499 -0.1967
   25SAPC    HX 3285   4.180   2.688   6.355 -0.2186  0.5664  0.0580
   25SAPC    HY 3286   4.355   2.742   6.348  0.0831  0.3254  2.2806
   25SAPC   O31 3287   4.320   2.599   6.490 -0.6047  0.0071  0.4461
   25SAPC   C31 3288   4.256   2.643   6.601  0.7488 -0.0598 -0.5176
   25SAPC   O32 3289   4.163   2.722   6.596  0.7035 -0.0730 -0.2263
   25SAPC   C32 3290   4.317   2.586   6.725  0.3453  0.6577  0.0960
   25SAPC   H2X 3291   4.421   2.550   6.705 -0.6295 -1.4878 -1.5141
   25SAPC   H2Y 3292   4.264   2.492   6.751 -0.3297  0.6836 -1.1152
   25SAPC   C23 3293   4.055   2.213   6.047 -0.0577 -0.0085 -0.2243
   25SAPC   H3R 3294   4.130   2.144   6.004  1.8350  1.7119  0.1638
   25SAPC   H3S 3295   4.048   2.296   5.973  0.5006 -0.7641 -1.1494
   25SAPC   C24 3296   3.927   2.131   6.065 -0.1660  0.0584  0.5646
   25SAPC   H4R 3297   3.900   2.092   5.964  0.3784  0.9907  0.0460
   25SAPC   H4S 3298   3.850   2.206   6.092  0.0461  0.7553 -0.6721
   25SAPC   C25 3299   3.954   2.019   6.166 -0.9096  0.4515  0.3248
   25SAPC   H5R 3300   4.029   1.946   6.132  0.2244  1.3678  0.7844
   25SAPC   C26 3301   3.922   2.018   6.296 -0.4637  1.1405 -0.3727
   25SAPC   H6R 3302   3.934   1.923   6.350 -2.0546  0.2027 -1.5751
   25SAPC   C27 3303   3.832   2.123   6.360  0.1301 -0.0936  0.7945
   25SAPC   H7R 3304   3.726   2.121   6.326  0.5959  1.4938 -0.9189
   25SAPC   H7S 3305   3.876   2.219   6.326 -1.0442 -0.4981 -2.1513
   25SAPC   C28 3306   3.838   2.113   6.510  0.1730  0.4301 -0.2151
   25SAPC   H8R 3307   3.753   2.053   6.547  0.0774  0.5664 -0.2114
   25SAPC   C29 3308   3.915   2.184   6.592  0.0840  0.3076 -0.8494
   25SAPC   H9R 3309   3.898   2.165   6.699 -0.0702 -2.6454 -1.3247
   25SAPC  C210 3310   4.025   2.282   6.564  0.1511 -0.5969  1.0673
   25SAPC  H10R 3311   4.053   2.281   6.456 -2.4893  0.8936  0.2951
   25SAPC  H10S 3312   4.123   2.256   6.610  0.5716  1.2398  1.2821
   25SAPC  C211 3313   3.986   2.430   6.590  0.1848  0.6566 -0.0250
   25SAPC  H11R 3314   3.959   2.485   6.499 -1.4206 -0.3442 -0.1840
   25SAPC  C212 3315   3.974   2.486   6.711 -0.0206  1.2655  0.1648
   25SAPC  H12R 3316   3.924   2.584   6.709 -1.2116  0.6685 -1.0405
   25SAPC  C213 3317   3.988   2.419   6.845 -0.1267  0.1529  0.5701
   25SAPC  H13R 3318   4.053   2.475   6.916 -0.3573  0.3749  0.6102
   25SAPC  H13S 3319   4.028   2.317   6.829 -0.1128  0.4334 -1.3231
   25SAPC  C214 3320   3.851   2.403   6.915 -0.0477 -0.9516  0.5419
   25SAPC  H14R 3321   3.776   2.358   6.848 -0.2740  3.2771 -2.4324
   25SAPC  C215 3322   3.819   2.438   7.040 -0.7011  0.4599  0.2996
   25SAPC  H15R 3323   3.715   2.438   7.075 -0.0657 -0.6290  2.3379
   25SAPC  C216 3324   3.905   2.509   7.140 -0.2092  0.3615 -0.1938
   25SAPC  H16R 3325   3.845   2.589   7.189 -1.1289 -1.2643  1.4311
   25SAPC  H16S 3326   3.999   2.553   7.099  0.3888 -1.3190 -0.7218
   25SAPC  C217 3327   3.949   2.426   7.259  0.3350 -0.1516  0.0539
   25SAPC  H17R 3328   3.972   2.322   7.228 -2.4692 -1.2059  1.1406
   25SAPC  H17S 3329   3.855   2.411   7.316 -0.0377 -0.0270 -0.5205
   25SAPC  C218 3330   4.057   2.495   7.340  0.2531  0.7983  0.4542
   25SAPC  H18R 3331   4.024   2.599   7.358 -0.4540  0.7714 -0.5598
   25SAPC  H18S 3332   4.153   2.489   7.284  0.8281  0.5963  1.4524
   25SAPC  C219 3333   4.108   2.421   7.471 -0.3076 -0.0988  0.2800
   25SAPC  H19R 3334   4.109   2.311   7.452 -1.0428 -0.3305  1.4043
   25SAPC  H19S 3335   4.021   2.448   7.535 -0.1735  0.3246  0.2855
   25SAPC  C220 3336   4.242   2.473   7.531  0.4848 -0.2927 -0.5813
   25SAPC  H20R 3337   4.324   2.476   7.456 -1.3289  1.7134 -2.6190
   25SAPC  H20S 3338   4.261   2.430   7.632  1.0185 -0.7282 -0.8642
   25SAPC  H20T 3339   4.218   2.581   7.547  1.3699  0.9243 -5.6682
   25SAPC   C33 3340   4.300   2.680   6.845 -0.0592  0.2619 -0.1705
   25SAPC   H3X 3341   4.192   2.696   6.867  0.0424  3.8008 -1.4950
   25SAPC   H3Y 3342   4.324   2.785   6.815 -2.5103  0.4518 -1.7944
   25SAPC   C34 3343   4.380   2.635   6.969 -0.2392 -0.3536 -0.3106
   25SAPC   H4X 3344   4.483   2.603   6.942  0.6903  1.9558  0.2252
   25SAPC   H4Y 3345   4.326   2.553   7.020  1.5131 -1.4444 -0.1184
   25SAPC   C35 3346   4.407   2.751   7.065 -0.0923 -0.9932  0.1679
   25SAPC   H5X 3347   4.316   2.782   7.121  1.0320 -0.7578  1.9414
   25SAPC   H5Y 3348   4.453   2.833   7.006  1.8352 -1.5902  0.7474
   25SAPC   C36 3349   4.510   2.720   7.173 -0.2100 -0.4321  0.0725
   25SAPC   H6X 3350   4.606   2.698   7.121 -1.2539 -1.9977 -1.2817
   25SAPC   H6Y 3351   4.497   2.626   7.230  2.9422 -0.2543  1.2890
   25SAPC   C37 3352   4.537   2.844   7.259 -0.2815 -0.5020  0.4010
   25SAPC   H7X 3353   4.439   2.895   7.258 -0.2434 -0.3964 -1.6989
   25SAPC   H7Y 3354   4.603   2.912   7.201  0.0942 -0.2825  1.0656
   25SAPC   C38 3355   4.602   2.831   7.398  0.2034 -0.2458 -0.0508
   25SAPC   H8X 3356   4.582   2.732   7.446  1.3683 -0.2254  0.5003
   25SAPC   H8Y 3357   4.564   2.914   7.461 -0.8123  0.8550 -2.0276
   25SAPC   C39 3358   4.758   2.828   7.393  0.7444  0.1495  0.2662
   25SAPC   H9X 3359   4.800   2.927   7.362 -0.4320  0.6746  0.3158
   25SAPC   H9Y 3360   4.781   2.747   7.319 -2.5967 -0.4557 -0.2420
   25SAPC  C310 3361   4.804   2.790   7.532  0.7717 -1.8379  0.2433
   25SAPC  H10X 3362   4.746   2.703   7.569  0.8547 -2.1527 -0.3513
   25SAPC  H10Y 3363   4.789   2.874   7.603  2.4847 -0.7783 -0.5850
   25SAPC  C311 3364   4.955   2.739   7.547  0.3196 -0.0150 -0.6944
   25SAPC  H11X 3365   5.037   2.813   7.554  1.4050 -1.0608 -1.8210
   25SAPC  H11Y 3366   4.986   2.696   7.450  0.3958 -0.4724 -0.4728
   25SAPC  C312 3367   4.984   2.648   7.667  0.5206 -0.1721  0.0448
   25SAPC  H12X 3368   5.087   2.612   7.645  0.9001  0.0373  1.4039
   25SAPC  H12Y 3369   4.916   2.560   7.662 -0.1579  0.2337  1.7332
   25SAPC  C313 3370   4.982   2.719   7.805  0.6678  0.3695  1.0388
   25SAPC  H13X 3371   4.884   2.743   7.853  0.0640  0.5003 -0.2327
   25SAPC  H13Y 3372   5.046   2.809   7.792  0.5908  0.1893 -0.7390
   25SAPC  C314 3373   5.054   2.623   7.901 -0.4358 -0.5808  0.0594
   25SAPC  H14X 3374   5.139   2.564   7.860 -0.1851 -0.5780  0.5755
   25SAPC  H14Y 3375   4.969   2.556   7.927 -1.2635 -0.4580 -2.1332
   25SAPC  C315 3376   5.101   2.697   8.027 -0.1090 -0.2783  0.3958
   25SAPC  H15X 3377   5.038   2.788   8.029 -0.3041 -0.4102  2.8135
   25SAPC  H15Y 3378   5.205   2.731   8.010  0.0487  0.7656  3.0428
   25SAPC  C316 3379   5.080   2.618   8.159 -0.0047  0.1155  0.0493
   25SAPC  H16X 3380   5.139   2.524   8.160  0.9561  0.7085  0.3011
   25SAPC  H16Y 3381   4.974   2.586   8.169  0.0201  0.0304  0.0438
   25SAPC  C317 3382   5.140   2.703   8.278  0.4722  0.2353  1.2129
   25SAPC  H17X 3383   5.089   2.802   8.276  3.1774  1.7246 -1.7298
   25SAPC  H17Y 3384   5.247   2.712   8.250 -0.0375 -1.8775 -1.8534
   25SAPC  C318 3385   5.118   2.639   8.417 -0.2941 -0.4320  0.1382
   25SAPC  H18X 3386   5.163   2.539   8.432 -0.3152 -0.8301 -2.2395
   25SAPC  H18Y 3387   5.008   2.626   8.422 -0.4638  1.1398  1.8453
   25SAPC  H18Z 3388   5.144   2.714   8.496 -0.5282 -1.5069  1.2701
   26SAPC     N 3389   3.323   5.045   6.395 -0.0890  0.4677  0.1430
   26SAPC   C12 3390   3.195   5.090   6.451 -0.3284  0.0097 -0.3081
   26SAPC  H12A 3391   3.151   5.173   6.399 -0.9773 -1.2923 -1.9206
   26SAPC  H12B 3392   3.211   5.131   6.550 -1.0787  0.8568 -0.5246
   26SAPC   C13 3393   3.381   4.940   6.495  0.2719  0.7491  1.1361
   26SAPC  H13A 3394   3.388   4.994   6.588  0.1652  3.2201 -0.1853
   26SAPC  H13B 3395   3.309   4.861   6.511 -0.9359  1.2959 -1.0938
   26SAPC  H13C 3396   3.475   4.893   6.471  0.6313  1.0127  1.9807
   26SAPC   C14 3397   3.307   4.975   6.255  0.2975 -0.2599 -0.5282
   26SAPC  H14A 3398   3.400   4.927   6.226 -0.3342 -3.3693  2.0654
   26SAPC  H14B 3399   3.227   4.903   6.258  1.2961 -1.4068 -0.4801
   26SAPC  H14C 3400   3.281   5.044   6.176  1.1164  0.7135  0.0263
   26SAPC   C15 3401   3.423   5.152   6.386  0.7490  0.8542 -0.1546
   26SAPC  H15A 3402   3.390   5.224   6.312 -1.0364  0.2521  0.0094
   26SAPC  H15B 3403   3.437   5.203   6.481  0.2840  0.4707  0.1189
   26SAPC  H15C 3404   3.520   5.108   6.368 -0.0820 -1.0510 -0.1754
   26SAPC   C11 3405   3.085   4.983   6.464 -0.0474 -0.3085 -0.0388
   26SAPC  H11A 3406   3.006   5.023   6.530  0.0856  0.7950 -0.5342
   26SAPC  H11B 3407   3.126   4.893   6.514  0.2889 -0.1243  0.0169
   26SAPC     P 3408   2.959   4.822   6.296  0.2110 -0.1501  0.1724
   26SAPC   O13 3409   2.883   4.853   6.171 -0.4142 -0.4304 -0.1754
   26SAPC   O14 3410   3.051   4.710   6.288 -0.7007 -0.0604  0.2550
   26SAPC   O12 3411   3.036   4.952   6.332  0.1912 -0.8593 -0.1808
   26SAPC   O11 3412   2.861   4.796   6.409  0.2638 -0.5507 -1.1007
   26SAPC    C1 3413   2.856   4.673   6.485  0.4191  0.5131 -0.3609
   26SAPC    HA 3414   2.881   4.589   6.417 -0.0668  1.2570 -1.5006
   26SAPC    HB 3415   2.933   4.665   6.565 -0.1302  0.1043  0.1317
   26SAPC    C2 3416   2.716   4.657   6.546 -0.4585 -0.4536 -0.2875
   26SAPC    HS 3417   2.635   4.673   6.472  0.6750  1.2153 -1.2366
   26SAPC   O21 3418   2.703   4.761   6.646 -0.1688  0.2366  0.5874
   26SAPC   C21 3419   2.586   4.760   6.718 -0.0154 -0.4120  0.0955
   26SAPC   O22 3420   2.483   4.703   6.683 -0.7395  0.5048 -0.1547
   26SAPC   C22 3421   2.598   4.830   6.853  0.2912 -0.5459  0.0657
   26SAPC   H2R 3422   2.617   4.937   6.830 -1.6459  0.0362  0.9650
   26SAPC   H2S 3423   2.504   4.830   6.912 -0.0231  0.7262 -0.4067
   26SAPC    C3 3424   2.700   4.512   6.614 -0.4546 -0.3002  0.1950
   26SAPC    HX 3425   2.697   4.437   6.532 -1.0961 -1.3977  1.1958
   26SAPC    HY 3426   2.603   4.504   6.667 -0.1964 -3.3928  0.3721
   26SAPC   O31 3427   2.806   4.485   6.709  0.2642  0.6062 -0.0470
   26SAPC   C31 3428   2.889   4.383   6.684 -0.7460  0.2280 -0.0088
   26SAPC   O32 3429   2.919   4.341   6.572  0.0957  0.2019 -0.0554
   26SAPC   C32 3430   2.944   4.327   6.819 -0.2192 -0.1372  0.2780
   26SAPC   H2X 3431   3.013   4.405   6.857 -1.6071  0.3998  1.8471
   26SAPC   H2Y 3432   3.003   4.237   6.793  1.5237  1.4907 -1.7421
   26SAPC   C23 3433   2.711   4.763   6.937  0.0282 -0.1502 -0.0300
   26SAPC   H3R 3434   2.764   4.836   7.002 -0.7403  0.7331 -0.3714
   26SAPC   H3S 3435   2.787   4.728   6.864 -1.4585 -2.3468 -0.6371
   26SAPC   C24 3436   2.670   4.641   7.024  0.9114  0.0226 -1.3626
   26SAPC   H4R 3437   2.772   4.601   7.043  0.9001  1.0840  1.4275
   26SAPC   H4S 3438   2.604   4.578   6.961  0.7121 -0.3509 -0.7894
   26SAPC   C25 3439   2.603   4.682   7.157 -0.6641 -0.3419 -0.0037
   26SAPC   H5R 3440   2.498   4.707   7.138  0.0328  1.1995 -2.2573
   26SAPC   C26 3441   2.657   4.671   7.282 -0.2843 -0.4331 -0.5453
   26SAPC   H6R 3442   2.592   4.694   7.368 -2.1350  1.2787 -2.3114
   26SAPC   C27 3443   2.797   4.620   7.324  0.2844 -0.2725 -0.3949
   26SAPC   H7R 3444   2.872   4.679   7.266  1.8018 -0.5203  1.2581
   26SAPC   H7S 3445   2.827   4.517   7.296  0.2439  0.0711 -1.8264
   26SAPC   C28 3446   2.841   4.650   7.462 -0.0605  0.0090 -0.2045
   26SAPC   H8R 3447   2.920   4.726   7.467 -1.8435  1.9005  0.8277
   26SAPC   C29 3448   2.801   4.583   7.574 -0.0944 -0.5199 -0.6692
   26SAPC   H9R 3449   2.838   4.624   7.669  0.1803  0.9368 -1.3856
   26SAPC  C210 3450   2.695   4.467   7.584 -0.7324 -0.9562  0.6564
   26SAPC  H10R 3451   2.752   4.372   7.594 -0.9363 -1.6108 -3.0101
   26SAPC  H10S 3452   2.656   4.448   7.482  0.3717 -0.4183  0.1176
   26SAPC  C211 3453   2.587   4.494   7.687 -0.6355 -0.2171 -0.1612
   26SAPC  H11R 3454   2.508   4.561   7.650 -1.2853 -1.3789 -0.9319
   26SAPC  C212 3455   2.596   4.455   7.817  0.4439  0.4929 -0.5165
   26SAPC  H12R 3456   2.507   4.463   7.882 -0.8690 -0.3371 -2.1394
   26SAPC  C213 3457   2.712   4.373   7.872 -0.1285 -1.2152  0.3904
   26SAPC  H13R 3458   2.805   4.434   7.861 -0.7862  0.0530  1.4946
   26SAPC  H13S 3459   2.722   4.280   7.813 -1.9714  0.6635 -3.2223
   26SAPC  C214 3460   2.704   4.321   8.016 -0.7085  0.5220 -0.2257
   26SAPC  H14R 3461   2.620   4.251   8.027 -0.9344  0.7114 -0.7270
   26SAPC  C215 3462   2.776   4.360   8.126  0.0984  0.1171 -0.7207
   26SAPC  H15R 3463   2.769   4.313   8.225  0.2083  0.0519 -0.7444
   26SAPC  C216 3464   2.885   4.468   8.135 -1.0182 -0.0792 -0.4022
   26SAPC  H16R 3465   2.842   4.563   8.173  0.7016  0.2644  0.8209
   26SAPC  H16S 3466   2.918   4.493   8.032 -2.6519 -1.0100 -1.1968
   26SAPC  C217 3467   3.008   4.430   8.223  0.2956 -0.5122 -0.5260
   26SAPC  H17R 3468   3.059   4.340   8.183 -0.1034 -0.8079 -0.3738
   26SAPC  H17S 3469   2.982   4.407   8.328  0.5316 -0.7624 -0.5219
   26SAPC  C218 3470   3.112   4.541   8.212 -0.1002 -0.1617 -0.3319
   26SAPC  H18R 3471   3.080   4.630   8.271  0.1753  0.1242 -0.6023
   26SAPC  H18S 3472   3.121   4.573   8.106  1.1311 -2.0432 -0.8352
   26SAPC  C219 3473   3.252   4.496   8.269  0.4285 -0.0406  0.0643
   26SAPC  H19R 3474   3.299   4.593   8.298  1.4349 -0.8859  1.3672
   26SAPC  H19S 3475   3.327   4.443   8.207  3.5336  0.8070  2.8130
   26SAPC  C220 3476   3.244   4.430   8.404  0.7320  0.4156 -0.5853
   26SAPC  H20R 3477   3.158   4.464   8.466 -0.5943 -2.0613 -0.9242
   26SAPC  H20S 3478   3.342   4.448   8.454  2.2508  1.3035 -3.6223
   26SAPC  H20T 3479   3.225   4.322   8.389  1.3053  0.4519 -1.6699
   26SAPC   C33 3480   2.848   4.313   6.941 -0.1382  0.1776  0.3640
   26SAPC   H3X 3481   2.758   4.259   6.905 -0.0037 -0.4224  0.9107
   26SAPC   H3Y 3482   2.823   4.414   6.978 -1.4679 -0.6387  1.8246
   26SAPC   C34 3483   2.906   4.221   7.050 -0.1739 -0.2032  0.4744
   26SAPC   H4X 3484   2.961   4.138   7.001 -2.1061 -0.0932 -2.0649
   26SAPC   H4Y 3485   2.821   4.172   7.101 -0.1091  1.3152  2.1111
   26SAPC   C35 3486   2.996   4.294   7.151 -0.1750 -0.6052  0.3493
   26SAPC   H5X 3487   2.925   4.371   7.189 -1.6198 -1.3339 -0.7658
   26SAPC   H5Y 3488   3.087   4.335   7.102 -1.1943 -1.5148 -2.5574
   26SAPC   C36 3489   3.041   4.201   7.258 -0.4664  0.3041  0.2680
   26SAPC   H6X 3490   3.106   4.118   7.224  0.8260  0.7521  1.5125
   26SAPC   H6Y 3491   2.946   4.157   7.294 -0.1294 -1.6495 -1.0862
   26SAPC   C37 3492   3.124   4.269   7.371  0.1044  0.0529 -0.2680
   26SAPC   H7X 3493   3.057   4.351   7.404 -2.8334 -2.7218  1.2266
   26SAPC   H7Y 3494   3.226   4.305   7.344  0.2826 -0.0133  0.2974
   26SAPC   C38 3495   3.133   4.182   7.500 -0.7892 -0.1031 -0.0207
   26SAPC   H8X 3496   3.230   4.129   7.500  0.1077  1.4726 -0.4392
   26SAPC   H8Y 3497   3.055   4.102   7.502  0.8462 -1.7381  1.3274
   26SAPC   C39 3498   3.124   4.251   7.635 -0.9888 -0.7106  0.4552
   26SAPC   H9X 3499   3.038   4.322   7.630 -2.1777 -1.8079  3.4131
   26SAPC   H9Y 3500   3.211   4.319   7.647 -1.6550  0.1181  0.7763
   26SAPC  C310 3501   3.111   4.162   7.748 -0.3709  0.5945  0.3286
   26SAPC  H10X 3502   3.185   4.081   7.728  1.0686  1.5392  1.6545
   26SAPC  H10Y 3503   3.013   4.110   7.755  0.4410 -1.0491  0.0477
   26SAPC  C311 3504   3.171   4.220   7.878  0.6387 -0.3695 -0.4954
   26SAPC  H11X 3505   3.121   4.313   7.912 -0.4666 -0.2131 -2.4399
   26SAPC  H11Y 3506   3.280   4.242   7.878  0.2507  1.8748  0.8435
   26SAPC  C312 3507   3.152   4.123   8.001  0.2954  0.1640  0.5051
   26SAPC  H12X 3508   3.135   4.017   7.971  0.0690  0.6046 -1.0284
   26SAPC  H12Y 3509   3.057   4.151   8.053  0.1481  1.5835 -0.4694
   26SAPC  C313 3510   3.260   4.144   8.113 -0.7244  0.0814 -0.4167
   26SAPC  H13X 3511   3.230   4.232   8.173  0.1981  0.5772 -0.6638
   26SAPC  H13Y 3512   3.362   4.165   8.074 -0.4204 -0.9144 -0.1848
   26SAPC  C314 3513   3.281   4.020   8.195  0.0758 -1.1454 -0.0190
   26SAPC  H14X 3514   3.328   3.944   8.128 -2.2905 -0.6467 -2.4240
   26SAPC  H14Y 3515   3.186   3.973   8.227  0.0190 -0.8343  0.2725
   26SAPC  C315 3516   3.371   4.034   8.313 -0.2185  0.4203 -0.4114
   26SAPC  H15X 3517   3.326   4.117   8.372 -1.7810  0.5515 -1.7227
   26SAPC  H15Y 3518   3.475   4.065   8.289  0.3708 -0.2578  1.1609
   26SAPC  C316 3519   3.367   3.911   8.409  0.2597 -0.4259  0.4511
   26SAPC  H16X 3520   3.439   3.929   8.491  0.2257 -1.3583  0.7052
   26SAPC  H16Y 3521   3.396   3.824   8.346 -2.1425 -1.2935  0.4338
   26SAPC  C317 3522   3.233   3.876   8.470 -0.1623  0.4690  0.2183
   26SAPC  H17X 3523   3.149   3.887   8.399 -1.3079  0.9046  1.6024
   26SAPC  H17Y 3524   3.213   3.939   8.559 -1.6235 -0.3351  0.4974
   26SAPC  C318 3525   3.232   3.735   8.538  0.3668 -0.5365 -0.0188
   26SAPC  H18X 3526   3.126   3.725   8.571  0.6218 -1.1818  0.6287
   26SAPC  H18Y 3527   3.297   3.721   8.626 -3.3904  2.3910  3.6121
   26SAPC  H18Z 3528   3.229   3.657   8.458 -1.8752 -0.4566 -0.0915
   27SAPC     N 3529   1.445   4.008   6.490  0.1486 -0.4456  1.1348
   27SAPC   C12 3530   1.335   4.008   6.597 -0.0234 -0.2969  0.9490
   27SAPC  H12A 3531   1.368   3.957   6.686 -0.8157 -0.3752  1.2098
   27SAPC  H12B 3532   1.255   3.946   6.556 -1.0147  1.0942  0.7156
   27SAPC   C13 3533   1.470   3.871   6.424 -0.4561 -0.2307 -0.7277
   27SAPC  H13A 3534   1.524   3.871   6.330  2.1546 -0.2798  0.6930
   27SAPC  H13B 3535   1.512   3.806   6.499 -1.6945 -0.6142 -0.3310
   27SAPC  H13C 3536   1.371   3.829   6.410 -1.4262  0.7694  2.3089
   27SAPC   C14 3537   1.401   4.098   6.374 -0.3331  0.3079 -0.4609
   27SAPC  H14A 3538   1.479   4.092   6.299 -0.8927  0.2863 -1.0569
   27SAPC  H14B 3539   1.306   4.063   6.334 -0.1434 -1.0381  0.1975
   27SAPC  H14C 3540   1.410   4.201   6.403  3.0682 -0.2215  0.7159
   27SAPC   C15 3541   1.579   4.047   6.538  0.1728 -0.5232 -0.0730
   27SAPC  H15A 3542   1.612   3.978   6.614 -0.6789 -1.9059 -0.9101
   27SAPC  H15B 3543   1.650   4.029   6.459  0.5834  2.2841 -0.4471
   27SAPC  H15C 3544   1.576   4.152   6.563  0.2400 -0.3553 -0.7593
   27SAPC   C11 3545   1.282   4.148   6.635  0.1383 -0.1347 -0.1502
   27SAPC  H11A 3546   1.196   4.132   6.704  0.3304 -2.5833 -0.3862
   27SAPC  H11B 3547   1.229   4.191   6.547 -0.8059  0.3404  0.6348
   27SAPC     P 3548   1.419   4.237   6.832  0.1440  0.3491 -0.1600
   27SAPC   O13 3549   1.420   4.100   6.887  0.7136  0.4193 -0.0542
   27SAPC   O14 3550   1.540   4.315   6.854  0.5049 -0.3171  0.3649
   27SAPC   O12 3551   1.388   4.234   6.680 -0.1468  0.0821  0.1478
   27SAPC   O11 3552   1.300   4.316   6.896  0.6441 -0.7964 -0.0082
   27SAPC    C1 3553   1.301   4.459   6.896 -0.0978 -0.7547 -0.0373
   27SAPC    HA 3554   1.378   4.504   6.963 -2.0127  1.0545  1.0860
   27SAPC    HB 3555   1.326   4.492   6.793  2.0382 -0.1468  0.6254
   27SAPC    C2 3556   1.165   4.520   6.926  0.5188 -0.0873 -0.0403
   27SAPC    HS 3557   1.182   4.629   6.940  0.6891 -0.0025 -0.8899
   27SAPC   O21 3558   1.105   4.473   7.047 -0.1489  0.1580 -0.2864
   27SAPC   C21 3559   1.180   4.488   7.156  0.6502  0.0696 -0.1357
   27SAPC   O22 3560   1.259   4.577   7.177 -0.1432 -0.0192 -0.1300
   27SAPC   C22 3561   1.135   4.390   7.269 -0.1017 -0.1169 -0.0492
   27SAPC   H2R 3562   1.187   4.295   7.242 -1.2356 -0.4941 -0.9771
   27SAPC   H2S 3563   1.172   4.420   7.369  0.2036  1.7023 -0.6734
   27SAPC    C3 3564   1.072   4.509   6.804  0.1989 -0.0359  0.2820
   27SAPC    HX 3565   1.043   4.402   6.799  1.4045 -0.3812  0.1849
   27SAPC    HY 3566   1.120   4.545   6.710 -0.1642  1.7647  0.7498
   27SAPC   O31 3567   0.953   4.593   6.822 -0.4853  0.5376  0.3283
   27SAPC   C31 3568   0.837   4.559   6.767 -0.5040 -0.3196  0.2132
   27SAPC   O32 3569   0.825   4.463   6.692  0.2652 -0.0813  0.4100
   27SAPC   C32 3570   0.727   4.660   6.794 -0.4722 -1.0211 -0.0014
   27SAPC   H2X 3571   0.703   4.712   6.698 -2.9422 -2.6120 -0.3331
   27SAPC   H2Y 3572   0.757   4.742   6.862 -2.1439 -0.3213 -0.0426
   27SAPC   C23 3573   0.983   4.373   7.270 -0.6789 -0.2451  0.3391
   27SAPC   H3R 3574   0.948   4.331   7.174 -0.7007 -1.6202  0.9315
   27SAPC   H3S 3575   0.927   4.466   7.293 -1.3132 -0.8849  1.4742
   27SAPC   C24 3576   0.951   4.277   7.391  0.0022  0.2906 -0.2194
   27SAPC   H4R 3577   0.842   4.289   7.403 -0.2511 -2.7294  1.4531
   27SAPC   H4S 3578   0.994   4.321   7.484  0.1746 -0.8463  0.2531
   27SAPC   C25 3579   1.010   4.136   7.368  0.1264 -0.6833 -0.1125
   27SAPC   H5R 3580   1.034   4.118   7.262 -0.5434  1.1260 -0.6207
   27SAPC   C26 3581   1.036   4.051   7.466 -0.9673  0.7515  0.6530
   27SAPC   H6R 3582   1.078   3.954   7.434  1.4650  1.2413  2.0786
   27SAPC   C27 3583   1.024   4.072   7.620  0.6555 -0.0237  0.1604
   27SAPC   H7R 3584   1.036   4.179   7.643  0.0999  0.6793 -2.4639
   27SAPC   H7S 3585   1.109   4.030   7.677 -0.1013 -0.0638  1.2802
   27SAPC   C28 3586   0.884   4.032   7.660 -0.7292 -0.0639 -0.0969
   27SAPC   H8R 3587   0.797   4.037   7.592 -0.0888 -0.1937 -0.9406
   27SAPC   C29 3588   0.864   3.993   7.788  0.7065 -0.2842 -0.1957
   27SAPC   H9R 3589   0.764   3.970   7.826  1.4030 -4.4786 -0.4231
   27SAPC  C210 3590   0.970   3.977   7.895  0.5811  0.3671  0.8130
   27SAPC  H10R 3591   1.030   4.070   7.891 -1.3170  1.6011 -0.5656
   27SAPC  H10S 3592   1.038   3.894   7.864  2.0872  2.3601 -1.5767
   27SAPC  C211 3593   0.909   3.954   8.027 -0.4433 -0.4137 -0.5044
   27SAPC  H11R 3594   0.800   3.949   8.041 -0.0160 -2.0124  4.2197
   27SAPC  C212 3595   0.969   3.889   8.129  0.8478 -0.7427  0.9781
   27SAPC  H12R 3596   0.911   3.870   8.221 -1.6058  0.5522 -0.2253
   27SAPC  C213 3597   1.113   3.840   8.133 -0.4007  0.0791 -0.4930
   27SAPC  H13R 3598   1.163   3.880   8.042  0.6152  0.8184  0.3791
   27SAPC  H13S 3599   1.118   3.730   8.121  0.7025  0.1516 -0.7710
   27SAPC  C214 3600   1.192   3.884   8.251 -0.3447  0.5192  0.1894
   27SAPC  H14R 3601   1.207   3.993   8.253  0.6055  0.4096 -0.2163
   27SAPC  C215 3602   1.252   3.805   8.339 -0.0263 -0.7752  0.0902
   27SAPC  H15R 3603   1.281   3.865   8.427 -2.3977  1.7951 -0.7646
   27SAPC  C216 3604   1.248   3.658   8.353  0.5809 -0.5414  0.8246
   27SAPC  H16R 3605   1.349   3.618   8.328  1.6838  1.5783  1.6485
   27SAPC  H16S 3606   1.161   3.613   8.299 -0.2031  0.0614  1.5666
   27SAPC  C217 3607   1.214   3.623   8.503  0.3080  0.0863  0.2016
   27SAPC  H17R 3608   1.276   3.676   8.579  0.1610  0.6679 -0.0804
   27SAPC  H17S 3609   1.242   3.516   8.513  1.0861  0.1530 -1.0802
   27SAPC  C218 3610   1.070   3.650   8.548  0.2228  0.1628  1.0498
   27SAPC  H18R 3611   0.996   3.641   8.465  1.1992  0.7866  0.0843
   27SAPC  H18S 3612   1.067   3.757   8.577  0.0112  1.1196 -2.0431
   27SAPC  C219 3613   1.031   3.584   8.682 -0.3978  0.2835 -0.4991
   27SAPC  H19R 3614   1.108   3.609   8.758 -3.0718  1.4798  1.9864
   27SAPC  H19S 3615   1.039   3.474   8.672 -1.8683  0.0650  0.4658
   27SAPC  C220 3616   0.894   3.617   8.731  0.8865 -0.4103 -0.2618
   27SAPC  H20R 3617   0.866   3.581   8.833 -0.4968  0.5917 -0.2491
   27SAPC  H20S 3618   0.818   3.574   8.662 -0.3880  2.3953 -0.7333
   27SAPC  H20T 3619   0.873   3.725   8.718 -0.7273 -0.5653  0.7443
   27SAPC   C33 3620   0.606   4.611   6.866 -0.2570  0.0444 -0.0294
   27SAPC   H3X 3621   0.581   4.512   6.825 -0.0243 -0.0476  0.0468
   27SAPC   H3Y 3622   0.521   4.681   6.847  0.6646  1.1090 -0.3819
   27SAPC   C34 3623   0.629   4.581   7.015 -0.1328 -0.5047  0.2941
   27SAPC   H4X 3624   0.728   4.533   7.025 -0.0066  0.0272  1.7550
   27SAPC   H4Y 3625   0.557   4.500   7.041 -0.3346 -0.2770  0.4487
   27SAPC   C35 3626   0.606   4.699   7.113 -0.0799  0.6221 -0.7741
   27SAPC   H5X 3627   0.511   4.752   7.089 -0.5287  0.3648  0.3741
   27SAPC   H5Y 3628   0.689   4.772   7.104  1.8310 -1.2374  0.9109
   27SAPC   C36 3629   0.608   4.652   7.262 -0.2153 -0.0505 -0.3213
   27SAPC   H6X 3630   0.583   4.744   7.320 -2.3797 -1.7151  1.5960
   27SAPC   H6Y 3631   0.704   4.606   7.294 -0.8296  0.0446  1.8311
   27SAPC   C37 3632   0.496   4.559   7.300 -0.6136  0.0607 -0.2203
   27SAPC   H7X 3633   0.508   4.464   7.243 -2.7966 -0.9646  0.9068
   27SAPC   H7Y 3634   0.400   4.609   7.275 -0.5851  1.0398  1.4398
   27SAPC   C38 3635   0.481   4.507   7.450 -0.8579 -0.0519  0.2167
   27SAPC   H8X 3636   0.403   4.428   7.453  0.0594 -1.1865 -2.2451
   27SAPC   H8Y 3637   0.452   4.600   7.502  0.5771  0.4492  0.1708
   27SAPC   C39 3638   0.616   4.462   7.516 -0.5395 -0.1989  0.0889
   27SAPC   H9X 3639   0.697   4.537   7.504  0.0128 -0.8439 -0.3148
   27SAPC   H9Y 3640   0.645   4.364   7.473  1.6731  0.0855  0.8056
   27SAPC  C310 3641   0.606   4.449   7.670  0.5263 -0.6304  0.2642
   27SAPC  H10X 3642   0.522   4.388   7.708  1.2416 -2.1971 -0.5506
   27SAPC  H10Y 3643   0.582   4.554   7.695 -0.6143 -0.5710 -0.9670
   27SAPC  C311 3644   0.734   4.401   7.741  0.0111  0.0115  0.0811
   27SAPC  H11X 3645   0.818   4.473   7.732  1.7903 -1.8755  0.9030
   27SAPC  H11Y 3646   0.764   4.301   7.703  0.6475  0.5530 -0.8846
   27SAPC  C312 3647   0.703   4.393   7.891  0.4348  0.0410 -0.1124
   27SAPC  H12X 3648   0.626   4.315   7.912 -0.1431  0.5363 -0.3676
   27SAPC  H12Y 3649   0.631   4.474   7.916 -0.9835 -2.0444  3.3278
   27SAPC  C313 3650   0.816   4.389   8.000 -0.3642 -0.2005  0.1657
   27SAPC  H13X 3651   0.882   4.477   7.985  0.1576 -0.3960  1.2217
   27SAPC  H13Y 3652   0.869   4.292   7.990 -0.7434 -0.4169  0.2293
   27SAPC  C314 3653   0.749   4.393   8.144  0.0430 -0.2746 -0.2565
   27SAPC  H14X 3654   0.679   4.307   8.159 -2.6336  1.8707  0.3035
   27SAPC  H14Y 3655   0.697   4.490   8.160 -1.9844 -1.4762  0.9134
   27SAPC  C315 3656   0.850   4.383   8.260  0.6919  0.1331  0.0632
   27SAPC  H15X 3657   0.799   4.426   8.348 -1.8300  0.7666 -1.5716
   27SAPC  H15Y 3658   0.934   4.449   8.231  0.5916  0.6004  0.8164
   27SAPC  C316 3659   0.896   4.246   8.290 -1.0114  1.2613  0.3565
   27SAPC  H16X 3660   0.915   4.187   8.197 -1.8581  2.7575 -0.8142
   27SAPC  H16Y 3661   0.812   4.202   8.347 -1.1940 -0.7474 -1.3529
   27SAPC  C317 3662   1.026   4.247   8.372 -0.4548  0.3860  0.5371
   27SAPC  H17X 3663   1.122   4.279   8.328 -0.7440  0.4653 -0.0514
   27SAPC  H17Y 3664   1.039   4.138   8.387 -2.1460 -0.0365 -0.6637
   27SAPC  C318 3665   1.022   4.333   8.501  0.6229  0.2427 -0.2943
   27SAPC  H18X 3666   1.051   4.439   8.486 -0.7449  0.6128 -0.3896
   27SAPC  H18Y 3667   1.095   4.291   8.574  1.2524 -1.5889 -1.8938
   27SAPC  H18Z 3668   0.925   4.332   8.554  0.9055  0.3243  0.2300
   28SAPC     N 3669   0.139   6.681   5.966  1.1016  0.5461  0.9099
   28SAPC   C12 3670   0.188   6.595   6.082 -0.0948 -0.2923  0.5138
   28SAPC  H12A 3671   0.295   6.588   6.080  0.0465  1.4139 -0.0508
   28SAPC  H12B 3672   0.173   6.488   6.076 -1.4863 -0.0635 -1.1277
   28SAPC   C13 3673  -0.009   6.697   5.977  0.0101  0.3290  0.7100
   28SAPC  H13A 3674  -0.054   6.754   5.898  2.1108 -0.3330 -1.0589
   28SAPC  H13B 3675  -0.061   6.603   5.990  2.5481 -0.9770  2.1955
   28SAPC  H13C 3676  -0.035   6.745   6.071 -0.8764 -0.1504  0.7231
   28SAPC   C14 3677   0.202   6.816   5.968 -0.1414  0.4098  0.7277
   28SAPC  H14A 3678   0.304   6.797   5.941 -0.4380 -2.7253  1.4582
   28SAPC  H14B 3679   0.162   6.887   5.898  0.3896 -0.2481 -0.2562
   28SAPC  H14C 3680   0.194   6.862   6.066  0.0271  2.5926 -0.2246
   28SAPC   C15 3681   0.150   6.610   5.835  0.2861 -0.5508 -0.5025
   28SAPC  H15A 3682   0.104   6.512   5.838  1.3936 -1.1779 -2.3775
   28SAPC  H15B 3683   0.100   6.665   5.757 -0.4258  0.4359  0.6112
   28SAPC  H15C 3684   0.254   6.604   5.805  0.6186  1.4742  0.0841
   28SAPC   C11 3685   0.155   6.638   6.215  0.9922 -0.6599 -1.1693
   28SAPC  H11A 3686   0.165   6.556   6.289 -1.0373 -0.7308 -0.9059
   28SAPC  H11B 3687   0.048   6.667   6.225  1.2684 -0.1942  0.9431
   28SAPC     P 3688   0.386   6.734   6.278 -0.4417  0.3277 -0.3638
   28SAPC   O13 3689   0.456   6.695   6.157 -0.3502  0.4388  0.6381
   28SAPC   O14 3690   0.426   6.859   6.347  0.4338 -0.0631  0.1785
   28SAPC   O12 3691   0.230   6.752   6.248 -0.0363  0.1503 -0.0174
   28SAPC   O11 3692   0.382   6.604   6.378  0.3421  0.1473  0.5746
   28SAPC    C1 3693   0.321   6.630   6.511  0.5603  0.1931  0.6453
   28SAPC    HA 3694   0.240   6.706   6.512 -0.8948 -1.2973  1.4007
   28SAPC    HB 3695   0.285   6.532   6.551  0.8987  0.3003  1.2230
   28SAPC    C2 3696   0.432   6.670   6.610  0.1647 -0.5274  0.1693
   28SAPC    HS 3697   0.488   6.757   6.569 -3.0051  1.8752  0.6262
   28SAPC   O21 3698   0.513   6.555   6.628  0.2790 -0.5399 -0.1159
   28SAPC   C21 3699   0.639   6.562   6.588  0.4189 -0.2092  0.9496
   28SAPC   O22 3700   0.689   6.655   6.525 -0.4856 -0.0577 -0.6357
   28SAPC   C22 3701   0.715   6.440   6.632  0.0794 -0.2711 -0.2004
   28SAPC   H2R 3702   0.680   6.423   6.736 -0.0833  1.6374  0.1060
   28SAPC   H2S 3703   0.689   6.359   6.561 -0.1328 -0.0725 -0.3506
   28SAPC    C3 3704   0.372   6.712   6.747  0.4752  1.3590  0.0316
   28SAPC    HX 3705   0.458   6.729   6.815 -0.4323  0.3459  1.5056
   28SAPC    HY 3706   0.313   6.630   6.793  0.6321  0.3914 -1.4374
   28SAPC   O31 3707   0.277   6.818   6.740 -0.1539 -0.0911  0.0901
   28SAPC   C31 3708   0.331   6.936   6.715  0.0243  0.0165 -0.2413
   28SAPC   O32 3709   0.443   6.956   6.670 -0.4922 -0.1989  1.0223
   28SAPC   C32 3710   0.237   7.047   6.737  1.2873  1.1229 -0.5253
   28SAPC   H2X 3711   0.159   7.015   6.810  0.2315  0.0965 -2.0424
   28SAPC   H2Y 3712   0.185   7.069   6.642  0.1077 -1.1354 -0.4623
   28SAPC   C23 3713   0.870   6.448   6.642 -0.1012  0.1792  0.5529
   28SAPC   H3R 3714   0.904   6.512   6.558  1.5683  1.3581  2.0476
   28SAPC   H3S 3715   0.916   6.349   6.622 -1.8103 -0.7268  0.9147
   28SAPC   C24 3716   0.920   6.505   6.779 -0.2595  0.6552  0.3203
   28SAPC   H4R 3717   0.895   6.421   6.847  0.8996 -1.3512 -1.6239
   28SAPC   H4S 3718   1.031   6.505   6.768 -0.4168 -2.3757 -2.6736
   28SAPC   C25 3719   0.854   6.641   6.808  0.7684 -0.2309 -0.1553
   28SAPC   H5R 3720   0.877   6.724   6.739  0.3322  1.1254  1.2777
   28SAPC   C26 3721   0.759   6.667   6.898 -0.6856  0.0483 -0.2389
   28SAPC   H6R 3722   0.721   6.769   6.910 -2.4509 -0.6337  0.2475
   28SAPC   C27 3723   0.706   6.565   6.991 -1.2275 -0.4313  0.0966
   28SAPC   H7R 3724   0.781   6.484   7.006 -1.0019 -0.2207  0.1315
   28SAPC   H7S 3725   0.620   6.514   6.942 -1.5503  0.7958 -0.6634
   28SAPC   C28 3726   0.670   6.606   7.137 -0.6507 -0.3367 -0.1752
   28SAPC   H8R 3727   0.742   6.565   7.209  0.2407 -0.1908 -0.9545
   28SAPC   C29 3728   0.573   6.680   7.187 -0.7384 -0.2574 -0.1616
   28SAPC   H9R 3729   0.566   6.704   7.294  1.3516  1.5829 -0.3763
   28SAPC  C210 3730   0.476   6.744   7.097  0.1866  0.4742  0.6583
   28SAPC  H10R 3731   0.437   6.665   7.031 -1.0590 -0.9589  2.9674
   28SAPC  H10S 3732   0.531   6.816   7.032 -1.7832  0.9696 -0.5253
   28SAPC  C211 3733   0.371   6.827   7.163  0.9587 -0.5055  0.3379
   28SAPC  H11R 3734   0.406   6.925   7.198  0.4788  0.6423 -2.1767
   28SAPC  C212 3735   0.238   6.797   7.159 -0.0389  0.5483  0.6534
   28SAPC  H12R 3736   0.169   6.867   7.208 -1.2094  1.2146 -1.8130
   28SAPC  C213 3737   0.172   6.674   7.100  0.8276 -0.3376 -0.3275
   28SAPC  H13R 3738   0.204   6.657   6.995 -1.2697  0.8462 -1.2200
   28SAPC  H13S 3739   0.066   6.699   7.077  0.5612 -0.7206  0.4232
   28SAPC  C214 3740   0.183   6.546   7.185 -0.2462 -0.3554  0.3930
   28SAPC  H14R 3741   0.271   6.486   7.155  1.3120  1.9550  0.0526
   28SAPC  C215 3742   0.133   6.521   7.309  0.2007  0.0184  0.2881
   28SAPC  H15R 3743   0.156   6.427   7.362 -2.5239 -1.5686 -1.1267
   28SAPC  C216 3744   0.040   6.611   7.388  0.0101  0.3930  0.4756
   28SAPC  H16R 3745  -0.031   6.550   7.447  1.2822 -1.1370  0.4886
   28SAPC  H16S 3746  -0.011   6.678   7.315  2.1715  0.9055 -0.6571
   28SAPC  C217 3747   0.102   6.714   7.493  0.0098 -0.3990 -0.3571
   28SAPC  H17R 3748   0.184   6.772   7.446 -0.8066  0.7366 -0.4162
   28SAPC  H17S 3749   0.125   6.661   7.589  2.2626  2.9136  1.0918
   28SAPC  C218 3750  -0.002   6.823   7.526  0.8060 -0.8802 -0.6415
   28SAPC  H18R 3751  -0.098   6.786   7.567 -0.7966  0.1524 -3.2143
   28SAPC  H18S 3752  -0.032   6.862   7.426 -0.4925  1.7376  0.6630
   28SAPC  C219 3753   0.055   6.945   7.606  0.2764  0.2043 -0.3785
   28SAPC  H19R 3754   0.120   7.008   7.542 -0.3149  0.0860 -1.1017
   28SAPC  H19S 3755   0.117   6.909   7.691 -2.8404 -1.4234  1.3646
   28SAPC  C220 3756  -0.056   7.039   7.655 -0.2677 -0.4239 -0.4813
   28SAPC  H20R 3757  -0.110   7.083   7.569 -1.2412  1.3377  0.9697
   28SAPC  H20S 3758  -0.019   7.116   7.726 -0.6498 -0.2342 -0.4885
   28SAPC  H20T 3759  -0.133   6.985   7.715  1.3449 -0.4401  1.7161
   28SAPC   C33 3760   0.308   7.162   6.805  0.7676  0.2069  0.6547
   28SAPC   H3X 3761   0.381   7.202   6.731 -0.2999  0.6334 -0.1919
   28SAPC   H3Y 3762   0.368   7.124   6.890 -0.0526 -1.9748  0.3202
   28SAPC   C34 3763   0.220   7.288   6.820 -0.3251  0.1676  0.2366
   28SAPC   H4X 3764   0.151   7.293   6.733  2.2023 -1.5295 -2.0293
   28SAPC   H4Y 3765   0.281   7.380   6.813 -0.6863  0.3775 -0.1498
   28SAPC   C35 3766   0.139   7.286   6.945 -0.0374 -0.4511 -0.1056
   28SAPC   H5X 3767   0.075   7.194   6.944  0.8380 -1.0834 -1.4100
   28SAPC   H5Y 3768   0.078   7.378   6.954  0.4884 -0.0656 -0.4424
   28SAPC   C36 3769   0.225   7.272   7.071  0.1178 -0.5736  0.3531
   28SAPC   H6X 3770   0.280   7.369   7.078 -1.3932  0.1878  3.5981
   28SAPC   H6Y 3771   0.304   7.194   7.069  2.2856  1.2935  3.7387
   28SAPC   C37 3772   0.149   7.262   7.203  0.7798  0.2044  0.4670
   28SAPC   H7X 3773   0.087   7.174   7.231 -0.5308  1.3939  1.4313
   28SAPC   H7Y 3774   0.075   7.343   7.189  0.9962  0.2200 -0.6648
   28SAPC   C38 3775   0.241   7.292   7.328  0.2561  0.0373 -0.4124
   28SAPC   H8X 3776   0.316   7.373   7.319  1.0918 -0.4048  1.7590
   28SAPC   H8Y 3777   0.314   7.208   7.338  1.8344  1.4609  0.6972
   28SAPC   C39 3778   0.158   7.301   7.462 -0.1984 -0.1851  0.5904
   28SAPC   H9X 3779   0.102   7.206   7.470  2.1074 -1.5402  1.5042
   28SAPC   H9Y 3780   0.086   7.386   7.460  2.6820  2.4177 -0.3687
   28SAPC  C310 3781   0.244   7.326   7.584  0.3411  0.1122 -0.2652
   28SAPC  H10X 3782   0.178   7.337   7.672  0.3072  0.7106 -0.3590
   28SAPC  H10Y 3783   0.293   7.426   7.584  0.0664  0.2487 -0.1868
   28SAPC  C311 3784   0.344   7.205   7.616 -0.4167  0.2131 -0.1812
   28SAPC  H11X 3785   0.428   7.217   7.545 -0.6229  1.2551 -0.2626
   28SAPC  H11Y 3786   0.292   7.113   7.581 -0.6463 -0.2218  1.2076
   28SAPC  C312 3787   0.392   7.193   7.761 -0.2673 -0.6022 -0.6807
   28SAPC  H12X 3788   0.386   7.294   7.807  2.3595 -0.9836  0.7200
   28SAPC  H12Y 3789   0.498   7.159   7.770 -1.0616 -2.7931  1.1534
   28SAPC  C313 3790   0.311   7.093   7.840 -0.4607  0.1399 -0.0445
   28SAPC  H13X 3791   0.328   6.993   7.794 -0.1497 -0.5538  1.5084
   28SAPC  H13Y 3792   0.202   7.116   7.837 -0.5125 -0.1738 -0.6791
   28SAPC  C314 3793   0.350   7.082   7.989 -0.1221 -0.2279 -0.3168
   28SAPC  H14X 3794   0.323   7.177   8.040 -1.2066 -0.2843 -0.7474
   28SAPC  H14Y 3795   0.460   7.073   7.998  0.1207  2.4331  0.1963
   28SAPC  C315 3796   0.290   6.956   8.053  0.5614  0.1537 -0.2676
   28SAPC  H15X 3797   0.331   6.868   7.997 -1.9570 -1.0221 -0.3863
   28SAPC  H15Y 3798   0.180   6.953   8.041  0.2685 -0.7962  2.1072
   28SAPC  C316 3799   0.328   6.942   8.200  0.4257  0.0219 -0.9048
   28SAPC  H16X 3800   0.305   7.034   8.258  0.2027  0.3964 -1.5761
   28SAPC  H16Y 3801   0.437   6.920   8.197  0.2358 -1.5679  1.0347
   28SAPC  C317 3802   0.259   6.813   8.257  0.4612 -0.8086 -0.2559
   28SAPC  H17X 3803   0.284   6.719   8.202  0.5101  1.2703 -4.1009
   28SAPC  H17Y 3804   0.150   6.831   8.241  0.5907  0.3813  0.1414
   28SAPC  C318 3805   0.286   6.780   8.402 -0.3822 -0.3443  0.2011
   28SAPC  H18X 3806   0.244   6.866   8.459 -1.8183 -0.6750 -0.3148
   28SAPC  H18Y 3807   0.393   6.767   8.427 -0.3780  0.1416  0.4504
   28SAPC  H18Z 3808   0.234   6.686   8.430  1.4078 -1.9959 -1.6592
   29SAPC     N 3809   2.844   5.280   6.225  0.2704  0.1233  0.3882
   29SAPC   C12 3810   2.893   5.231   6.357  0.1790  0.4040 -0.0938
   29SAPC  H12A 3811   2.959   5.149   6.332 -1.0908 -0.8695  0.6163
   29SAPC  H12B 3812   2.812   5.182   6.408  0.5160 -1.4834 -1.2735
   29SAPC   C13 3813   2.769   5.405   6.258 -0.5723  0.0313  0.3768
   29SAPC  H13A 3814   2.686   5.390   6.327  0.8647 -1.5278  1.8672
   29SAPC  H13B 3815   2.841   5.465   6.312  0.1242  0.5772 -1.1131
   29SAPC  H13C 3816   2.731   5.467   6.178 -2.1701 -0.9560  0.3371
   29SAPC   C14 3817   2.957   5.323   6.128  0.1999  0.0763 -0.5272
   29SAPC  H14A 3818   3.020   5.395   6.178  0.7810 -1.4176  0.9844
   29SAPC  H14B 3819   3.016   5.236   6.103  0.1961  0.2946 -1.3375
   29SAPC  H14C 3820   2.926   5.364   6.033  1.3347  1.3289 -0.3927
   29SAPC   C15 3821   2.756   5.187   6.157  0.4210  0.4358  0.4373
   29SAPC  H15A 3822   2.718   5.232   6.067 -2.8942 -2.2080  0.2666
   29SAPC  H15B 3823   2.799   5.091   6.133 -0.9921  0.1188 -1.0089
   29SAPC  H15C 3824   2.662   5.167   6.208  0.6625 -2.1423  0.0308
   29SAPC   C11 3825   2.974   5.323   6.458 -0.1443 -0.1049 -0.6220
   29SAPC  H11A 3826   2.992   5.276   6.556 -0.1977  1.4116  0.1440
   29SAPC  H11B 3827   2.899   5.403   6.475 -0.8691 -0.4166 -2.1203
   29SAPC     P 3828   3.155   5.517   6.420 -0.2313 -0.0676  0.1218
   29SAPC   O13 3829   3.273   5.530   6.332 -0.6183  0.3714 -0.6531
   29SAPC   O14 3830   3.046   5.620   6.411  0.8800  0.3012 -0.1440
   29SAPC   O12 3831   3.097   5.372   6.403 -0.1652 -0.0107 -0.6280
   29SAPC   O11 3832   3.205   5.515   6.569  0.1735 -0.6448 -0.1018
   29SAPC    C1 3833   3.347   5.518   6.595  0.0806 -0.0263  0.3856
   29SAPC    HA 3834   3.389   5.429   6.544 -2.0041 -1.9470  1.8196
   29SAPC    HB 3835   3.404   5.606   6.559  1.2474 -1.6182 -1.9164
   29SAPC    C2 3836   3.378   5.498   6.749 -0.2982  0.6504  0.7225
   29SAPC    HS 3837   3.483   5.461   6.750  0.4561  2.5387 -0.8893
   29SAPC   O21 3838   3.287   5.403   6.807  0.1986  0.0208  0.3202
   29SAPC   C21 3839   3.289   5.276   6.766 -0.1981  1.0018  0.1135
   29SAPC   O22 3840   3.359   5.225   6.684  0.1809 -0.0297 -0.0692
   29SAPC   C22 3841   3.197   5.198   6.858 -0.0419 -0.3990 -0.1542
   29SAPC   H2R 3842   3.205   5.237   6.962  0.7479  0.9488 -0.6928
   29SAPC   H2S 3843   3.095   5.220   6.821 -1.0100 -1.9238  1.4773
   29SAPC    C3 3844   3.379   5.633   6.820  0.1531  0.7253 -0.1281
   29SAPC    HX 3845   3.276   5.674   6.812 -0.9546 -0.5704  4.5816
   29SAPC    HY 3846   3.450   5.702   6.770  2.9146 -1.9487 -0.1466
   29SAPC   O31 3847   3.415   5.611   6.958 -0.1759 -0.1739 -0.3842
   29SAPC   C31 3848   3.319   5.612   7.043  0.6727 -0.2196 -0.0521
   29SAPC   O32 3849   3.200   5.626   7.017  0.6075 -0.1422  0.3976
   29SAPC   C32 3850   3.374   5.610   7.180 -0.5765  0.8183 -0.6833
   29SAPC   H2X 3851   3.426   5.706   7.200 -0.5843  0.2966  2.2703
   29SAPC   H2Y 3852   3.452   5.531   7.182  0.2284  1.5987  1.5211
   29SAPC   C23 3853   3.215   5.043   6.853 -0.1893 -0.0541  0.1448
   29SAPC   H3R 3854   3.318   5.010   6.882  0.6075  0.4678 -1.9131
   29SAPC   H3S 3855   3.192   5.006   6.750  0.3477  2.1591 -0.8366
   29SAPC   C24 3856   3.114   4.967   6.949 -0.0199  0.4969  0.0143
   29SAPC   H4R 3857   3.016   4.991   6.904 -0.1454  0.1131  0.0790
   29SAPC   H4S 3858   3.123   4.992   7.057  3.2497 -2.7541  0.7160
   29SAPC   C25 3859   3.139   4.815   6.938  0.1327 -0.3172 -0.2295
   29SAPC   H5R 3860   3.112   4.773   6.840  0.2422  1.2986 -0.9869
   29SAPC   C26 3861   3.168   4.733   7.043  0.2259  0.0343  0.5918
   29SAPC   H6R 3862   3.163   4.627   7.015 -1.2450  0.2910 -0.1899
   29SAPC   C27 3863   3.196   4.770   7.185  0.3396  0.0885  0.2343
   29SAPC   H7R 3864   3.102   4.817   7.220 -1.1770 -0.5135 -2.6729
   29SAPC   H7S 3865   3.267   4.855   7.182 -1.3983  1.6038 -2.3603
   29SAPC   C28 3866   3.236   4.661   7.275  0.4683  0.3354  0.0678
   29SAPC   H8R 3867   3.156   4.587   7.293  1.6578 -1.4251 -1.5083
   29SAPC   C29 3868   3.352   4.627   7.333 -0.0499  0.1522  0.7557
   29SAPC   H9R 3869   3.363   4.538   7.397 -0.9665  0.1071  0.8640
   29SAPC  C210 3870   3.477   4.709   7.325 -0.0343 -0.3511  0.3301
   29SAPC  H10R 3871   3.466   4.773   7.235 -1.2894  0.8855  1.3245
   29SAPC  H10S 3872   3.569   4.648   7.315  0.6192  0.1720  2.5706
   29SAPC  C211 3873   3.498   4.805   7.446  0.4298 -0.2848 -0.0135
   29SAPC  H11R 3874   3.413   4.810   7.515  0.7618 -0.0508  0.3863
   29SAPC  C212 3875   3.601   4.876   7.484  0.1908 -0.4527  0.3173
   29SAPC  H12R 3876   3.597   4.944   7.571  0.7233  0.2602 -0.1986
   29SAPC  C213 3877   3.739   4.890   7.419 -0.2187  0.4531 -0.0113
   29SAPC  H13R 3878   3.760   4.995   7.389 -0.7211  1.1773  1.9794
   29SAPC  H13S 3879   3.731   4.838   7.321 -0.2148 -0.0090  0.2287
   29SAPC  C214 3880   3.859   4.824   7.487  0.2219  0.6343 -0.2765
   29SAPC  H14R 3881   3.840   4.779   7.585  2.9009 -0.0997 -0.0136
   29SAPC  C215 3882   3.989   4.839   7.446 -0.4735  0.3864  0.3279
   29SAPC  H15R 3883   4.071   4.787   7.496 -0.4619 -0.7030 -0.7760
   29SAPC  C216 3884   4.038   4.928   7.333 -0.5464  0.0222 -0.0544
   29SAPC  H16R 3885   3.954   4.966   7.272 -0.0839  0.7907 -0.2234
   29SAPC  H16S 3886   4.102   4.875   7.259 -0.1336  1.2452 -0.6015
   29SAPC  C217 3887   4.128   5.040   7.395  0.2476  0.4427 -0.0401
   29SAPC  H17R 3888   4.232   5.008   7.419 -0.1365 -0.8615 -0.0666
   29SAPC  H17S 3889   4.084   5.086   7.486 -0.9149  0.5284 -0.6262
   29SAPC  C218 3890   4.138   5.166   7.307  0.3842  0.2451  0.4826
   29SAPC  H18R 3891   4.200   5.236   7.367  1.1608  0.3790 -0.4491
   29SAPC  H18S 3892   4.038   5.209   7.288  1.1272  1.8127 -0.0465
   29SAPC  C219 3893   4.212   5.154   7.173 -0.4234 -0.3938 -0.5032
   29SAPC  H19R 3894   4.145   5.107   7.097  0.1537  1.9635 -2.5982
   29SAPC  H19S 3895   4.304   5.092   7.177  1.1446  1.8440 -0.0989
   29SAPC  C220 3896   4.271   5.287   7.123 -0.6828  0.6564  0.0757
   29SAPC  H20R 3897   4.333   5.331   7.204  0.4014  1.1790 -1.0044
   29SAPC  H20S 3898   4.189   5.352   7.085 -1.4667 -0.1653  0.3391
   29SAPC  H20T 3899   4.339   5.273   7.036 -0.3214 -0.6552  0.5434
   29SAPC   C33 3900   3.278   5.575   7.294 -0.0054 -0.0176  0.3909
   29SAPC   H3X 3901   3.258   5.467   7.277  1.8195 -0.1076 -1.5635
   29SAPC   H3Y 3902   3.188   5.639   7.304  1.2573  1.6684  1.6570
   29SAPC   C34 3903   3.349   5.586   7.426 -0.7735 -0.7560  0.1298
   29SAPC   H4X 3904   3.384   5.688   7.452 -0.1393 -1.8006  3.8589
   29SAPC   H4Y 3905   3.446   5.532   7.430  0.7212  1.5463 -1.9737
   29SAPC   C35 3906   3.265   5.543   7.551  0.3258  0.5093  0.2875
   29SAPC   H5X 3907   3.230   5.440   7.530  1.8335 -0.2761  1.4180
   29SAPC   H5Y 3908   3.178   5.611   7.539  0.5478  0.4884 -1.9545
   29SAPC   C36 3909   3.335   5.563   7.686 -0.6562 -0.5370  0.3216
   29SAPC   H6X 3910   3.366   5.670   7.693 -0.9350 -0.3669 -0.7326
   29SAPC   H6Y 3911   3.428   5.503   7.692 -0.6293 -0.4840  0.4210
   29SAPC   C37 3912   3.239   5.531   7.802 -0.0469 -0.8427 -0.1212
   29SAPC   H7X 3913   3.248   5.422   7.819  0.3346 -0.7463  0.2935
   29SAPC   H7Y 3914   3.134   5.557   7.777  0.4223 -1.0291 -2.5875
   29SAPC   C38 3915   3.281   5.598   7.935 -0.0490  0.1233 -0.2472
   29SAPC   H8X 3916   3.259   5.707   7.936 -1.6485 -0.1708  1.8153
   29SAPC   H8Y 3917   3.386   5.571   7.959 -0.5353  0.1642  2.1313
   29SAPC   C39 3918   3.196   5.540   8.046  0.3826  0.1440  0.2219
   29SAPC   H9X 3919   3.208   5.429   8.037  1.6813  0.3957 -1.9110
   29SAPC   H9Y 3920   3.093   5.577   8.025 -0.0137 -0.7899  0.4300
   29SAPC  C310 3921   3.249   5.586   8.176  0.4322 -0.6201  0.1287
   29SAPC  H10X 3922   3.271   5.695   8.166 -1.8026 -0.2519 -1.4230
   29SAPC  H10Y 3923   3.344   5.530   8.188  1.2829  0.3233 -1.8594
   29SAPC  C311 3924   3.146   5.553   8.283 -0.4386 -0.5284  0.4980
   29SAPC  H11X 3925   3.131   5.443   8.278  2.6101 -1.0058 -0.6786
   29SAPC  H11Y 3926   3.053   5.610   8.264  1.4605  2.5675 -0.2519
   29SAPC  C312 3927   3.196   5.576   8.423 -0.1514  0.7107 -0.0779
   29SAPC  H12X 3928   3.214   5.686   8.428 -1.1033  0.9266 -0.9793
   29SAPC  H12Y 3929   3.293   5.524   8.438  0.1260  0.9399 -1.0045
   29SAPC  C313 3930   3.105   5.554   8.542  0.3431  0.1330  0.0587
   29SAPC  H13X 3931   3.066   5.451   8.554  2.2414 -0.3773  2.8398
   29SAPC  H13Y 3932   3.026   5.630   8.524 -1.4862 -2.0499 -1.6370
   29SAPC  C314 3933   3.176   5.588   8.675  0.1762  0.1227 -0.1684
   29SAPC  H14X 3934   3.209   5.694   8.672  0.0011  0.1645 -2.3829
   29SAPC  H14Y 3935   3.263   5.526   8.706 -0.4502  0.3307  2.2543
   29SAPC  C315 3936   3.060   5.573   8.790 -0.3267 -0.3658 -0.6301
   29SAPC  H15X 3937   3.024   5.468   8.790 -0.6488 -0.2605 -1.2800
   29SAPC  H15Y 3938   2.974   5.632   8.752 -1.2452 -0.5301  1.0890
   29SAPC  C316 3939   3.100   5.618   8.928 -0.1231 -0.4503 -0.0458
   29SAPC  H16X 3940   3.150   5.717   8.916  1.2208 -1.1645 -0.5710
   29SAPC  H16Y 3941   3.175   5.544   8.962 -0.2395  0.2502  1.8878
   29SAPC  C317 3942   2.976   5.633   9.011 -0.1615 -0.2665 -0.3708
   29SAPC  H17X 3943   2.925   5.539   9.042 -0.8063  0.9428  2.5640
   29SAPC  H17Y 3944   2.909   5.703   8.958  1.0203  0.3325 -1.0996
   29SAPC  C318 3945   3.000   5.696   9.150  0.0648 -0.6786  0.0797
   29SAPC  H18X 3946   3.037   5.801   9.145 -2.0156  0.0555 -1.3782
   29SAPC  H18Y 3947   3.066   5.627   9.207  1.1407  0.9798  0.9365
   29SAPC  H18Z 3948   2.906   5.700   9.209 -1.7395 -1.0134 -2.5896
   30SAPC     N 3949   5.007   5.250   6.073 -0.8259 -0.3106 -0.4869
   30SAPC   C12 3950   5.139   5.222   6.143 -0.3418  0.3308  0.1289
   30SAPC  H12A 3951   5.187   5.310   6.184  0.6519 -0.6264  1.0727
   30SAPC  H12B 3952   5.211   5.188   6.071  0.6136 -0.8229  1.5923
   30SAPC   C13 3953   4.900   5.276   6.171  0.4417  0.6960 -0.3584
   30SAPC  H13A 3954   4.877   5.188   6.229  2.2336 -0.0561 -0.7339
   30SAPC  H13B 3955   4.926   5.350   6.245  0.6696 -0.8116  1.1407
   30SAPC  H13C 3956   4.804   5.301   6.128 -0.9959 -0.1298  2.1835
   30SAPC   C14 3957   5.027   5.374   5.982 -0.1429  1.1435 -0.1269
   30SAPC  H14A 3958   4.931   5.419   5.965  0.2722  2.0398 -0.1266
   30SAPC  H14B 3959   5.091   5.441   6.036  0.2977 -0.0762  0.9099
   30SAPC  H14C 3960   5.074   5.335   5.893 -1.2772 -3.1538  0.8932
   30SAPC   C15 3961   4.977   5.127   5.996 -0.2945 -1.2169 -0.0995
   30SAPC  H15A 3962   5.038   5.114   5.908 -0.9056 -2.7024 -0.3313
   30SAPC  H15B 3963   4.988   5.040   6.059 -0.3667 -0.7981  0.5022
   30SAPC  H15C 3964   4.873   5.121   5.968 -0.4240 -0.2265  0.1069
   30SAPC   C11 3965   5.122   5.126   6.267  0.2295  0.3807 -0.6783
   30SAPC  H11A 3966   5.066   5.171   6.353  1.4464 -0.8493  0.8216
   30SAPC  H11B 3967   5.226   5.123   6.306 -0.9243 -0.3020  2.6829
   30SAPC     P 3968   5.169   4.878   6.204 -0.0923  0.0985  0.0457
   30SAPC   O13 3969   5.094   4.788   6.109  0.0803  0.5788 -0.0868
   30SAPC   O14 3970   5.302   4.923   6.151 -0.1951 -0.3148  0.0517
   30SAPC   O12 3971   5.072   5.000   6.235 -0.0708 -0.2628 -1.4485
   30SAPC   O11 3972   5.183   4.820   6.351 -0.7007  0.2112  0.4098
   30SAPC    C1 3973   5.285   4.849   6.443  1.0057  0.4109 -0.0048
   30SAPC    HA 3974   5.321   4.751   6.480 -3.0946 -1.3166 -0.0547
   30SAPC    HB 3975   5.365   4.912   6.397  0.2847 -0.7834 -3.1654
   30SAPC    C2 3976   5.233   4.918   6.566  0.9645  0.6411 -0.1253
   30SAPC    HS 3977   5.169   4.995   6.516  1.0875 -0.1174 -1.5002
   30SAPC   O21 3978   5.340   4.975   6.639 -0.2731  0.1487 -0.0752
   30SAPC   C21 3979   5.332   5.093   6.686 -0.3300  0.9131  0.0209
   30SAPC   O22 3980   5.244   5.175   6.660  0.4417  0.3958  0.3625
   30SAPC   C22 3981   5.440   5.117   6.788 -0.4264  0.2411 -0.1290
   30SAPC   H2R 3982   5.435   5.052   6.879  2.2720 -0.7185 -0.5568
   30SAPC   H2S 3983   5.536   5.088   6.738  0.3898  0.5297  1.2207
   30SAPC    C3 3984   5.138   4.843   6.667  0.0746  0.0131 -0.2883
   30SAPC    HX 3985   5.166   4.739   6.695  0.1598  0.4449  1.3472
   30SAPC    HY 3986   5.053   4.826   6.598  1.0896  0.2386 -1.6178
   30SAPC   O31 3987   5.104   4.922   6.784  0.3253  0.0221 -0.1015
   30SAPC   C31 3988   4.990   4.976   6.787 -0.6808  0.0652  0.5147
   30SAPC   O32 3989   4.893   4.958   6.715 -0.1946 -0.5618 -0.1101
   30SAPC   C32 3990   4.999   5.092   6.892  0.3483  0.1903  0.2222
   30SAPC   H2X 3991   5.019   5.182   6.829 -1.4582 -0.7897 -1.8931
   30SAPC   H2Y 3992   5.086   5.070   6.958  1.1424  2.9399  0.2210
   30SAPC   C23 3993   5.444   5.266   6.834  0.1296 -0.2745 -0.2864
   30SAPC   H3R 3994   5.414   5.336   6.752  0.1402  1.4231  1.1166
   30SAPC   H3S 3995   5.548   5.284   6.868 -0.8347  0.1366  2.7095
   30SAPC   C24 3996   5.345   5.309   6.938  0.4056 -0.0097  0.0910
   30SAPC   H4R 3997   5.257   5.248   6.908 -1.3825  2.1795  0.5688
   30SAPC   H4S 3998   5.317   5.416   6.933  0.3777  0.0130  0.6815
   30SAPC   C25 3999   5.397   5.266   7.072  0.2321 -0.1137 -0.1032
   30SAPC   H5R 4000   5.475   5.188   7.074  0.3145 -0.0221  0.3408
   30SAPC   C26 4001   5.360   5.322   7.188  0.8480 -0.1655  0.4840
   30SAPC   H6R 4002   5.395   5.293   7.288 -2.0016  1.7628  2.1963
   30SAPC   C27 4003   5.261   5.432   7.201 -0.7739 -0.8222  0.0820
   30SAPC   H7R 4004   5.224   5.458   7.099  1.7986  0.5341 -0.5719
   30SAPC   H7S 4005   5.301   5.531   7.231 -0.5667 -1.1587  0.9429
   30SAPC   C28 4006   5.156   5.380   7.301 -0.0248 -1.2397  0.1872
   30SAPC   H8R 4007   5.098   5.295   7.262 -0.6086 -0.7710  0.0076
   30SAPC   C29 4008   5.132   5.435   7.418 -1.0214  0.1509  0.6394
   30SAPC   H9R 4009   5.060   5.387   7.486 -1.4377 -0.0621  0.0548
   30SAPC  C210 4010   5.209   5.542   7.488 -0.0992 -0.5139 -0.3534
   30SAPC  H10R 4011   5.156   5.639   7.478 -0.7624 -1.0819 -2.9711
   30SAPC  H10S 4012   5.305   5.553   7.433  0.6006  0.2232  0.9508
   30SAPC  C211 4013   5.222   5.517   7.638  0.0927  0.6662  0.1223
   30SAPC  H11R 4014   5.324   5.484   7.661  0.1866  0.6961 -0.2525
   30SAPC  C212 4015   5.134   5.520   7.733  0.0819 -0.7165 -0.6277
   30SAPC  H12R 4016   5.157   5.484   7.834  0.1251  0.7997 -0.0809
   30SAPC  C213 4017   4.988   5.554   7.707 -0.3341 -0.7935 -0.4370
   30SAPC  H13R 4018   4.962   5.566   7.600  0.5502 -0.2786 -0.6031
   30SAPC  H13S 4019   4.982   5.661   7.736  0.5566 -0.1556 -2.4714
   30SAPC  C214 4020   4.895   5.452   7.772  0.4363  0.8269 -0.1747
   30SAPC  H14R 4021   4.911   5.351   7.731  0.1758 -0.2243  2.1341
   30SAPC  C215 4022   4.808   5.476   7.869  0.4388 -0.1362 -0.6782
   30SAPC  H15R 4023   4.741   5.394   7.899 -0.9415  0.8757 -0.8931
   30SAPC  C216 4024   4.783   5.617   7.920 -0.4977  0.6310 -0.4639
   30SAPC  H16R 4025   4.877   5.676   7.913 -0.2283  0.1083 -1.4023
   30SAPC  H16S 4026   4.757   5.618   8.028  2.5353 -0.1616  0.3918
   30SAPC  C217 4027   4.672   5.688   7.847 -0.5576  0.3164  0.2555
   30SAPC  H17R 4028   4.695   5.697   7.739  2.8269  0.9192  0.9054
   30SAPC  H17S 4029   4.673   5.791   7.888  0.4714 -0.3135  1.9379
   30SAPC  C218 4030   4.536   5.623   7.887  0.4275  0.0721  0.0774
   30SAPC  H18R 4031   4.531   5.624   7.998  0.4672  0.4716  0.0780
   30SAPC  H18S 4032   4.537   5.516   7.859  0.4011 -0.0761  0.6330
   30SAPC  C219 4033   4.411   5.695   7.834 -0.2147 -0.1928  0.2250
   30SAPC  H19R 4034   4.422   5.703   7.724 -2.1498 -2.3338 -0.2195
   30SAPC  H19S 4035   4.410   5.798   7.877  1.9873  0.9494 -2.1803
   30SAPC  C220 4036   4.287   5.621   7.875 -0.6533  0.0319 -0.6410
   30SAPC  H20R 4037   4.267   5.619   7.984 -0.4917 -0.2223 -0.6139
   30SAPC  H20S 4038   4.302   5.514   7.848 -0.3122  0.5643 -2.7481
   30SAPC  H20T 4039   4.201   5.664   7.821 -1.1555 -0.9037 -0.6051
   30SAPC   C33 4040   4.872   5.109   6.982 -0.4388 -1.2268 -0.9420
   30SAPC   H3X 4041   4.784   5.105   6.916 -0.9835 -2.3106 -0.1825
   30SAPC   H3Y 4042   4.874   5.216   7.014  0.7553 -0.1648 -4.1769
   30SAPC   C34 4043   4.870   5.011   7.100  0.8129 -0.0497 -0.3359
   30SAPC   H4X 4044   4.867   4.908   7.060  0.2375 -0.4771  0.7510
   30SAPC   H4Y 4045   4.768   5.034   7.140  1.1751  0.5099  0.3002
   30SAPC   C35 4046   4.950   5.037   7.222  0.3164  0.5581  0.3831
   30SAPC   H5X 4047   4.933   5.139   7.264 -2.4937  0.1521  0.4321
   30SAPC   H5Y 4048   5.058   5.029   7.200 -0.0787  1.6337 -2.4529
   30SAPC   C36 4049   4.899   4.942   7.332 -0.1592  0.0951 -0.2391
   30SAPC   H6X 4050   4.911   4.834   7.308  0.4970  0.5596 -2.1590
   30SAPC   H6Y 4051   4.798   4.976   7.362  1.0777 -0.4651  6.2338
   30SAPC   C37 4052   4.971   4.950   7.472 -0.2590 -0.3576  0.1526
   30SAPC   H7X 4053   5.073   4.907   7.483 -0.4326 -0.6426  0.6852
   30SAPC   H7Y 4054   4.907   4.900   7.547 -3.3525  0.2943 -1.8864
   30SAPC   C38 4055   4.978   5.090   7.535  0.2602 -0.1770 -0.3702
   30SAPC   H8X 4056   4.875   5.132   7.538 -0.2471 -1.4378  1.5969
   30SAPC   H8Y 4057   5.039   5.162   7.476  1.9616 -0.3463  1.1100
   30SAPC   C39 4058   5.052   5.091   7.671 -0.7351 -0.8939  0.6123
   30SAPC   H9X 4059   5.064   5.199   7.696 -2.2254  0.0310 -2.2398
   30SAPC   H9Y 4060   5.144   5.029   7.668 -0.5386 -0.5832  0.0191
   30SAPC  C310 4061   4.974   5.026   7.786  1.0005 -0.3246 -0.3079
   30SAPC  H10X 4062   4.937   4.925   7.762  0.7835 -0.5123  0.7799
   30SAPC  H10Y 4063   4.888   5.093   7.808  0.2125 -0.9984 -1.2747
   30SAPC  C311 4064   5.067   4.999   7.913  0.4244  0.0861  0.6329
   30SAPC  H11X 4065   5.097   5.096   7.957  2.2155 -0.1432 -0.0065
   30SAPC  H11Y 4066   5.164   4.960   7.876 -0.4845 -0.4615 -1.2918
   30SAPC  C312 4067   4.994   4.926   8.029  0.1385  0.3768  0.3390
   30SAPC  H12X 4068   4.960   4.822   8.009 -0.7173  0.6245  0.4530
   30SAPC  H12Y 4069   4.899   4.983   8.042  0.9279  2.3020 -1.7639
   30SAPC  C313 4070   5.073   4.926   8.155 -0.9665  0.2725  0.1250
   30SAPC  H13X 4071   5.018   4.893   8.246 -0.0502 -2.8329 -0.3516
   30SAPC  H13Y 4072   5.091   5.035   8.170  0.0913  0.1692 -0.3230
   30SAPC  C314 4073   5.206   4.843   8.154 -0.0797  0.7940  0.2634
   30SAPC  H14X 4074   5.271   4.884   8.073 -0.5025 -1.0096 -1.0519
   30SAPC  H14Y 4075   5.173   4.739   8.134  1.0781  0.5065 -0.2925
   30SAPC  C315 4076   5.283   4.861   8.289 -0.5605 -0.1038 -0.4471
   30SAPC  H15X 4077   5.222   4.829   8.377 -2.6504  1.5978 -1.1700
   30SAPC  H15Y 4078   5.308   4.968   8.302 -2.0039  0.3253 -1.0436
   30SAPC  C316 4079   5.415   4.768   8.282  0.6452  0.6605  0.6020
   30SAPC  H16X 4080   5.494   4.823   8.226  0.9695 -0.6817 -0.3205
   30SAPC  H16Y 4081   5.381   4.681   8.222 -0.4465 -0.0601  2.1931
   30SAPC  C317 4082   5.470   4.733   8.412 -0.3571  0.0242 -0.8816
   30SAPC  H17X 4083   5.416   4.652   8.466  0.8699  0.1987  0.6849
   30SAPC  H17Y 4084   5.471   4.821   8.479  0.9770 -0.3468 -0.3698
   30SAPC  C318 4085   5.622   4.690   8.420 -0.4861  0.2603  0.2983
   30SAPC  H18X 4086   5.639   4.654   8.524 -0.0533  2.3301  1.0093
   30SAPC  H18Y 4087   5.683   4.782   8.401 -0.4882  0.3804  0.8535
   30SAPC  H18Z 4088   5.639   4.614   8.341 -1.0049 -0.6677  1.0648
   31SAPC     N 4089   5.682   4.758   6.128 -0.9514  0.2495  0.8287
   31SAPC   C12 4090   5.723   4.871   6.213  0.0349 -0.1851  0.2532
   31SAPC  H12A 4091   5.656   4.951   6.187  0.2469  0.2401  0.9985
   31SAPC  H12B 4092   5.828   4.894   6.202 -0.4837  2.7575  0.8322
   31SAPC   C13 4093   5.687   4.805   5.986 -0.4527  0.7701 -0.5407
   31SAPC  H13A 4094   5.664   4.719   5.926 -0.6511 -0.8439  1.7011
   31SAPC  H13B 4095   5.604   4.869   5.960  0.0147  0.7963 -2.0542
   31SAPC  H13C 4096   5.781   4.855   5.967  0.4918 -0.8048 -0.2217
   31SAPC   C14 4097   5.792   4.645   6.126  0.2695  0.1332 -0.2919
   31SAPC  H14A 4098   5.767   4.557   6.069 -2.8237  0.4872  0.3525
   31SAPC  H14B 4099   5.882   4.697   6.097  1.0429  1.0252  3.2598
   31SAPC  H14C 4100   5.799   4.605   6.226  0.2364 -1.5723 -0.9368
   31SAPC   C15 4101   5.550   4.698   6.161 -0.3873 -0.8285 -0.0554
   31SAPC  H15A 4102   5.483   4.782   6.177  0.7950  0.5578 -1.9148
   31SAPC  H15B 4103   5.506   4.639   6.081  1.4115 -0.1656 -1.6173
   31SAPC  H15C 4104   5.547   4.646   6.255 -1.3060 -0.1489  0.3097
   31SAPC   C11 4105   5.717   4.840   6.367  0.1054 -0.9264  0.0019
   31SAPC  H11A 4106   5.618   4.792   6.385 -0.1808 -1.4451 -2.6090
   31SAPC  H11B 4107   5.723   4.937   6.421 -0.6068  0.0629 -1.6094
   31SAPC     P 4108   5.962   4.790   6.430 -0.1995 -0.1384 -0.2348
   31SAPC   O13 4109   6.038   4.662   6.445 -0.1304  0.3192  0.2503
   31SAPC   O14 4110   6.005   4.873   6.322 -0.7665 -0.9003  0.1602
   31SAPC   O12 4111   5.814   4.747   6.414 -0.5212 -0.7444 -0.5993
   31SAPC   O11 4112   5.967   4.863   6.568  0.5623 -0.0907  0.1735
   31SAPC    C1 4113   5.865   4.828   6.658  0.1762 -0.2407 -0.5667
   31SAPC    HA 4114   5.765   4.860   6.623  0.2550  0.1787 -0.4181
   31SAPC    HB 4115   5.863   4.719   6.679 -2.9277 -0.0764  0.4461
   31SAPC    C2 4116   5.891   4.905   6.794  0.1352  0.3969  0.0401
   31SAPC    HS 4117   5.897   5.012   6.764  3.2091  0.6223  1.0968
   31SAPC   O21 4118   6.011   4.853   6.849  0.4505 -0.1547  0.3551
   31SAPC   C21 4119   6.060   4.922   6.953  0.1700 -0.3005  1.1070
   31SAPC   O22 4120   6.048   5.041   6.976  0.7843  0.2240 -0.7099
   31SAPC   C22 4121   6.166   4.828   7.015 -0.3923 -0.1984 -0.4377
   31SAPC   H2R 4122   6.138   4.724   6.984 -1.0432  0.1492 -1.0501
   31SAPC   H2S 4123   6.266   4.845   6.969  0.5686  0.3647  1.7711
   31SAPC    C3 4124   5.770   4.888   6.895 -0.6618 -0.8670 -0.2699
   31SAPC    HX 4125   5.773   4.783   6.929 -3.0339 -0.9123 -0.0103
   31SAPC    HY 4126   5.670   4.916   6.855 -0.6421  0.5810  0.6317
   31SAPC   O31 4127   5.774   4.968   7.015  0.0891  0.2136  0.0407
   31SAPC   C31 4128   5.769   5.107   6.992 -0.2558  0.5403 -0.3622
   31SAPC   O32 4129   5.746   5.163   6.887 -0.2977  0.3472 -0.3733
   31SAPC   C32 4130   5.809   5.191   7.122 -0.3597  0.1735 -0.1846
   31SAPC   H2X 4131   5.786   5.295   7.091 -0.2342 -0.0916 -1.2161
   31SAPC   H2Y 4132   5.919   5.185   7.128 -0.3173  1.2797  0.3682
   31SAPC   C23 4133   6.173   4.838   7.168 -1.0623  0.2864  0.6932
   31SAPC   H3R 4134   6.223   4.748   7.210 -0.4162 -0.5443 -1.7107
   31SAPC   H3S 4135   6.067   4.831   7.202 -1.3402  1.2337  0.0697
   31SAPC   C24 4136   6.238   4.958   7.230  0.1783  0.0272 -0.0997
   31SAPC   H4R 4137   6.222   4.952   7.340 -0.8865 -0.7798 -0.2854
   31SAPC   H4S 4138   6.171   5.038   7.191  0.6724 -0.5224 -2.1412
   31SAPC   C25 4139   6.375   4.987   7.191 -0.6003 -0.2345 -0.0767
   31SAPC   H5R 4140   6.386   5.042   7.097 -2.6078  0.2786 -0.0545
   31SAPC   C26 4141   6.488   4.980   7.270  0.0073 -0.3955  0.8518
   31SAPC   H6R 4142   6.585   4.999   7.220 -0.8262 -0.7143 -0.9426
   31SAPC   C27 4143   6.486   4.943   7.417  0.2584 -0.6085 -0.1068
   31SAPC   H7R 4144   6.420   4.855   7.429  0.2282 -0.6770 -0.7541
   31SAPC   H7S 4145   6.436   5.026   7.473 -0.2297  0.0254 -1.4298
   31SAPC   C28 4146   6.628   4.901   7.470  0.4026 -0.5109  0.0569
   31SAPC   H8R 4147   6.698   4.858   7.397  0.2087 -0.5678 -0.0959
   31SAPC   C29 4148   6.669   4.897   7.598 -0.8830 -0.7171 -0.0639
   31SAPC   H9R 4149   6.771   4.861   7.616  0.1352  1.7380 -0.4876
   31SAPC  C210 4150   6.590   4.930   7.724 -0.7611  0.7065 -0.0377
   31SAPC  H10R 4151   6.483   4.904   7.709 -0.4407  0.2675 -1.7743
   31SAPC  H10S 4152   6.591   5.041   7.730 -2.4011  0.7448  0.0196
   31SAPC  C211 4153   6.640   4.877   7.860  1.0074  1.0355  0.7340
   31SAPC  H11R 4154   6.685   4.777   7.855 -2.6799 -0.7624 -1.2096
   31SAPC  C212 4155   6.617   4.941   7.981  0.4847 -0.5901 -0.4117
   31SAPC  H12R 4156   6.656   4.895   8.073  2.3455  2.4406  0.4457
   31SAPC  C213 4157   6.543   5.070   7.994 -0.5549  0.2617  0.2652
   31SAPC  H13R 4158   6.436   5.045   7.979 -0.4310 -1.4958  1.8283
   31SAPC  H13S 4159   6.573   5.144   7.917 -2.8935  2.3785  1.2649
   31SAPC  C214 4160   6.586   5.120   8.135  0.8944  0.3320  0.3449
   31SAPC  H14R 4161   6.673   5.188   8.135 -1.1849  3.2298 -1.4864
   31SAPC  C215 4162   6.522   5.090   8.249  0.2865 -0.2501  0.4644
   31SAPC  H15R 4163   6.562   5.115   8.349  0.0322  0.4496  0.3992
   31SAPC  C216 4164   6.405   4.998   8.277  0.9040 -0.4238 -0.5256
   31SAPC  H16R 4165   6.450   4.912   8.331  0.1925 -1.3539 -1.3737
   31SAPC  H16S 4166   6.357   4.966   8.182 -0.5800 -2.6536  0.8935
   31SAPC  C217 4167   6.302   5.069   8.364  0.7793 -0.5887 -0.2332
   31SAPC  H17R 4168   6.240   5.137   8.302 -0.6400 -0.7748  0.9222
   31SAPC  H17S 4169   6.343   5.123   8.451 -1.1175 -0.0452  0.3653
   31SAPC  C218 4170   6.204   4.974   8.421  0.3769  0.7200  0.2296
   31SAPC  H18R 4171   6.248   4.910   8.500  0.8576  2.2186  1.2132
   31SAPC  H18S 4172   6.170   4.908   8.338  0.4506  0.6436  0.2612
   31SAPC  C219 4173   6.082   5.036   8.488 -0.6797  0.0954  0.4270
   31SAPC  H19R 4174   6.121   5.093   8.575  1.2305  1.3164 -1.1509
   31SAPC  H19S 4175   6.014   4.953   8.516 -1.1097 -0.0576 -0.9905
   31SAPC  C220 4176   6.010   5.133   8.396  0.2986  0.0024  0.0468
   31SAPC  H20R 4177   6.077   5.217   8.369 -0.9224  1.0164  0.0364
   31SAPC  H20S 4178   5.923   5.173   8.453  1.0278  0.6494  0.7344
   31SAPC  H20T 4179   5.978   5.075   8.307  0.6059  0.2000 -0.1923
   31SAPC   C33 4180   5.747   5.155   7.259  0.7895  1.1570 -0.4991
   31SAPC   H3X 4181   5.803   5.063   7.287 -1.8402 -0.3405  0.1691
   31SAPC   H3Y 4182   5.638   5.138   7.245  0.6088  1.7014  0.1786
   31SAPC   C34 4183   5.770   5.255   7.376 -0.1473 -0.6544  0.3898
   31SAPC   H4X 4184   5.881   5.260   7.381 -0.2053 -0.7464  2.5442
   31SAPC   H4Y 4185   5.720   5.210   7.464 -0.1950  0.5410  0.9988
   31SAPC   C35 4186   5.709   5.394   7.342  0.4667 -0.0441 -0.4423
   31SAPC   H5X 4187   5.603   5.371   7.317  0.1794  0.0190  0.6497
   31SAPC   H5Y 4188   5.757   5.427   7.248  0.3607  0.1906 -0.4145
   31SAPC   C36 4189   5.732   5.500   7.454  0.2927  0.0676  0.3379
   31SAPC   H6X 4190   5.670   5.475   7.542  0.3224 -1.4656 -0.0493
   31SAPC   H6Y 4191   5.686   5.597   7.426  0.2498  0.2956  1.1794
   31SAPC   C37 4192   5.877   5.526   7.496 -1.0490 -0.0584  0.3722
   31SAPC   H7X 4193   5.942   5.543   7.408 -1.7162 -0.6802 -0.2490
   31SAPC   H7Y 4194   5.918   5.432   7.539 -3.8784 -1.1214  0.9306
   31SAPC   C38 4195   5.887   5.629   7.608  0.1612  0.3892 -0.2107
   31SAPC   H8X 4196   5.815   5.592   7.684 -0.0886  3.2956  1.1069
   31SAPC   H8Y 4197   5.854   5.733   7.588 -0.0342  0.3910  0.1193
   31SAPC   C39 4198   6.025   5.640   7.675 -0.4110 -0.2076 -0.4992
   31SAPC   H9X 4199   6.107   5.660   7.604  1.0880 -1.8481  0.6805
   31SAPC   H9Y 4200   6.035   5.533   7.705  0.1904 -0.4795 -1.6135
   31SAPC  C310 4201   6.037   5.733   7.793 -0.0939 -0.0198  0.3545
   31SAPC  H10X 4202   6.048   5.837   7.757 -0.9969  0.1519  0.5555
   31SAPC  H10Y 4203   6.134   5.712   7.842  0.3670  0.1290 -0.4865
   31SAPC  C311 4204   5.918   5.728   7.890  0.5325 -0.2465 -0.2571
   31SAPC  H11X 4205   5.881   5.624   7.906 -1.0602  0.5344  1.5356
   31SAPC  H11Y 4206   5.834   5.790   7.852  0.3049 -0.6155 -0.3639
   31SAPC  C312 4207   5.963   5.785   8.024 -0.5795  0.8699 -0.0553
   31SAPC  H12X 4208   6.002   5.888   8.017 -0.6731  1.0861  1.9890
   31SAPC  H12Y 4209   6.042   5.718   8.067 -0.9572  1.1467  1.1023
   31SAPC  C313 4210   5.849   5.793   8.130 -0.0843 -0.6576 -0.2097
   31SAPC  H13X 4211   5.793   5.698   8.148 -0.7038  0.0986  2.1819
   31SAPC  H13Y 4212   5.772   5.859   8.085 -0.0660  0.9505  1.9937
   31SAPC  C314 4213   5.887   5.861   8.261 -0.1133 -0.2063  0.1393
   31SAPC  H14X 4214   5.971   5.929   8.237 -0.0140 -0.9345 -1.7400
   31SAPC  H14Y 4215   5.933   5.792   8.335  1.3715  3.4738  2.9618
   31SAPC  C315 4216   5.782   5.955   8.328  0.5831 -0.0418 -0.2447
   31SAPC  H15X 4217   5.736   6.012   8.244 -1.5294  1.6814  1.9101
   31SAPC  H15Y 4218   5.831   6.027   8.397  0.1671 -0.3277  0.3545
   31SAPC  C316 4219   5.662   5.883   8.397  0.0945 -0.6265  0.4426
   31SAPC  H16X 4220   5.704   5.800   8.459  0.9339  0.6259  1.6392
   31SAPC  H16Y 4221   5.602   5.835   8.317 -0.5321  1.0924 -0.1656
   31SAPC  C317 4222   5.567   5.979   8.470 -0.2725  0.3062  0.5029
   31SAPC  H17X 4223   5.547   6.068   8.406  3.1951 -0.1097 -1.3978
   31SAPC  H17Y 4224   5.638   6.006   8.551 -2.5156 -1.3351  3.1840
   31SAPC  C318 4225   5.449   5.908   8.536  0.6626  0.7142  0.4813
   31SAPC  H18X 4226   5.403   5.835   8.467  0.0476 -1.3644  2.9360
   31SAPC  H18Y 4227   5.382   5.986   8.579  1.9177  1.4539  1.1796
   31SAPC  H18Z 4228   5.486   5.843   8.619  2.2307  1.3077  0.2959
   32SAPC     N 4229   6.421   0.329   5.676 -0.0917 -0.2241  0.2518
   32SAPC   C12 4230   6.310   0.345   5.782  0.5472 -0.4525 -0.4023
   32SAPC  H12A 4231   6.218   0.315   5.734  0.7515 -2.5143  0.3596
   32SAPC  H12B 4232   6.293   0.450   5.796 -2.1033 -0.7901 -0.5213
   32SAPC   C13 4233   6.555   0.383   5.726 -0.0279  0.0457 -0.4182
   32SAPC  H13A 4234   6.549   0.490   5.726 -2.1829 -0.0304  0.4895
   32SAPC  H13B 4235   6.569   0.345   5.826 -0.5281  1.5525  0.2509
   32SAPC  H13C 4236   6.642   0.363   5.664 -0.1057 -1.0311 -0.2140
   32SAPC   C14 4237   6.435   0.187   5.634 -0.6765 -0.4462  0.1346
   32SAPC  H14A 4238   6.462   0.136   5.725  0.5845  1.5875  0.9656
   32SAPC  H14B 4239   6.340   0.154   5.595 -0.4171 -1.1120  0.0581
   32SAPC  H14C 4240   6.501   0.183   5.549  0.4195  2.7779  0.6939
   32SAPC   C15 4241   6.382   0.402   5.552 -0.6375 -0.1652  0.0256
   32SAPC  H15A 4242   6.295   0.368   5.497 -1.3201  3.0986 -1.1536
   32SAPC  H15B 4243   6.352   0.505   5.565  0.7623  0.4115 -1.0210
   32SAPC  H15C 4244   6.464   0.411   5.483 -1.3299 -0.5945 -0.8736
   32SAPC   C11 4245   6.341   0.280   5.924 -0.1768  0.7135  0.4452
   32SAPC  H11A 4246   6.421   0.334   5.979  0.9728 -1.4664  1.0654
   32SAPC  H11B 4247   6.376   0.175   5.915 -0.7734  0.3739  1.7849
   32SAPC     P 4248   6.155   0.409   6.052  0.4258  0.5833 -0.4088
   32SAPC   O13 4249   6.130   0.494   5.934 -0.1902  0.1280 -0.4928
   32SAPC   O14 4250   6.037   0.376   6.139 -0.5938 -0.1090 -0.3577
   32SAPC   O12 4251   6.221   0.276   5.998 -0.0699 -0.2731 -0.1007
   32SAPC   O11 4252   6.271   0.469   6.142  0.1892 -0.3496  0.4165
   32SAPC    C1 4253   6.330   0.408   6.257 -0.2104  0.9389  0.0584
   32SAPC    HA 4254   6.284   0.308   6.273 -1.0553  0.8268 -2.6037
   32SAPC    HB 4255   6.440   0.398   6.243 -0.2542  1.0899 -0.3985
   32SAPC    C2 4256   6.297   0.490   6.390 -0.3493  0.4561  0.7167
   32SAPC    HS 4257   6.352   0.584   6.366  0.3395  0.2312  1.3902
   32SAPC   O21 4258   6.355   0.425   6.503 -0.1230  0.2910 -0.2694
   32SAPC   C21 4259   6.485   0.426   6.509  0.3958 -0.2731 -0.4987
   32SAPC   O22 4260   6.557   0.511   6.459 -0.1056  0.5391 -0.2066
   32SAPC   C22 4261   6.540   0.300   6.578 -0.2950  0.2147 -0.3435
   32SAPC   H2R 4262   6.465   0.268   6.654  1.2339  0.9162  1.5492
   32SAPC   H2S 4263   6.536   0.219   6.502 -0.9943  0.9357 -1.0946
   32SAPC    C3 4264   6.141   0.527   6.405 -0.0677 -0.0975  0.7945
   32SAPC    HX 4265   6.085   0.431   6.401  0.7366 -0.5488 -0.0652
   32SAPC    HY 4266   6.107   0.582   6.315  0.0237 -0.6784  0.3996
   32SAPC   O31 4267   6.126   0.603   6.530  0.8046  0.2802  0.6516
   32SAPC   C31 4268   6.109   0.522   6.633  0.7197  0.6537 -0.1759
   32SAPC   O32 4269   6.091   0.402   6.628 -0.2469  0.0308 -0.1716
   32SAPC   C32 4270   6.102   0.600   6.768 -0.0288 -0.4725  0.8601
   32SAPC   H2X 4271   6.008   0.657   6.754  0.7227  0.0950 -2.7505
   32SAPC   H2Y 4272   6.183   0.677   6.774 -0.8367  0.3545  1.3857
   32SAPC   C23 4273   6.682   0.305   6.644 -0.4062  0.1579 -0.0953
   32SAPC   H3R 4274   6.751   0.346   6.567 -1.0021 -1.9843 -1.8458
   32SAPC   H3S 4275   6.730   0.208   6.670  0.5171  0.0034 -2.1432
   32SAPC   C24 4276   6.687   0.400   6.766 -0.0921 -0.5170 -0.0827
   32SAPC   H4R 4277   6.611   0.478   6.744 -0.2268 -0.8429 -0.7858
   32SAPC   H4S 4278   6.786   0.451   6.761  0.5828 -1.8491 -1.1950
   32SAPC   C25 4279   6.663   0.338   6.902  0.2846 -0.7239 -0.3004
   32SAPC   H5R 4280   6.716   0.245   6.926  2.5465  0.5466 -0.1040
   32SAPC   C26 4281   6.581   0.383   7.001 -0.2190 -1.0979 -0.2950
   32SAPC   H6R 4282   6.575   0.323   7.093  1.2270 -0.3479  0.3147
   32SAPC   C27 4283   6.499   0.516   6.998  0.7158 -0.2679  0.2491
   32SAPC   H7R 4284   6.409   0.517   7.064  2.0265  0.9745  2.1297
   32SAPC   H7S 4285   6.446   0.517   6.900  1.5219 -0.9525 -0.1985
   32SAPC   C28 4286   6.575   0.640   7.016 -0.0637 -0.1613 -0.2113
   32SAPC   H8R 4287   6.621   0.679   6.923 -0.2100 -0.5533 -0.4466
   32SAPC   C29 4288   6.602   0.698   7.141 -0.1606  0.6870  0.4757
   32SAPC   H9R 4289   6.666   0.787   7.149  1.9138 -0.4633 -2.0040
   32SAPC  C210 4290   6.556   0.649   7.276  0.1453 -0.1039  0.7486
   32SAPC  H10R 4291   6.453   0.610   7.263 -0.2109  1.3121 -0.9134
   32SAPC  H10S 4292   6.568   0.737   7.343  0.1475  0.4123  0.0767
   32SAPC  C211 4293   6.634   0.529   7.326 -0.3107 -0.2370 -0.8964
   32SAPC  H11R 4294   6.698   0.471   7.259  0.5402  0.2699 -0.5420
   32SAPC  C212 4295   6.639   0.494   7.453 -0.0236  0.7575 -0.2168
   32SAPC  H12R 4296   6.696   0.403   7.476 -0.8946  0.8230  2.5404
   32SAPC  C213 4297   6.576   0.562   7.567  0.2398 -0.0218  0.4713
   32SAPC  H13R 4298   6.495   0.629   7.533  0.2593  0.2811  1.0076
   32SAPC  H13S 4299   6.644   0.643   7.602 -2.7753  1.8925  2.2652
   32SAPC  C214 4300   6.536   0.471   7.683 -0.0409 -0.1414  0.9563
   32SAPC  H14R 4301   6.478   0.385   7.646  2.0693 -1.6311  0.8962
   32SAPC  C215 4302   6.576   0.472   7.812  0.8138  1.0205 -0.3944
   32SAPC  H15R 4303   6.557   0.383   7.873  0.3952  0.4794 -1.2929
   32SAPC  C216 4304   6.679   0.566   7.863  0.6239  0.7247 -1.1106
   32SAPC  H16R 4305   6.613   0.641   7.910 -0.1692 -0.4900 -0.2402
   32SAPC  H16S 4306   6.728   0.621   7.779  0.7965  0.5344 -1.1368
   32SAPC  C217 4307   6.788   0.503   7.953 -0.0967 -0.3473 -0.0345
   32SAPC  H17R 4308   6.861   0.585   7.961 -0.2856  0.0126 -1.6296
   32SAPC  H17S 4309   6.845   0.417   7.910 -0.0549 -0.3850  0.0937
   32SAPC  C218 4310   6.730   0.474   8.094 -0.4860  0.5268  0.1048
   32SAPC  H18R 4311   6.667   0.383   8.084 -0.6450  0.8502 -2.3000
   32SAPC  H18S 4312   6.672   0.559   8.135  0.3591  0.5661  1.2994
   32SAPC  C219 4313   6.850   0.434   8.186  0.0349 -0.3967  0.5598
   32SAPC  H19R 4314   6.907   0.527   8.208  2.3555 -2.2870  3.2813
   32SAPC  H19S 4315   6.918   0.362   8.136  0.1122 -1.0787  1.6162
   32SAPC  C220 4316   6.810   0.370   8.320  0.3620 -0.4329  0.0616
   32SAPC  H20R 4317   6.899   0.340   8.380  1.3308  1.9104 -0.0891
   32SAPC  H20S 4318   6.755   0.276   8.301  2.4948 -1.3964 -1.8148
   32SAPC  H20T 4319   6.741   0.441   8.370 -0.3242 -1.7446  1.0382
   32SAPC   C33 4320   6.111   0.504   6.883 -0.8023  0.7685  0.1073
   32SAPC   H3X 4321   6.205   0.444   6.879 -2.6309 -2.3910  1.0973
   32SAPC   H3Y 4322   6.021   0.439   6.880 -2.5850  3.1914 -1.9516
   32SAPC   C34 4323   6.110   0.579   7.013 -0.0092  0.8185 -0.9571
   32SAPC   H4X 4324   6.045   0.668   7.020 -1.3161 -0.1586 -0.3306
   32SAPC   H4Y 4325   6.210   0.623   7.035  0.8829 -1.0501 -1.1041
   32SAPC   C35 4326   6.082   0.493   7.136 -0.1724  0.0963  0.1816
   32SAPC   H5X 4327   6.177   0.459   7.181  0.8633  1.0783 -1.1721
   32SAPC   H5Y 4328   6.021   0.403   7.114  2.5668 -1.2012 -2.7853
   32SAPC   C36 4329   6.012   0.548   7.265  0.9558 -0.4394 -0.5118
   32SAPC   H6X 4330   5.998   0.458   7.329 -1.3184  0.0673 -0.2292
   32SAPC   H6Y 4331   5.913   0.593   7.242  1.5257  1.4546  0.5273
   32SAPC   C37 4332   6.092   0.658   7.334  0.2605  0.2002  0.1721
   32SAPC   H7X 4333   6.093   0.752   7.276  1.3419  0.5414  0.7128
   32SAPC   H7Y 4334   6.198   0.629   7.355 -0.3379 -0.3065  2.8762
   32SAPC   C38 4335   6.020   0.699   7.466 -0.9249 -0.2761 -0.4275
   32SAPC   H8X 4336   5.914   0.724   7.446 -0.3258  4.1833  0.8189
   32SAPC   H8Y 4337   6.060   0.796   7.504 -0.2002 -1.2581  1.4717
   32SAPC   C39 4338   6.023   0.609   7.590 -0.2622  0.8916  0.6091
   32SAPC   H9X 4339   5.951   0.526   7.573  2.0089 -1.3304  1.1441
   32SAPC   H9Y 4340   5.978   0.657   7.680 -0.8210  1.1011  0.2160
   32SAPC  C310 4341   6.164   0.575   7.627  0.2475 -0.1183  0.0174
   32SAPC  H10X 4342   6.223   0.668   7.642  0.9989 -0.8070  1.6491
   32SAPC  H10Y 4343   6.204   0.511   7.545  0.2960 -0.6219  0.4277
   32SAPC  C311 4344   6.176   0.489   7.754  0.4029  0.0038  0.3336
   32SAPC  H11X 4345   6.130   0.529   7.846 -0.1376  0.7096 -0.2286
   32SAPC  H11Y 4346   6.282   0.480   7.786  0.8554 -0.1582 -1.1337
   32SAPC  C312 4347   6.103   0.355   7.744  0.0512  0.0668  0.2450
   32SAPC  H12X 4348   6.123   0.297   7.651  0.3139  0.3172  0.1434
   32SAPC  H12Y 4349   5.995   0.383   7.738  0.6545  2.3056 -2.6665
   32SAPC  C313 4350   6.119   0.271   7.867 -0.8304  0.0572  0.3032
   32SAPC  H13X 4351   6.064   0.175   7.872 -0.6432  0.0039  2.0786
   32SAPC  H13Y 4352   6.075   0.326   7.953 -0.5319  0.9416 -0.0946
   32SAPC  C314 4353   6.270   0.233   7.905 -0.7122 -1.2156  0.7822
   32SAPC  H14X 4354   6.311   0.335   7.926 -5.0783  1.0315 -0.4680
   32SAPC  H14Y 4355   6.319   0.190   7.815 -1.5479 -1.4805  0.4396
   32SAPC  C315 4356   6.284   0.143   8.026 -0.4457  0.3846  0.6037
   32SAPC  H15X 4357   6.223   0.051   8.015  0.3184 -0.1388  0.6890
   32SAPC  H15Y 4358   6.237   0.205   8.106 -0.1395  1.0091  0.3001
   32SAPC  C316 4359   6.423   0.105   8.061 -0.0364 -0.1907 -0.1972
   32SAPC  H16X 4360   6.424   0.046   8.155  3.1149 -0.5105 -0.3061
   32SAPC  H16Y 4361   6.483   0.193   8.093 -0.8218  0.7540 -1.2394
   32SAPC  C317 4362   6.506   0.039   7.947 -0.3164  0.1904  0.8205
   32SAPC  H17X 4363   6.542   0.118   7.877 -0.9567 -0.2712 -0.0460
   32SAPC  H17Y 4364   6.442  -0.022   7.880  0.5482  1.9222 -1.7614
   32SAPC  C318 4365   6.625  -0.051   7.991  0.3297 -0.1584 -0.2188
   32SAPC  H18X 4366   6.664  -0.115   7.909 -0.2291 -1.0033  0.1590
   32SAPC  H18Y 4367   6.598  -0.123   8.071  1.2614  1.2124  1.4006
   32SAPC  H18Z 4368   6.714   0.012   8.011  0.9160 -0.9972 -0.1485
   33POPC     N 4369   4.698   1.561  10.925 -0.1001  0.7855 -0.5117
   33POPC   C12 4370   4.711   1.657  10.805 -0.0081  0.4364 -1.0356
   33POPC  H12A 4371   4.816   1.684  10.800  0.9475 -2.7511 -0.5216
   33POPC  H12B 4372   4.656   1.749  10.817  0.8537  0.8697 -0.2699
   33POPC   C13 4373   4.559   1.559  10.973 -0.4743  0.1689  0.2311
   33POPC  H13A 4374   4.490   1.534  10.893  1.2436 -0.0357 -1.2528
   33POPC  H13B 4375   4.542   1.493  11.056  0.4930 -0.1948  0.1591
   33POPC  H13C 4376   4.525   1.653  11.014 -3.0892 -0.1435 -1.0105
   33POPC   C14 4377   4.756   1.427  10.893 -0.0748  0.0906  0.1776
   33POPC  H14A 4378   4.754   1.377  10.988 -2.0782  0.5267  0.4037
   33POPC  H14B 4379   4.700   1.371  10.819  1.0298  1.9857 -2.2615
   33POPC  H14C 4380   4.854   1.439  10.849  1.0564 -2.8699  1.5860
   33POPC   C15 4381   4.785   1.612  11.038  0.1819  0.2264 -0.5641
   33POPC  H15A 4382   4.788   1.545  11.122 -0.9534  0.1447 -0.5744
   33POPC  H15B 4383   4.764   1.708  11.083  1.6445  0.3605 -0.0819
   33POPC  H15C 4384   4.887   1.618  11.002 -0.0946 -1.2471 -1.6754
   33POPC   C11 4385   4.658   1.622  10.664  0.7315 -0.0315 -0.2076
   33POPC  H11A 4386   4.714   1.532  10.630 -2.3339 -2.5321  0.7809
   33POPC  H11B 4387   4.694   1.704  10.599  0.8984 -0.0298 -0.1142
   33POPC     P 4388   4.414   1.707  10.629 -0.1227  0.2234 -0.4825
   33POPC   O13 4389   4.466   1.807  10.529 -0.4571  0.5442  0.0363
   33POPC   O14 4390   4.358   1.758  10.756 -0.6753  0.1236  0.5220
   33POPC   O12 4391   4.518   1.589  10.643  0.0611 -0.1089 -0.2646
   33POPC   O11 4392   4.292   1.631  10.556  0.3055 -0.0020 -0.3698
   33POPC    C1 4393   4.303   1.538  10.451  0.7561 -0.2254 -0.4324
   33POPC    HA 4394   4.412   1.534  10.427  1.4486 -0.0525  2.3950
   33POPC    HB 4395   4.278   1.434  10.481  0.4915 -0.9383 -2.8559
   33POPC    C2 4396   4.224   1.592  10.329  0.3392 -0.2394  0.2792
   33POPC    HS 4397   4.117   1.562  10.338 -0.1133  1.0402 -0.5092
   33POPC   O21 4398   4.277   1.549  10.206 -0.1207 -0.1916  0.1561
   33POPC   C21 4399   4.269   1.419  10.172  0.2974  0.0465 -0.6848
   33POPC   O22 4400   4.194   1.337  10.224  0.3427  0.2407  0.4398
   33POPC   C22 4401   4.373   1.386  10.066  0.1567  0.2714 -0.9210
   33POPC   H2R 4402   4.468   1.384  10.125  0.0747  0.1655 -0.7933
   33POPC   H2S 4403   4.390   1.475  10.001  0.6734  1.9108  1.3338
   33POPC    C3 4404   4.226   1.750  10.328  0.2488 -0.5345  0.5788
   33POPC    HX 4405   4.331   1.781  10.347  0.6408 -1.5888  0.2244
   33POPC    HY 4406   4.166   1.795  10.410 -0.2796  1.2270 -0.7109
   33POPC   O31 4407   4.180   1.804  10.204 -0.6919  0.0038 -0.3209
   33POPC   C31 4408   4.275   1.828  10.107 -0.5360 -0.2599 -0.3313
   33POPC   O32 4409   4.396   1.806  10.117  0.0051  0.1079 -0.3923
   33POPC   C32 4410   4.203   1.896   9.996  0.1178  0.0925  0.5401
   33POPC   H2X 4411   4.277   1.947   9.932 -1.7549  2.1833 -0.0760
   33POPC   H2Y 4412   4.140   1.978  10.036 -0.3956 -0.7440  1.5048
   33POPC   C23 4413   4.360   1.252   9.988 -0.0769 -0.1101  0.5910
   33POPC   H3R 4414   4.258   1.240   9.946 -0.9980  1.3732  2.2875
   33POPC   H3S 4415   4.375   1.171  10.063  0.8902  0.5912  1.1876
   33POPC   C24 4416   4.461   1.245   9.875 -0.0465 -0.1235  0.0310
   33POPC   H4R 4417   4.557   1.269   9.926  1.0404 -1.2081 -1.4243
   33POPC   H4S 4418   4.424   1.320   9.802  0.4413 -0.6696 -0.7973
   33POPC   C25 4419   4.488   1.107   9.808  0.1206 -0.0048 -0.3142
   33POPC   H5R 4420   4.396   1.072   9.756  1.6032 -1.9429 -1.8610
   33POPC   H5S 4421   4.507   1.038   9.893 -1.8969 -1.8650 -1.2650
   33POPC   C26 4422   4.596   1.109   9.702  0.5449 -0.0890 -0.2979
   33POPC   H6R 4423   4.613   1.008   9.660 -0.9655 -0.3399 -0.3850
   33POPC   H6S 4424   4.688   1.142   9.754  0.3403  1.4591 -0.8568
   33POPC   C27 4425   4.572   1.202   9.579 -0.4763 -0.1640 -0.3358
   33POPC   H7R 4426   4.572   1.301   9.629 -0.0142 -0.2657 -0.1320
   33POPC   H7S 4427   4.472   1.185   9.534 -0.4687 -1.3809  0.0607
   33POPC   C28 4428   4.679   1.196   9.468  0.5558 -0.8052 -0.4418
   33POPC   H8R 4429   4.677   1.285   9.401  0.5416  0.3531  1.0361
   33POPC   H8S 4430   4.656   1.107   9.405  2.1288 -0.1967 -1.9377
   33POPC   C29 4431   4.818   1.185   9.526 -0.4471  0.0474 -0.3826
   33POPC   H91 4432   4.825   1.262   9.604 -0.1735 -0.4166  0.0577
   33POPC  C210 4433   4.925   1.106   9.498  0.0110 -0.1724  0.2919
   33POPC  H101 4434   5.017   1.111   9.558  0.9394  1.9964 -1.1900
   33POPC  C211 4435   4.924   1.003   9.388  0.2138  0.5476  0.3943
   33POPC  H11R 4436   4.822   0.966   9.363 -0.1746  2.2850 -0.7584
   33POPC  H11S 4437   4.981   0.913   9.419  1.4256  1.8210  2.0152
   33POPC  C212 4438   4.967   1.070   9.255 -0.4628  0.7667 -0.4499
   33POPC  H12R 4439   5.072   1.104   9.270 -0.0768 -0.4333 -0.3455
   33POPC  H12S 4440   4.905   1.160   9.231 -1.7658 -0.2477 -0.9979
   33POPC  C213 4441   4.944   0.974   9.135 -0.2656 -0.5099 -0.5200
   33POPC  H13R 4442   4.837   0.967   9.105 -0.6900  0.1170  0.7705
   33POPC  H13S 4443   4.970   0.867   9.141 -1.1876 -0.6769  0.9603
   33POPC  C214 4444   5.011   1.031   9.007  0.2510  0.3415 -0.6053
   33POPC  H14R 4445   5.120   1.032   9.030  0.2547 -1.6434 -0.3733
   33POPC  H14S 4446   4.978   1.137   9.004 -1.7285 -0.1996  0.2757
   33POPC  C215 4447   4.983   0.953   8.883  0.7875 -0.9688 -0.6924
   33POPC  H15R 4448   4.894   0.995   8.832  1.9814  0.5683 -1.5988
   33POPC  H15S 4449   4.947   0.851   8.908  0.5361 -0.5376  0.8119
   33POPC  C216 4450   5.097   0.960   8.790  0.5174 -0.1092  0.3427
   33POPC  H16R 4451   5.186   0.914   8.840 -0.7667 -1.9117  1.0829
   33POPC  H16S 4452   5.116   1.063   8.754 -2.7425  0.8979  1.1956
   33POPC  C217 4453   5.067   0.884   8.660 -0.5508 -0.1869  0.2974
   33POPC  H17R 4454   5.164   0.881   8.606 -0.7940 -1.3288 -0.1032
   33POPC  H17S 4455   4.987   0.935   8.602  0.7391  1.1968 -0.3157
   33POPC  C218 4456   5.020   0.737   8.672  0.4578 -0.5174 -0.1768
   33POPC  H18R 4457   4.917   0.740   8.714 -0.5487 -0.0041 -2.4936
   33POPC  H18S 4458   5.084   0.695   8.752 -1.1584  0.9458  2.0271
   33POPC  H18T 4459   5.043   0.676   8.582 -0.3804 -0.8402 -0.1819
   33POPC   C33 4460   4.118   1.794   9.913 -0.2486  0.7735  0.2836
   33POPC   H3X 4461   4.037   1.745   9.971 -0.6800  0.5323 -0.4973
   33POPC   H3Y 4462   4.185   1.712   9.880  1.3703  1.7497  1.0052
   33POPC   C34 4463   4.061   1.861   9.785 -0.6248 -0.1318 -0.2633
   33POPC   H4X 4464   4.136   1.926   9.735 -0.1474  0.1389  0.7851
   33POPC   H4Y 4465   3.982   1.937   9.804 -0.1933  0.4847 -0.8868
   33POPC   C35 4466   4.006   1.758   9.682  1.6319 -0.5372  0.2806
   33POPC   H5X 4467   3.907   1.725   9.720  2.0867 -1.9911  0.2406
   33POPC   H5Y 4468   4.075   1.671   9.674  1.7093 -0.5909  1.4316
   33POPC   C36 4469   3.981   1.835   9.551 -0.0935 -0.1670  0.1891
   33POPC   H6X 4470   4.072   1.897   9.540  0.7432 -1.7077 -2.3564
   33POPC   H6Y 4471   3.891   1.899   9.566 -1.2742 -1.6018 -0.5748
   33POPC   C37 4472   3.960   1.738   9.432 -0.2529 -0.2511  0.2447
   33POPC   H7X 4473   3.861   1.691   9.450 -0.1082 -0.4096  0.6372
   33POPC   H7Y 4474   4.040   1.661   9.433  0.4691  0.4247  2.9012
   33POPC   C38 4475   3.951   1.816   9.302  0.1300 -0.0076  0.3385
   33POPC   H8X 4476   4.054   1.858   9.297  0.2719 -0.0095  2.4837
   33POPC   H8Y 4477   3.873   1.895   9.297  1.2494  1.4474  3.4158
   33POPC   C39 4478   3.932   1.707   9.194  0.3598  0.4871 -0.2882
   33POPC   H9X 4479   3.825   1.682   9.212  0.5798  0.1408  0.6533
   33POPC   H9Y 4480   3.991   1.621   9.233 -1.2965  0.6160  2.8834
   33POPC  C310 4481   3.971   1.745   9.047  0.4952 -0.5601 -0.0701
   33POPC  H10X 4482   4.080   1.763   9.045  0.6591 -1.4723  0.1340
   33POPC  H10Y 4483   3.909   1.829   9.010 -1.9984 -2.7440 -1.1678
   33POPC  C311 4484   3.956   1.629   8.949  0.0936  0.0673 -0.2571
   33POPC  H11X 4485   3.848   1.619   8.925  0.2331 -0.6782 -0.6018
   33POPC  H11Y 4486   3.981   1.530   8.991  0.3033 -0.3570 -1.3322
   33POPC  C312 4487   4.031   1.639   8.816 -0.7618  0.4608  0.2796
   33POPC  H12X 4488   4.137   1.618   8.838 -0.4418  1.8663  0.1799
   33POPC  H12Y 4489   4.021   1.745   8.782  0.7614  1.1190  1.7437
   33POPC  C313 4490   3.969   1.546   8.711 -0.4262  0.0624  0.6182
   33POPC  H13X 4491   3.859   1.560   8.710 -0.0673  3.6968 -0.6370
   33POPC  H13Y 4492   4.008   1.442   8.721  1.2979  0.6811  0.6113
   33POPC  C314 4493   4.011   1.584   8.568  0.1284  0.1577  0.4557
   33POPC  H14X 4494   4.103   1.533   8.533  0.2578  0.1606  0.7873
   33POPC  H14Y 4495   4.023   1.695   8.571 -0.2494  0.2115  0.0170
   33POPC  C315 4496   3.913   1.553   8.458  0.4617  0.2708  0.5652
   33POPC  H15X 4497   3.939   1.599   8.360  1.4960 -2.2408 -0.4467
   33POPC  H15Y 4498   3.816   1.600   8.485  1.0385  1.2466  0.9599
   33POPC  C316 4499   3.868   1.414   8.422  0.3015 -0.0308 -0.2987
   33POPC  H16X 4500   3.819   1.367   8.510 -2.0655  0.0935 -1.4541
   33POPC  H16Y 4501   3.957   1.356   8.391  0.7679  0.5672 -0.0835
   33POPC  H16Z 4502   3.790   1.412   8.342 -0.4836 -1.9922  0.4406
   34POPC     N 4503   4.072   1.520  10.837  0.4809 -0.9336  0.3783
   34POPC   C12 4504   4.100   1.449  10.704  0.0776  0.1089 -0.0025
   34POPC  H12A 4505   4.165   1.366  10.730 -0.5446  0.4414  3.0462
   34POPC  H12B 4506   4.157   1.522  10.649  0.3798  1.3103  1.8157
   34POPC   C13 4507   3.990   1.642  10.809 -0.3922  0.2391 -0.6164
   34POPC  H13A 4508   4.053   1.716  10.762  0.5713  0.3798  0.8110
   34POPC  H13B 4509   3.902   1.622  10.750  0.2646 -1.4701 -1.0556
   34POPC  H13C 4510   3.952   1.687  10.900  1.4594  0.7863 -0.0768
   34POPC   C14 4511   3.989   1.426  10.920 -0.1204 -0.2722 -0.2721
   34POPC  H14A 4512   3.908   1.383  10.862  1.6539 -3.2832 -0.7577
   34POPC  H14B 4513   4.030   1.329  10.944  0.3093  0.5600  2.8116
   34POPC  H14C 4514   3.959   1.463  11.017  0.8609 -0.7951  0.2458
   34POPC   C15 4515   4.191   1.549  10.912 -0.6201 -0.2235 -0.8045
   34POPC  H15A 4516   4.162   1.571  11.014  3.3525  0.4116  0.3488
   34POPC  H15B 4517   4.241   1.638  10.875  0.2681  0.5489  2.0353
   34POPC  H15C 4518   4.253   1.461  10.920 -4.1134 -2.8604 -0.7142
   34POPC   C11 4519   3.978   1.389  10.632 -1.3928 -0.3355  0.7119
   34POPC  H11A 4520   4.001   1.382  10.524  3.0479  0.2257  1.4120
   34POPC  H11B 4521   3.890   1.457  10.643 -0.9269  0.2346  1.0180
   34POPC     P 4522   4.004   1.133  10.631  0.0016  0.0857 -0.2812
   34POPC   O13 4523   4.002   1.036  10.743 -0.2909 -0.1193 -0.3635
   34POPC   O14 4524   4.141   1.150  10.581  0.4371  0.0335  0.2164
   34POPC   O12 4525   3.953   1.267  10.682 -0.4951 -0.4647 -0.5004
   34POPC   O11 4526   3.900   1.099  10.521 -0.1937  0.6897 -0.0304
   34POPC    C1 4527   3.868   0.962  10.489 -0.0798 -0.0714 -0.1278
   34POPC    HA 4528   3.767   0.959  10.443  0.0477 -0.1436 -0.4001
   34POPC    HB 4529   3.864   0.900  10.582  0.5936 -2.3217 -1.5266
   34POPC    C2 4530   3.971   0.898  10.394 -0.2607  0.5438 -0.6873
   34POPC    HS 4531   4.064   0.909  10.454 -0.9314 -4.1195  1.6797
   34POPC   O21 4532   3.986   0.980  10.276 -0.1997  0.2855 -0.9670
   34POPC   C21 4533   4.088   0.943  10.205 -0.4954 -0.0830  0.4500
   34POPC   O22 4534   4.186   0.875  10.237 -0.5774 -0.1061  0.2199
   34POPC   C22 4535   4.072   1.012  10.075  0.5407 -0.6306  0.5399
   34POPC   H2R 4536   4.106   1.117  10.090 -0.7951 -0.1293  0.2623
   34POPC   H2S 4537   3.965   1.020  10.046  1.0801  1.2780 -1.1871
   34POPC    C3 4538   3.940   0.745  10.368  0.1700 -0.1915  0.7579
   34POPC    HX 4539   3.965   0.696  10.464  1.9446 -1.4200 -0.2657
   34POPC    HY 4540   4.016   0.689  10.309 -0.4954  0.5559 -0.8923
   34POPC   O31 4541   3.805   0.720  10.334 -0.1300  0.0310 -0.1108
   34POPC   C31 4542   3.771   0.735  10.212 -0.2367  0.3629  0.3028
   34POPC   O32 4543   3.845   0.735  10.112 -0.0333  0.3950 -0.2379
   34POPC   C32 4544   3.623   0.754  10.208 -0.0883 -0.2022 -0.4315
   34POPC   H2X 4545   3.598   0.839  10.275  0.9849  0.4144 -0.7917
   34POPC   H2Y 4546   3.568   0.661  10.234  1.5229 -0.7465  1.3288
   34POPC   C23 4547   4.145   0.944   9.957  0.0905  0.1652  0.0159
   34POPC   H3R 4548   4.234   0.892   9.999  0.3455  0.1568 -0.5183
   34POPC   H3S 4549   4.159   1.021   9.878 -4.1533  0.2161 -0.9286
   34POPC   C24 4550   4.056   0.850   9.883  0.1497  0.2804 -0.2144
   34POPC   H4R 4551   3.966   0.902   9.844 -0.6262  0.0769  1.2435
   34POPC   H4S 4552   4.020   0.773   9.955  1.0053  0.5756  0.5417
   34POPC   C25 4553   4.124   0.772   9.764  0.7487 -0.3092 -0.0669
   34POPC   H5R 4554   4.196   0.694   9.798 -1.4343 -2.6374 -0.4770
   34POPC   H5S 4555   4.165   0.835   9.682 -0.1704 -1.5329 -1.5145
   34POPC   C26 4556   4.025   0.687   9.692  0.1694  0.9222 -0.6695
   34POPC   H6R 4557   3.955   0.759   9.644  0.1737  2.4482  1.4721
   34POPC   H6S 4558   3.945   0.640   9.752  0.4964  0.0816 -0.8838
   34POPC   C27 4559   4.088   0.584   9.596  0.7723 -0.4787  0.2697
   34POPC   H7R 4560   4.172   0.525   9.639  0.7513 -0.2583  0.6180
   34POPC   H7S 4561   4.115   0.634   9.500 -0.6502  0.0536  0.1237
   34POPC   C28 4562   3.985   0.466   9.564 -0.4951 -0.0971 -0.6246
   34POPC   H8R 4563   3.951   0.434   9.665  2.0637  0.2232  0.4104
   34POPC   H8S 4564   4.027   0.373   9.519  0.2998 -0.5194  0.9361
   34POPC   C29 4565   3.874   0.513   9.481  0.2283 -0.9253  0.1566
   34POPC   H91 4566   3.842   0.613   9.512 -0.4836 -0.6160 -1.4652
   34POPC  C210 4567   3.830   0.458   9.367  0.2380 -0.2387  0.3658
   34POPC  H101 4568   3.744   0.502   9.314  0.7213 -1.6660 -1.7740
   34POPC  C211 4569   3.856   0.323   9.304  0.1650  0.0318  0.2591
   34POPC  H11R 4570   3.781   0.249   9.337 -0.1836 -0.5266 -1.6640
   34POPC  H11S 4571   3.961   0.301   9.333  0.7910  2.0723 -0.2469
   34POPC  C212 4572   3.841   0.339   9.153 -0.2325 -0.6037  0.0076
   34POPC  H12R 4573   3.920   0.414   9.128 -0.1984 -0.6294  0.0386
   34POPC  H12S 4574   3.740   0.376   9.124  0.0312 -1.1537 -1.7326
   34POPC  C213 4575   3.861   0.202   9.083  0.2940  0.0123  0.0842
   34POPC  H13R 4576   3.799   0.119   9.123 -0.0948 -0.0855 -0.6987
   34POPC  H13S 4577   3.966   0.172   9.104 -0.2972 -2.2173  0.0962
   34POPC  C214 4578   3.850   0.215   8.930  0.4509 -0.7872 -0.1018
   34POPC  H14R 4579   3.930   0.279   8.886  0.8880 -1.4641 -0.2993
   34POPC  H14S 4580   3.748   0.251   8.906  0.6904 -1.0756 -1.6142
   34POPC  C215 4581   3.852   0.074   8.853 -0.2976 -0.2423 -0.1413
   34POPC  H15R 4582   3.771   0.005   8.884 -0.3638 -0.5003 -0.8777
   34POPC  H15S 4583   3.949   0.027   8.879 -0.9656 -0.6636  1.6974
   34POPC  C216 4584   3.839   0.079   8.708  0.3559  0.1710  0.1997
   34POPC  H16R 4585   3.859  -0.019   8.661 -0.6174 -0.4033  0.9648
   34POPC  H16S 4586   3.906   0.160   8.672  0.8430 -0.0365  0.6264
   34POPC  C217 4587   3.691   0.109   8.668 -0.2585  0.3507  0.4564
   34POPC  H17R 4588   3.653   0.203   8.713 -1.1719  0.3797 -0.3379
   34POPC  H17S 4589   3.627   0.031   8.715 -1.7574  1.8313  0.9851
   34POPC  C218 4590   3.670   0.125   8.520  0.5130  0.6813  0.8461
   34POPC  H18R 4591   3.561   0.110   8.502  0.6993  1.6540 -1.3249
   34POPC  H18S 4592   3.726   0.046   8.465  0.9333  2.5062 -1.4944
   34POPC  H18T 4593   3.697   0.224   8.480  1.6672  0.0775  0.0784
   34POPC   C33 4594   3.573   0.808  10.070  0.2273  0.5579  0.3371
   34POPC   H3X 4595   3.463   0.819  10.078  0.1451  2.4515 -2.2262
   34POPC   H3Y 4596   3.591   0.732   9.991 -2.0097  1.7398 -1.3946
   34POPC   C34 4597   3.631   0.946  10.033 -0.5148 -0.2363  0.0545
   34POPC   H4X 4598   3.741   0.937  10.033 -0.4580  0.3717 -0.4920
   34POPC   H4Y 4599   3.606   1.015  10.117 -1.7953 -1.6641  0.9105
   34POPC   C35 4600   3.584   1.003   9.901  0.4173  0.0413  0.6554
   34POPC   H5X 4601   3.636   1.096   9.870  3.2020 -2.3144 -2.4992
   34POPC   H5Y 4602   3.476   1.025   9.898 -0.0479 -2.1147 -0.0822
   34POPC   C36 4603   3.588   0.904   9.790 -0.8234 -0.5049  0.6061
   34POPC   H6X 4604   3.525   0.813   9.805 -0.4740 -0.6891  0.9937
   34POPC   H6Y 4605   3.682   0.846   9.779 -2.1251 -2.7703  0.7518
   34POPC   C37 4606   3.555   0.972   9.655 -0.2504 -0.1419  0.5536
   34POPC   H7X 4607   3.619   1.062   9.648 -1.8478  0.8834 -2.2925
   34POPC   H7Y 4608   3.448   1.003   9.650  0.1663  1.6399  1.8446
   34POPC   C38 4609   3.607   0.867   9.552 -0.5196 -0.2388  0.7863
   34POPC   H8X 4610   3.572   0.765   9.578 -1.5024 -0.5122 -1.3603
   34POPC   H8Y 4611   3.717   0.880   9.559 -0.6579  0.8745  1.0252
   34POPC   C39 4612   3.565   0.899   9.404  1.0096  0.4900  0.8218
   34POPC   H9X 4613   3.583   1.001   9.365  0.1652 -0.0530 -1.0713
   34POPC   H9Y 4614   3.454   0.892   9.413  1.0466  1.2560  2.3471
   34POPC  C310 4615   3.629   0.800   9.305  0.3150 -1.0065  0.3188
   34POPC  H10X 4616   3.632   0.697   9.347  0.3628 -1.3954 -0.6132
   34POPC  H10Y 4617   3.735   0.834   9.311  0.0669 -0.3564  1.0784
   34POPC  C311 4618   3.581   0.815   9.163  0.3927 -0.1650  0.6116
   34POPC  H11X 4619   3.634   0.902   9.119  0.2712 -0.4606 -0.1292
   34POPC  H11Y 4620   3.471   0.833   9.164  0.4703  0.5262 -0.9276
   34POPC  C312 4621   3.604   0.692   9.077 -0.2318  0.3275  0.3545
   34POPC  H12X 4622   3.544   0.606   9.114  2.3768 -1.2577  1.2313
   34POPC  H12Y 4623   3.711   0.660   9.082 -1.2618 -3.6441  0.4967
   34POPC  C313 4624   3.578   0.704   8.929 -0.6430 -0.0878  0.3843
   34POPC  H13X 4625   3.636   0.790   8.890  0.5662 -0.6125  0.9834
   34POPC  H13Y 4626   3.472   0.733   8.914 -1.0654 -1.7923 -0.2229
   34POPC  C314 4627   3.617   0.581   8.848 -0.0131 -0.1406  0.4163
   34POPC  H14X 4628   3.574   0.486   8.887  0.0615 -0.2631  0.1989
   34POPC  H14Y 4629   3.726   0.562   8.843 -0.2095 -1.0645 -0.9574
   34POPC  C315 4630   3.559   0.592   8.701  0.5051 -0.4143  0.0620
   34POPC  H15X 4631   3.449   0.608   8.703  0.4803 -0.6072  0.3469
   34POPC  H15Y 4632   3.579   0.492   8.656 -2.5027  0.4508 -3.7482
   34POPC  C316 4633   3.638   0.690   8.621 -0.5779 -0.3816 -0.5148
   34POPC  H16X 4634   3.617   0.791   8.662 -0.9723  0.0697 -1.7879
   34POPC  H16Y 4635   3.621   0.676   8.512 -0.4386 -1.1583 -0.4373
   34POPC  H16Z 4636   3.747   0.680   8.638 -0.0355 -0.4342 -3.5523
   35POPC     N 4637   2.713   0.548  11.245 -0.3930  0.2030 -0.2630
   35POPC   C12 4638   2.706   0.558  11.090  0.0082 -0.0951 -0.0526
   35POPC  H12A 4639   2.706   0.460  11.045 -3.0914  0.2806 -1.1066
   35POPC  H12B 4640   2.798   0.611  11.068  1.4300 -2.0595  0.8691
   35POPC   C13 4641   2.596   0.481  11.308  0.0122  0.1408 -0.1287
   35POPC  H13A 4642   2.608   0.479  11.416  1.7516  0.1129 -0.2945
   35POPC  H13B 4643   2.504   0.534  11.291  0.1670  0.3641 -0.2679
   35POPC  H13C 4644   2.580   0.382  11.268 -0.6490 -0.2476  1.0430
   35POPC   C14 4645   2.846   0.493  11.288 -0.5378  0.2246 -0.2819
   35POPC  H14A 4646   2.929   0.541  11.237 -0.1572  0.2142  0.3135
   35POPC  H14B 4647   2.860   0.501  11.395 -0.6763 -2.1723 -0.0296
   35POPC  H14C 4648   2.842   0.386  11.275 -0.2102 -0.0636  1.6540
   35POPC   C15 4649   2.723   0.685  11.300  0.0474 -0.4104  0.0397
   35POPC  H15A 4650   2.648   0.755  11.267  0.8977  0.9105  0.8106
   35POPC  H15B 4651   2.814   0.739  11.279 -2.5751  3.4872 -2.5786
   35POPC  H15C 4652   2.717   0.677  11.408  1.3563 -0.7297  0.1097
   35POPC   C11 4653   2.589   0.634  11.023 -0.0030 -0.9750 -0.4118
   35POPC  H11A 4654   2.495   0.579  11.047 -0.9275  0.7186 -0.0142
   35POPC  H11B 4655   2.626   0.641  10.919 -0.7852 -1.6050 -0.7441
   35POPC     P 4656   2.497   0.881  11.003 -0.1177 -0.4350 -0.2839
   35POPC   O13 4657   2.556   1.020  11.012  0.4065 -0.4834 -0.2107
   35POPC   O14 4658   2.357   0.863  11.027  0.1822  0.5308 -0.5427
   35POPC   O12 4659   2.583   0.774  11.070  0.3359 -0.5260 -0.4325
   35POPC   O11 4660   2.519   0.838  10.852  0.1752  0.5745 -0.1360
   35POPC    C1 4661   2.635   0.886  10.783  0.1230  0.5382  0.7411
   35POPC    HA 4662   2.716   0.810  10.788 -0.9079 -0.5257  1.8370
   35POPC    HB 4663   2.674   0.983  10.820  2.0279  0.1379 -0.0957
   35POPC    C2 4664   2.614   0.911  10.628 -0.1270 -0.0184 -0.0393
   35POPC    HS 4665   2.525   0.978  10.635 -0.5262 -0.6683  1.3410
   35POPC   O21 4666   2.570   0.799  10.553  0.5219  0.3058 -0.8421
   35POPC   C21 4667   2.507   0.825  10.446  0.2404 -0.4554 -0.0511
   35POPC   O22 4668   2.446   0.925  10.416  0.4531  0.1184 -0.2398
   35POPC   C22 4669   2.501   0.685  10.366  0.1459 -0.3373  0.6965
   35POPC   H2R 4670   2.413   0.689  10.298 -0.4572  1.8209  1.4991
   35POPC   H2S 4671   2.493   0.601  10.438  1.2364 -1.2901 -0.2468
   35POPC    C3 4672   2.739   0.988  10.566 -0.8932  0.1795  0.4585
   35POPC    HX 4673   2.816   0.909  10.577 -2.9237 -1.7257  1.8178
   35POPC    HY 4674   2.765   1.071  10.634 -0.8910 -0.6407  1.4803
   35POPC   O31 4675   2.716   1.036  10.434  0.0208 -0.2432 -0.3746
   35POPC   C31 4676   2.802   1.120  10.378  0.0571 -0.5874  0.1876
   35POPC   O32 4677   2.906   1.160  10.426 -0.2891 -0.6615 -0.0248
   35POPC   C32 4678   2.749   1.149  10.233  0.3247 -0.9207  0.8405
   35POPC   H2X 4679   2.660   1.085  10.212  0.3506 -1.2573  1.7111
   35POPC   H2Y 4680   2.830   1.123  10.162 -1.2196  2.0807 -2.2836
   35POPC   C23 4681   2.624   0.670  10.281 -0.1769 -0.5998  1.3013
   35POPC   H3R 4682   2.626   0.570  10.233 -0.8404  0.0094 -0.0547
   35POPC   H3S 4683   2.708   0.675  10.353 -0.1047 -0.0326  1.1845
   35POPC   C24 4684   2.650   0.785  10.170  0.8594 -0.5669  0.7437
   35POPC   H4R 4685   2.625   0.878  10.225 -3.5754 -1.6772  0.9274
   35POPC   H4S 4686   2.563   0.764  10.104 -0.3388  0.5624  1.9118
   35POPC   C25 4687   2.786   0.792  10.100 -0.3883 -0.0735  0.1189
   35POPC   H5R 4688   2.857   0.803  10.185  1.0577 -2.4009 -0.6980
   35POPC   H5S 4689   2.797   0.882  10.035  1.2083 -0.4576 -0.1827
   35POPC   C26 4690   2.837   0.673  10.010  0.5811 -0.6661  0.0199
   35POPC   H6R 4691   2.837   0.585  10.079 -0.4612 -0.0951  0.7728
   35POPC   H6S 4692   2.939   0.699   9.974  0.4428 -0.0912  0.0472
   35POPC   C27 4693   2.742   0.650   9.895 -0.4373 -0.5710 -0.2747
   35POPC   H7R 4694   2.638   0.654   9.933 -0.6193  0.3385 -0.8483
   35POPC   H7S 4695   2.750   0.549   9.849 -0.1707 -0.4686 -0.4588
   35POPC   C28 4696   2.737   0.751   9.778 -0.0498  0.3643  0.0260
   35POPC   H8R 4697   2.700   0.844   9.826  0.7282  0.1128  1.1478
   35POPC   H8S 4698   2.661   0.714   9.705 -1.7571 -0.6632  2.2152
   35POPC   C29 4699   2.875   0.766   9.711  0.1526  0.4891  0.4583
   35POPC   H91 4700   2.952   0.794   9.784 -2.7469  1.6323  3.3535
   35POPC  C210 4701   2.899   0.742   9.584  0.9112  0.2318  0.4438
   35POPC  H101 4702   2.996   0.767   9.536  0.4968  0.9716 -0.0360
   35POPC  C211 4703   2.797   0.701   9.476  1.0012 -0.3284  0.7621
   35POPC  H11R 4704   2.728   0.787   9.474  1.6474  0.1982  0.8368
   35POPC  H11S 4705   2.741   0.610   9.508 -0.1196 -0.6348 -1.7763
   35POPC  C212 4706   2.880   0.666   9.351 -0.5259 -0.2933  0.0812
   35POPC  H12R 4707   2.937   0.572   9.369  0.3527 -0.3809 -2.7317
   35POPC  H12S 4708   2.966   0.736   9.345  0.4592 -1.5182 -0.7806
   35POPC  C213 4709   2.792   0.661   9.229  0.4877 -0.0844 -0.2174
   35POPC  H13R 4710   2.714   0.738   9.221 -0.0320 -0.6355 -0.5522
   35POPC  H13S 4711   2.729   0.573   9.255  2.2601 -1.5857 -0.7302
   35POPC  C214 4712   2.847   0.647   9.088 -0.4440  0.1876 -0.7801
   35POPC  H14R 4713   2.916   0.560   9.092 -0.9459 -0.1736  0.1536
   35POPC  H14S 4714   2.904   0.740   9.065 -0.8489  0.0345 -2.5696
   35POPC  C215 4715   2.755   0.619   8.973  0.2716  0.3757 -0.0707
   35POPC  H15R 4716   2.711   0.714   8.935  0.1183 -0.5766 -2.4369
   35POPC  H15S 4717   2.675   0.549   9.004  0.1627  1.0169  1.1361
   35POPC  C216 4718   2.823   0.559   8.846 -0.1526  0.0026 -0.1914
   35POPC  H16R 4719   2.876   0.465   8.874 -1.7464 -0.8041  0.2563
   35POPC  H16S 4720   2.895   0.635   8.808 -0.6910  1.0170  0.7797
   35POPC  C217 4721   2.724   0.536   8.739  0.2949  0.3154 -0.0651
   35POPC  H17R 4722   2.678   0.634   8.713  2.8791  1.7114  0.3463
   35POPC  H17S 4723   2.650   0.467   8.784  1.8207 -2.4241 -1.5114
   35POPC  C218 4724   2.792   0.474   8.608  0.6827 -0.8074  0.4426
   35POPC  H18R 4725   2.884   0.534   8.588 -1.9135  4.5380  2.4853
   35POPC  H18S 4726   2.716   0.487   8.528  0.7223  1.5074  0.7003
   35POPC  H18T 4727   2.821   0.368   8.625 -1.1924 -1.2771  0.8943
   35POPC   C33 4728   2.704   1.292  10.213  0.4171  0.3008  0.5934
   35POPC   H3X 4729   2.793   1.358  10.226 -0.3140  1.3111  0.5847
   35POPC   H3Y 4730   2.625   1.307  10.289  0.2028 -0.5019  0.5419
   35POPC   C34 4731   2.642   1.316  10.076  0.1641  0.1593  0.7112
   35POPC   H4X 4732   2.609   1.420  10.056  2.3728  0.7415 -0.1983
   35POPC   H4Y 4733   2.555   1.249  10.066 -0.0289  0.3130  1.3024
   35POPC   C35 4734   2.732   1.281   9.959 -0.4355  0.3870  0.2784
   35POPC   H5X 4735   2.792   1.188   9.958  0.5888  0.9059 -3.3089
   35POPC   H5Y 4736   2.805   1.361   9.932 -0.3713 -0.1388 -1.2247
   35POPC   C36 4737   2.643   1.279   9.833 -0.5532  0.5019 -0.5949
   35POPC   H6X 4738   2.607   1.382   9.810 -0.0235  0.5358 -1.2795
   35POPC   H6Y 4739   2.545   1.229   9.850 -0.2161  0.3981  1.3490
   35POPC   C37 4740   2.728   1.221   9.715 -0.5500 -0.1883 -0.3879
   35POPC   H7X 4741   2.774   1.120   9.727  0.6862  0.0892 -2.2468
   35POPC   H7Y 4742   2.807   1.297   9.698  0.2193 -1.4893 -3.2279
   35POPC   C38 4743   2.661   1.216   9.578 -0.1016  0.0521  0.5362
   35POPC   H8X 4744   2.585   1.296   9.578 -0.2575 -0.0885  1.2571
   35POPC   H8Y 4745   2.610   1.118   9.569 -0.0873 -0.0338  1.2782
   35POPC   C39 4746   2.763   1.223   9.464 -0.9452 -0.2862 -0.5591
   35POPC   H9X 4747   2.825   1.132   9.475 -0.7964 -0.1607 -0.3587
   35POPC   H9Y 4748   2.833   1.309   9.465  0.6220 -1.4819  1.5241
   35POPC  C310 4749   2.698   1.222   9.319 -0.7119  0.2898  0.4116
   35POPC  H10X 4750   2.647   1.320   9.307  0.0994  0.5351 -1.2860
   35POPC  H10Y 4751   2.628   1.135   9.308  1.4880 -1.4475 -0.6055
   35POPC  C311 4752   2.805   1.203   9.212 -0.2406 -0.0250  0.1175
   35POPC  H11X 4753   2.858   1.112   9.246 -2.7578 -1.4088  0.6408
   35POPC  H11Y 4754   2.871   1.292   9.216 -0.9252  0.5265  4.3852
   35POPC  C312 4755   2.763   1.182   9.067 -0.4292  0.4184 -0.3831
   35POPC  H12X 4756   2.699   1.270   9.047 -0.1176  0.1834 -2.6496
   35POPC  H12Y 4757   2.700   1.091   9.055  0.5612 -0.3445  0.0372
   35POPC  C313 4758   2.885   1.191   8.969  0.2625  0.5666 -0.0559
   35POPC  H13X 4759   2.959   1.113   8.998  0.3923  0.1390 -1.4408
   35POPC  H13Y 4760   2.940   1.286   8.987 -0.4118  1.5177 -2.5324
   35POPC  C314 4761   2.855   1.172   8.818  0.3815  0.5425  0.3279
   35POPC  H14X 4762   2.946   1.172   8.754 -0.3256  0.5887 -0.7046
   35POPC  H14Y 4763   2.797   1.255   8.773 -0.2984  0.6794  1.4152
   35POPC  C315 4764   2.779   1.043   8.783  0.4989 -0.2863 -0.3993
   35POPC  H15X 4765   2.766   0.977   8.871  1.6270  2.2768  1.7973
   35POPC  H15Y 4766   2.843   0.987   8.712  2.1184 -0.0224  0.8069
   35POPC  C316 4767   2.644   1.076   8.715 -0.5924  0.6060 -0.3446
   35POPC  H16X 4768   2.575   0.990   8.727 -0.3840  0.5418  0.4471
   35POPC  H16Y 4769   2.662   1.105   8.609  2.3620 -1.3919 -0.5031
   35POPC  H16Z 4770   2.581   1.144   8.777 -1.9118 -0.2570 -0.6948
   36POPC     N 4771   0.694   5.650  11.460  0.0407  0.3290 -0.4312
   36POPC   C12 4772   0.747   5.671  11.327  0.2714  0.2455 -0.7920
   36POPC  H12A 4773   0.847   5.631  11.331 -0.2432 -1.4764 -3.0586
   36POPC  H12B 4774   0.749   5.778  11.309 -1.4355  1.5588  4.8755
   36POPC   C13 4775   0.549   5.670  11.464  0.0935 -0.0896  0.6956
   36POPC  H13A 4776   0.504   5.644  11.559 -0.0238 -0.9269  0.4177
   36POPC  H13B 4777   0.534   5.774  11.441  0.8862  0.0113  0.6019
   36POPC  H13C 4778   0.515   5.620  11.375  0.8357  0.1463  0.2675
   36POPC   C14 4779   0.711   5.504  11.498  0.0700  0.1050 -1.5052
   36POPC  H14A 4780   0.817   5.491  11.512 -0.5750 -2.2178  3.3942
   36POPC  H14B 4781   0.660   5.478  11.590 -0.4882  1.5873 -1.3514
   36POPC  H14C 4782   0.679   5.443  11.415  0.7760 -1.2749 -0.7918
   36POPC   C15 4783   0.755   5.738  11.566 -0.7651 -0.0183  1.0502
   36POPC  H15A 4784   0.717   5.714  11.664 -1.1376 -0.6885  0.7528
   36POPC  H15B 4785   0.730   5.841  11.544  1.1759  0.2767 -0.0480
   36POPC  H15C 4786   0.861   5.724  11.576 -0.5334  2.1168  2.2971
   36POPC   C11 4787   0.679   5.598  11.203  0.0780 -0.4185  0.0968
   36POPC  H11A 4788   0.689   5.489  11.223  1.7890 -0.0882  1.2222
   36POPC  H11B 4789   0.743   5.619  11.114  0.8698 -1.7916  0.3174
   36POPC     P 4790   0.490   5.747  11.096 -0.0975 -0.0687  0.1112
   36POPC   O13 4791   0.534   5.876  11.142  0.3696 -0.3197  0.3079
   36POPC   O14 4792   0.345   5.736  11.080  0.4491 -0.2553  0.0675
   36POPC   O12 4793   0.539   5.635  11.182 -0.5728 -0.1869 -0.1831
   36POPC   O11 4794   0.555   5.703  10.954  0.2496 -0.3617  0.1183
   36POPC    C1 4795   0.470   5.709  10.833 -0.4970  0.1977  0.1119
   36POPC    HA 4796   0.378   5.646  10.832 -0.5549  0.2900 -0.9636
   36POPC    HB 4797   0.531   5.660  10.754  0.6833  2.5281 -0.5176
   36POPC    C2 4798   0.421   5.852  10.783 -0.0414 -0.6507  0.7147
   36POPC    HS 4799   0.336   5.883  10.846 -0.9727  0.0675 -0.8359
   36POPC   O21 4800   0.379   5.842  10.646  0.2984  0.2728 -0.5118
   36POPC   C21 4801   0.259   5.891  10.620 -0.2704 -0.4025 -0.3743
   36POPC   O22 4802   0.179   5.948  10.695 -0.0782  0.5494  0.2389
   36POPC   C22 4803   0.224   5.847  10.488  0.0270 -0.5977 -0.1290
   36POPC   H2R 4804   0.225   5.736  10.488  0.4271 -0.6006  0.8313
   36POPC   H2S 4805   0.311   5.876  10.425  1.3003  1.4770  2.4149
   36POPC    C3 4806   0.537   5.956  10.786 -0.7400 -0.2348 -0.1199
   36POPC    HX 4807   0.613   5.902  10.724  1.4958  2.0847  0.4198
   36POPC    HY 4808   0.582   5.977  10.885 -2.0792  0.0236  0.4483
   36POPC   O31 4809   0.503   6.087  10.725  0.1478  0.7882 -0.7025
   36POPC   C31 4810   0.556   6.123  10.609  0.5530  0.1542  0.1445
   36POPC   O32 4811   0.623   6.044  10.542  0.1980  0.7189  0.4232
   36POPC   C32 4812   0.506   6.262  10.564 -0.5502 -0.5225  0.0087
   36POPC   H2X 4813   0.547   6.349  10.621 -0.8734  0.0589 -0.6288
   36POPC   H2Y 4814   0.398   6.261  10.592 -0.7639 -1.1104 -0.8102
   36POPC   C23 4815   0.090   5.914  10.440 -1.1945  0.3997 -0.3632
   36POPC   H3R 4816   0.090   6.023  10.461 -0.5373  0.5369 -1.0310
   36POPC   H3S 4817   0.006   5.864  10.493 -0.5634 -0.0514  0.2307
   36POPC   C24 4818   0.073   5.896  10.288  0.6528 -0.5706  0.1166
   36POPC   H4R 4819   0.138   5.814  10.252 -1.3346 -1.7581 -0.9312
   36POPC   H4S 4820   0.104   5.987  10.232  0.9152 -0.3496  0.6170
   36POPC   C25 4821  -0.076   5.873  10.246 -0.3852 -0.8875  0.0594
   36POPC   H5R 4822  -0.133   5.953  10.298 -0.1879 -0.2352 -0.6945
   36POPC   H5S 4823  -0.119   5.777  10.282 -3.0501 -0.0798 -0.7313
   36POPC   C26 4824  -0.092   5.890  10.100  0.4975  0.4709  0.2733
   36POPC   H6R 4825  -0.075   5.995  10.069  2.0999  1.3394  3.6714
   36POPC   H6S 4826  -0.197   5.858  10.084  0.5677  0.3930 -0.0313
   36POPC   C27 4827  -0.018   5.787  10.018  0.2049  0.6758 -0.0470
   36POPC   H7R 4828  -0.010   5.689  10.068 -0.1459  0.4914 -0.3480
   36POPC   H7S 4829   0.088   5.821  10.017 -0.4942  3.1018  0.5103
   36POPC   C28 4830  -0.063   5.770   9.868  0.3134 -0.7147  0.1032
   36POPC   H8R 4831  -0.107   5.864   9.830  1.6110  0.9448  2.4403
   36POPC   H8S 4832  -0.144   5.693   9.871  1.6701 -2.1858  1.5356
   36POPC   C29 4833   0.045   5.716   9.772  0.2619  0.1346 -0.1481
   36POPC   H91 4834   0.153   5.738   9.775  0.5173 -1.0002 -0.7083
   36POPC  C210 4835   0.010   5.645   9.661  0.5543  0.3696 -0.6837
   36POPC  H101 4836   0.090   5.602   9.600  1.2018 -0.6177  0.7889
   36POPC  C211 4837  -0.122   5.601   9.618  1.0245 -0.3720  0.0977
   36POPC  H11R 4838  -0.173   5.686   9.567 -1.6393 -2.6614 -1.3693
   36POPC  H11S 4839  -0.194   5.571   9.697  1.7532  2.6205  2.0615
   36POPC  C212 4840  -0.128   5.490   9.521  0.2095  0.7990  0.0596
   36POPC  H12R 4841  -0.203   5.409   9.538 -1.3851  2.5586  1.8298
   36POPC  H12S 4842  -0.032   5.435   9.509  0.3254 -0.1279  3.9011
   36POPC  C213 4843  -0.154   5.554   9.380  0.3226  0.1461 -0.0019
   36POPC  H13R 4844  -0.067   5.615   9.349  1.1037 -1.1870 -0.5462
   36POPC  H13S 4845  -0.243   5.621   9.372  0.2249  0.1888  1.2363
   36POPC  C214 4846  -0.160   5.446   9.268  0.5408 -0.4165 -0.7115
   36POPC  H14R 4847  -0.253   5.385   9.277  0.2023  0.2891  0.9271
   36POPC  H14S 4848  -0.076   5.374   9.279 -0.5440 -1.7576 -0.8497
   36POPC  C215 4849  -0.162   5.502   9.119 -0.5324  0.2304  0.5126
   36POPC  H15R 4850  -0.084   5.580   9.103  0.2068 -0.7554 -1.0040
   36POPC  H15S 4851  -0.253   5.563   9.100  1.2681  2.8893 -0.0128
   36POPC  C216 4852  -0.134   5.393   9.019  0.2674 -0.3257  0.3947
   36POPC  H16R 4853  -0.156   5.411   8.912  0.1453 -2.1744  0.0860
   36POPC  H16S 4854  -0.208   5.314   9.042 -1.8631  0.7877 -2.1753
   36POPC  C217 4855   0.007   5.330   9.017 -0.3418  0.4041 -0.3457
   36POPC  H17R 4856   0.028   5.292   9.119 -1.0367 -0.8315 -0.6394
   36POPC  H17S 4857   0.082   5.406   8.987 -1.6266  1.7955 -0.1747
   36POPC  C218 4858   0.022   5.206   8.927  0.2354 -0.3398 -0.4451
   36POPC  H18R 4859   0.010   5.224   8.818 -1.7506 -2.2256 -0.6044
   36POPC  H18S 4860  -0.058   5.130   8.936  0.1360 -0.2163 -0.2851
   36POPC  H18T 4861   0.119   5.156   8.950 -0.1532  0.2990  3.2884
   36POPC   C33 4862   0.530   6.283  10.412 -0.1633 -0.2683 -0.0462
   36POPC   H3X 4863   0.637   6.273  10.385 -0.6071 -0.1689 -2.0256
   36POPC   H3Y 4864   0.509   6.387  10.379 -0.6700 -0.4333 -0.2617
   36POPC   C34 4865   0.445   6.201  10.317  0.1898  0.6709 -0.1955
   36POPC   H4X 4866   0.337   6.196  10.344  0.4234 -0.6938  0.5437
   36POPC   H4Y 4867   0.469   6.094  10.333 -4.1249 -0.4657 -0.0999
   36POPC   C35 4868   0.454   6.245  10.169 -0.9137 -0.4449 -0.0991
   36POPC   H5X 4869   0.560   6.240  10.138 -0.9895  0.3575 -0.5248
   36POPC   H5Y 4870   0.421   6.350  10.153 -2.4211 -1.1282 -1.7460
   36POPC   C36 4871   0.349   6.176  10.076 -0.7386  0.5825 -0.5697
   36POPC   H6X 4872   0.246   6.213  10.098 -1.6954 -1.3389 -1.5528
   36POPC   H6Y 4873   0.355   6.068  10.099 -0.0594  0.7403  0.0187
   36POPC   C37 4874   0.372   6.215   9.932  0.0274 -0.7338  0.3224
   36POPC   H7X 4875   0.479   6.228   9.904 -0.7313  2.1986 -1.6726
   36POPC   H7Y 4876   0.318   6.309   9.907 -0.0195 -0.3805  1.6636
   36POPC   C38 4877   0.307   6.117   9.839  0.3707  0.9096  0.0327
   36POPC   H8X 4878   0.198   6.100   9.851  0.4562 -2.7830 -2.6954
   36POPC   H8Y 4879   0.346   6.014   9.846 -0.1636  0.6155 -1.1138
   36POPC   C39 4880   0.333   6.151   9.697 -0.1272 -0.0426 -0.3025
   36POPC   H9X 4881   0.434   6.135   9.654 -0.8434 -1.1657 -1.6217
   36POPC   H9Y 4882   0.303   6.255   9.671  0.6950  0.4442  0.6136
   36POPC  C310 4883   0.233   6.066   9.613  0.0486 -0.2493 -0.1406
   36POPC  H10X 4884   0.130   6.071   9.653 -0.8086 -1.6154 -1.9993
   36POPC  H10Y 4885   0.253   5.957   9.626 -1.2154 -0.4923 -0.1657
   36POPC  C311 4886   0.236   6.097   9.467  0.1924  0.2124  0.2754
   36POPC  H11X 4887   0.208   6.199   9.434  0.6961  0.6385  1.1407
   36POPC  H11Y 4888   0.162   6.033   9.416  0.0089 -0.0066  0.8127
   36POPC  C312 4889   0.373   6.069   9.401 -0.1755  0.0199  0.7501
   36POPC  H12X 4890   0.397   5.964   9.428 -0.9231  0.5430  3.8410
   36POPC  H12Y 4891   0.447   6.127   9.460 -0.6521 -0.4255  1.8137
   36POPC  C313 4892   0.381   6.106   9.247  0.1108  0.6954  0.4528
   36POPC  H13X 4893   0.362   6.215   9.239 -1.0424  0.4703 -0.0358
   36POPC  H13Y 4894   0.303   6.060   9.184  0.5005 -0.4273  0.7594
   36POPC  C314 4895   0.514   6.078   9.177  0.5908 -0.1408 -0.1987
   36POPC  H14X 4896   0.546   5.973   9.196 -0.2791 -0.5487 -0.9362
   36POPC  H14Y 4897   0.585   6.146   9.230  0.7858  0.3207 -1.0331
   36POPC  C315 4898   0.516   6.102   9.023 -0.3409 -0.6478  0.4248
   36POPC  H15X 4899   0.484   6.206   8.999  1.2171  0.1456  1.6277
   36POPC  H15Y 4900   0.450   6.025   8.977 -1.7532  0.3109  0.8026
   36POPC  C316 4901   0.657   6.084   8.970  0.1781  0.2231  0.2328
   36POPC  H16X 4902   0.643   6.103   8.861  1.2033  0.2729  0.1018
   36POPC  H16Y 4903   0.681   5.975   8.973 -2.1222 -0.3663 -0.1954
   36POPC  H16Z 4904   0.733   6.149   9.017  0.3038 -0.0670  0.4331
   37POPC     N 4905   0.624   5.625   6.195  0.0604  0.2343 -0.0221
   37POPC   C12 4906   0.610   5.677   6.334 -0.2537 -0.0047  0.2523
   37POPC  H12A 4907   0.509   5.704   6.360 -0.8468  0.8941 -2.6277
   37POPC  H12B 4908   0.656   5.775   6.327 -0.9200  0.2420 -0.8115
   37POPC   C13 4909   0.761   5.616   6.144  0.1330 -0.6222 -0.2372
   37POPC  H13A 4910   0.770   5.605   6.037  1.4186 -0.3521 -0.1694
   37POPC  H13B 4911   0.800   5.716   6.152 -0.4738 -0.4764  1.1392
   37POPC  H13C 4912   0.823   5.545   6.196  1.9513  0.7146 -0.5014
   37POPC   C14 4913   0.564   5.492   6.181 -0.3094  0.3284 -0.4528
   37POPC  H14A 4914   0.557   5.456   6.079  0.4174 -0.5288 -0.2088
   37POPC  H14B 4915   0.622   5.418   6.234  3.2984  1.6358 -2.2572
   37POPC  H14C 4916   0.469   5.501   6.232  0.3317  0.5751  0.7255
   37POPC   C15 4917   0.546   5.707   6.099 -0.3637 -0.0970  0.4018
   37POPC  H15A 4918   0.567   5.679   5.997  1.1430 -0.0951  0.6883
   37POPC  H15B 4919   0.576   5.808   6.122  3.4855 -1.1890  0.8547
   37POPC  H15C 4920   0.440   5.699   6.115 -0.1467 -1.4218  1.4238
   37POPC   C11 4921   0.686   5.611   6.455 -0.0112 -0.1763 -0.2235
   37POPC  H11A 4922   0.664   5.684   6.535 -1.3987 -0.0101 -0.7251
   37POPC  H11B 4923   0.793   5.602   6.426  0.3868  0.1275  1.1082
   37POPC     P 4924   0.515   5.460   6.590 -0.3515  0.0629 -0.4673
   37POPC   O13 4925   0.440   5.340   6.542  0.4539 -0.1734 -0.3395
   37POPC   O14 4926   0.448   5.589   6.610 -0.5724  0.1345 -0.5659
   37POPC   O12 4927   0.631   5.484   6.485  0.1575 -0.0670  0.3593
   37POPC   O11 4928   0.596   5.424   6.724  0.0494 -0.1179 -0.3025
   37POPC    C1 4929   0.732   5.447   6.763  0.8060  0.7396 -0.1435
   37POPC    HA 4930   0.774   5.534   6.708 -2.3418  3.7502  1.8495
   37POPC    HB 4931   0.803   5.366   6.735  1.4471  1.6162 -1.0985
   37POPC    C2 4932   0.739   5.479   6.914  0.5230  1.4888  0.2741
   37POPC    HS 4933   0.844   5.506   6.938  0.3547  2.6902 -0.2551
   37POPC   O21 4934   0.692   5.357   6.979  0.9415 -0.4958 -0.1125
   37POPC   C21 4935   0.768   5.247   6.967 -0.3481 -0.4001 -0.3155
   37POPC   O22 4936   0.883   5.250   6.924  0.3929  0.0222  0.3845
   37POPC   C22 4937   0.698   5.117   7.012  0.5426  0.2340  0.1571
   37POPC   H2R 4938   0.760   5.040   6.962  2.0228 -0.0415  2.2894
   37POPC   H2S 4939   0.589   5.125   6.992  0.7164  0.3965 -0.7768
   37POPC    C3 4940   0.643   5.588   6.955  0.1328 -0.4220  0.3529
   37POPC    HX 4941   0.539   5.553   6.939 -0.9152  2.9508 -1.1161
   37POPC    HY 4942   0.644   5.672   6.883 -1.2115  0.8290  1.7249
   37POPC   O31 4943   0.676   5.641   7.086  0.0044 -0.1317  0.3820
   37POPC   C31 4944   0.613   5.759   7.108  0.1465  0.3544  0.4630
   37POPC   O32 4945   0.537   5.815   7.031  0.0827  0.1830  0.4668
   37POPC   C32 4946   0.645   5.827   7.236  0.2929 -0.4701 -0.3133
   37POPC   H2X 4947   0.554   5.858   7.291 -0.1356 -1.5952 -0.3630
   37POPC   H2Y 4948   0.712   5.915   7.222 -0.2993 -0.2379 -1.7885
   37POPC   C23 4949   0.703   5.084   7.165 -0.5948 -0.4035  0.7210
   37POPC   H3R 4950   0.807   5.094   7.203 -0.5879 -1.2947  0.9712
   37POPC   H3S 4951   0.677   4.976   7.173  0.5768 -0.7403  0.1449
   37POPC   C24 4952   0.612   5.179   7.247 -0.3819  0.6026  0.7548
   37POPC   H4R 4953   0.509   5.153   7.213  1.3346 -1.7147 -3.3510
   37POPC   H4S 4954   0.633   5.287   7.230 -0.4531  0.6097  0.7093
   37POPC   C25 4955   0.626   5.137   7.398 -0.1145 -0.3307 -0.6865
   37POPC   H5R 4956   0.731   5.143   7.433  0.4642  0.7241 -2.4774
   37POPC   H5S 4957   0.592   5.033   7.413 -0.4755  0.0517  1.5772
   37POPC   C26 4958   0.552   5.227   7.493  0.0784 -0.9184 -0.2407
   37POPC   H6R 4959   0.518   5.166   7.580 -0.3962  0.0788  0.2910
   37POPC   H6S 4960   0.458   5.256   7.440  0.6325 -0.4143 -0.9641
   37POPC   C27 4961   0.623   5.364   7.532 -0.1296 -0.0765 -0.2963
   37POPC   H7R 4962   0.664   5.408   7.438 -0.8114  0.4452 -0.3563
   37POPC   H7S 4963   0.711   5.354   7.600  0.5888  0.1994 -1.1639
   37POPC   C28 4964   0.532   5.469   7.603 -0.1894  0.5726 -0.4143
   37POPC   H8R 4965   0.465   5.518   7.529  0.7942 -0.2355 -1.8825
   37POPC   H8S 4966   0.599   5.552   7.636  0.4780 -0.8099  1.9403
   37POPC   C29 4967   0.446   5.428   7.718 -0.2209 -0.8428 -0.8084
   37POPC   H91 4968   0.340   5.411   7.696 -0.1233 -2.2375 -0.3124
   37POPC  C210 4969   0.489   5.410   7.845 -0.7581  0.3534 -0.4703
   37POPC  H101 4970   0.422   5.370   7.922  0.9404 -0.4061  0.6972
   37POPC  C211 4971   0.629   5.425   7.904 -1.0237 -0.2176  0.2801
   37POPC  H11R 4972   0.695   5.500   7.855 -0.7435 -0.3588  0.4380
   37POPC  H11S 4973   0.682   5.328   7.893 -2.1651 -0.6706 -1.6458
   37POPC  C212 4974   0.622   5.467   8.048  0.9265  0.0107 -0.1584
   37POPC  H12R 4975   0.723   5.449   8.091  0.7618 -0.5768 -0.0098
   37POPC  H12S 4976   0.566   5.389   8.104  1.8410  0.9925  2.2814
   37POPC  C213 4977   0.578   5.606   8.083  0.1468 -0.0291  0.4656
   37POPC  H13R 4978   0.470   5.616   8.058  0.3115 -0.4626 -0.4842
   37POPC  H13S 4979   0.639   5.683   8.031  1.9540 -0.7102  1.4941
   37POPC  C214 4980   0.581   5.623   8.235  0.9818 -0.2909  0.3476
   37POPC  H14R 4981   0.682   5.608   8.280  0.1410 -3.9470  1.3868
   37POPC  H14S 4982   0.519   5.544   8.283  2.3973 -0.0840  2.6608
   37POPC  C215 4983   0.516   5.753   8.279  0.4516  0.3637 -0.1087
   37POPC  H15R 4984   0.416   5.775   8.237  0.1823  0.7334  0.7237
   37POPC  H15S 4985   0.587   5.836   8.259 -0.7560  1.5718  0.5190
   37POPC  C216 4986   0.498   5.759   8.435  0.5211 -0.1731  0.1591
   37POPC  H16R 4987   0.592   5.716   8.476  1.6907  0.9627 -1.2184
   37POPC  H16S 4988   0.407   5.703   8.467 -0.0099  0.5157 -0.1459
   37POPC  C217 4989   0.477   5.902   8.490  0.7798  0.1030 -0.3502
   37POPC  H17R 4990   0.372   5.933   8.472 -0.1756 -1.3939  2.1420
   37POPC  H17S 4991   0.539   5.969   8.426 -2.5945  0.6485 -3.3694
   37POPC  C218 4992   0.517   5.913   8.639  0.3469  0.2981 -0.1774
   37POPC  H18R 4993   0.526   6.014   8.683  2.5799 -0.4107  1.1603
   37POPC  H18S 4994   0.612   5.859   8.655 -0.3254 -0.5375  1.2691
   37POPC  H18T 4995   0.442   5.853   8.696 -1.5672  0.5149 -2.3280
   37POPC   C33 4996   0.716   5.737   7.342 -0.3886  0.2875 -0.3881
   37POPC   H3X 4997   0.799   5.673   7.304  0.0401 -0.8837  2.3038
   37POPC   H3Y 4998   0.640   5.660   7.365  0.9436 -0.3002  2.4760
   37POPC   C34 4999   0.772   5.819   7.454 -0.8916  0.3603  0.3204
   37POPC   H4X 5000   0.694   5.839   7.531  1.6662 -1.0775  3.5900
   37POPC   H4Y 5001   0.830   5.908   7.423 -0.0631 -1.2651 -3.2413
   37POPC   C35 5002   0.869   5.722   7.535 -0.5880  0.3936 -0.0355
   37POPC   H5X 5003   0.957   5.695   7.472 -0.8743 -2.3098  0.6073
   37POPC   H5Y 5004   0.805   5.635   7.562  0.4993  0.2642  2.3207
   37POPC   C36 5005   0.918   5.777   7.675  0.4477  0.0292 -0.3971
   37POPC   H6X 5006   0.826   5.810   7.728 -0.1095  0.7075 -1.7336
   37POPC   H6Y 5007   0.963   5.878   7.660  2.4554 -0.6426  0.7239
   37POPC   C37 5008   1.016   5.694   7.757 -0.4089  0.1073  0.1162
   37POPC   H7X 5009   1.117   5.674   7.715 -0.4629 -3.1869  1.2590
   37POPC   H7Y 5010   0.982   5.589   7.761 -0.2359 -0.0241 -1.4547
   37POPC   C38 5011   1.036   5.756   7.899  0.1799  0.9267  0.5001
   37POPC   H8X 5012   0.950   5.816   7.935  1.3173  2.9546  0.0254
   37POPC   H8Y 5013   1.125   5.822   7.907 -0.9916  2.8543 -1.3297
   37POPC   C39 5014   1.048   5.636   7.998 -0.1096 -0.0234  0.7478
   37POPC   H9X 5015   1.143   5.579   7.984 -0.9576 -1.2724 -0.1063
   37POPC   H9Y 5016   0.963   5.567   7.979  1.4162 -1.7705 -0.0579
   37POPC  C310 5017   1.041   5.675   8.147 -0.0505  0.4428 -0.5729
   37POPC  H10X 5018   0.945   5.722   8.178  1.0311  1.6343  1.1733
   37POPC  H10Y 5019   1.121   5.746   8.178  0.4428 -0.8966  1.4350
   37POPC  C311 5020   1.061   5.552   8.236  0.2708  0.3342 -0.6305
   37POPC  H11X 5021   1.156   5.500   8.212  0.7731  1.1728 -0.5177
   37POPC  H11Y 5022   0.972   5.486   8.231  0.1264  0.4652  0.1085
   37POPC  C312 5023   1.077   5.582   8.389 -0.7629 -0.2047  0.5024
   37POPC  H12X 5024   1.154   5.662   8.390 -1.2294  0.2639 -0.3300
   37POPC  H12Y 5025   1.114   5.492   8.444 -2.7884 -0.9900  0.6669
   37POPC  C313 5026   0.952   5.631   8.455 -0.5300 -0.2539 -1.1794
   37POPC  H13X 5027   0.878   5.548   8.459 -0.2593 -0.4477  0.6984
   37POPC  H13Y 5028   0.900   5.712   8.399 -0.0962  0.9728  0.1424
   37POPC  C314 5029   0.983   5.673   8.600  0.1875  0.1085 -0.6005
   37POPC  H14X 5030   1.066   5.746   8.611  0.6192 -0.5715  0.7659
   37POPC  H14Y 5031   1.010   5.588   8.665 -0.9791 -0.3576 -0.7032
   37POPC  C315 5032   0.859   5.747   8.659 -0.0999 -0.7734  0.2582
   37POPC  H15X 5033   0.777   5.678   8.689 -0.7135  0.2005  0.9015
   37POPC  H15Y 5034   0.817   5.821   8.587  3.0868  2.6602  1.6393
   37POPC  C316 5035   0.880   5.825   8.794  0.1583  0.2769  1.0521
   37POPC  H16X 5036   0.958   5.903   8.784  1.0396 -0.5581  1.2624
   37POPC  H16Y 5037   0.918   5.766   8.880  1.4292 -1.6143 -0.7075
   37POPC  H16Z 5038   0.792   5.888   8.820  0.8242  1.2163  1.0703
   38POPC     N 5039   3.651   4.628   5.857 -0.2672 -0.1195 -0.4818
   38POPC   C12 5040   3.544   4.638   5.964  0.0413 -0.0247 -0.5941
   38POPC  H12A 5041   3.457   4.581   5.934 -1.3767  0.1777  2.7107
   38POPC  H12B 5042   3.514   4.738   5.988 -0.8473 -0.5435  0.5625
   38POPC   C13 5043   3.699   4.491   5.844  0.2679 -0.5279 -0.7406
   38POPC  H13A 5044   3.755   4.477   5.935 -0.3836  2.2655  0.1839
   38POPC  H13B 5045   3.614   4.425   5.850 -0.0497  0.0043  3.0587
   38POPC  H13C 5046   3.764   4.466   5.762 -1.1220  0.2747 -2.1548
   38POPC   C14 5047   3.576   4.658   5.724  0.3092  0.1873 -0.3719
   38POPC  H14A 5048   3.499   4.583   5.716  0.9011 -0.7762  2.1289
   38POPC  H14B 5049   3.535   4.758   5.722  1.8836  0.9762  2.2958
   38POPC  H14C 5050   3.640   4.645   5.637 -1.0442  0.0020 -1.3771
   38POPC   C15 5051   3.765   4.721   5.886 -0.7618 -0.6797  0.5719
   38POPC  H15A 5052   3.814   4.684   5.974 -1.1202  0.1506  1.1329
   38POPC  H15B 5053   3.743   4.826   5.901  0.8640  0.1194 -2.0602
   38POPC  H15C 5054   3.832   4.713   5.802 -1.0387 -0.9537  0.3729
   38POPC   C11 5055   3.587   4.569   6.096 -0.0701  0.3369  0.0324
   38POPC  H11A 5056   3.606   4.461   6.080 -2.2626 -0.2677  1.0830
   38POPC  H11B 5057   3.506   4.570   6.172  0.0973  1.3403  0.2220
   38POPC     P 5058   3.696   4.767   6.229  0.1401  0.0060 -0.0352
   38POPC   O13 5059   3.611   4.862   6.156  0.0121  0.3782  0.2812
   38POPC   O14 5060   3.829   4.824   6.244  0.4295 -0.0344 -0.3512
   38POPC   O12 5061   3.710   4.627   6.152 -0.6487  0.0696 -0.7686
   38POPC   O11 5062   3.645   4.729   6.370  0.8105  0.1894 -0.7961
   38POPC    C1 5063   3.663   4.599   6.424  0.8776  0.0797  0.4563
   38POPC    HA 5064   3.772   4.582   6.438  1.0793  0.5178 -0.4728
   38POPC    HB 5065   3.630   4.523   6.349  1.0078 -0.0886  0.5671
   38POPC    C2 5066   3.590   4.571   6.559 -0.5780 -0.4705 -0.1203
   38POPC    HS 5067   3.482   4.569   6.534 -0.2688 -0.1505 -1.5280
   38POPC   O21 5068   3.624   4.672   6.657 -0.3940  0.7047  0.0373
   38POPC   C21 5069   3.549   4.660   6.766  0.1387 -0.6136 -0.2644
   38POPC   O22 5070   3.434   4.614   6.763 -0.1399 -0.1896 -0.2220
   38POPC   C22 5071   3.614   4.725   6.884 -0.4367  0.0666  0.2901
   38POPC   H2R 5072   3.531   4.754   6.952  0.6553  1.5106  1.0894
   38POPC   H2S 5073   3.660   4.816   6.839  1.9408 -1.4405 -0.4854
   38POPC    C3 5074   3.646   4.439   6.610 -0.8959  0.2408  0.2822
   38POPC    HX 5075   3.753   4.456   6.636 -0.6420  0.5278 -0.8820
   38POPC    HY 5076   3.652   4.367   6.525 -1.3432  0.5200  0.0108
   38POPC   O31 5077   3.588   4.376   6.730  0.1574 -0.3855 -0.2808
   38POPC   C31 5078   3.474   4.309   6.701  0.3060 -0.1203 -0.3958
   38POPC   O32 5079   3.428   4.301   6.592 -0.1343  0.7877 -0.0097
   38POPC   C32 5080   3.402   4.266   6.835 -0.7235  0.7945 -0.3654
   38POPC   H2X 5081   3.301   4.313   6.844 -1.6991 -1.4575  1.2717
   38POPC   H2Y 5082   3.460   4.308   6.919 -1.6793 -1.6910  1.6301
   38POPC   C23 5083   3.716   4.640   6.956 -0.3536 -0.0875 -0.1709
   38POPC   H3R 5084   3.777   4.594   6.875 -2.4133 -0.1478 -1.7736
   38POPC   H3S 5085   3.673   4.557   7.017  1.7335  0.5417  2.3297
   38POPC   C24 5086   3.811   4.711   7.049 -0.3860  0.4149  0.2130
   38POPC   H4R 5087   3.755   4.761   7.131 -1.5491  0.6705 -0.7118
   38POPC   H4S 5088   3.860   4.788   6.985 -0.8185 -1.1041 -2.0450
   38POPC   C25 5089   3.928   4.631   7.103  0.6235  0.2614  0.0882
   38POPC   H5R 5090   3.871   4.545   7.143 -1.3229  1.7911  0.7456
   38POPC   H5S 5091   3.980   4.685   7.185 -1.9561  0.8075  1.4789
   38POPC   C26 5092   4.035   4.577   6.999 -0.2266  0.6125  0.4422
   38POPC   H6R 5093   3.983   4.569   6.901  0.1803  1.9154  0.1006
   38POPC   H6S 5094   4.074   4.479   7.032  1.0994  1.4840  1.5598
   38POPC   C27 5095   4.158   4.665   6.960 -0.2881  0.1668 -0.3217
   38POPC   H7R 5096   4.126   4.771   6.950  0.5482  0.3883 -0.7229
   38POPC   H7S 5097   4.196   4.629   6.862 -0.0093 -0.8813  0.1542
   38POPC   C28 5098   4.269   4.675   7.068 -0.6167 -0.0830  0.2548
   38POPC   H8R 5099   4.316   4.576   7.087  0.5684  0.4718  0.2879
   38POPC   H8S 5100   4.230   4.707   7.167  3.1215 -0.8696  2.1822
   38POPC   C29 5101   4.372   4.780   7.031  0.1820 -0.3495 -0.5739
   38POPC   H91 5102   4.348   4.861   6.960 -0.5775 -0.6871 -0.7179
   38POPC  C210 5103   4.487   4.783   7.101  0.0112  0.8312 -0.5729
   38POPC  H101 5104   4.560   4.856   7.061 -0.9703  2.3688  0.3159
   38POPC  C211 5105   4.517   4.679   7.213 -0.0105 -0.2605  0.4720
   38POPC  H11R 5106   4.585   4.598   7.180  0.5675  0.2679  0.3495
   38POPC  H11S 5107   4.425   4.637   7.260 -0.5517  1.6042  1.1715
   38POPC  C212 5108   4.582   4.755   7.332  0.0286  0.4484 -0.2249
   38POPC  H12R 5109   4.506   4.828   7.367 -0.8631 -0.9870  0.9174
   38POPC  H12S 5110   4.672   4.807   7.292  0.7278 -0.8442 -0.4040
   38POPC  C213 5111   4.614   4.654   7.443 -0.7010 -0.0878  0.1860
   38POPC  H13R 5112   4.639   4.552   7.407 -0.3762 -0.6492  1.8778
   38POPC  H13S 5113   4.518   4.655   7.499 -0.6885  1.9723  0.2349
   38POPC  C214 5114   4.730   4.700   7.536 -0.0744  0.6667  0.0900
   38POPC  H14R 5115   4.700   4.800   7.572 -3.6365  0.1433 -1.0791
   38POPC  H14S 5116   4.827   4.709   7.483  0.2631 -0.9018  0.3836
   38POPC  C215 5117   4.763   4.605   7.651 -0.4957 -1.1347 -0.7420
   38POPC  H15R 5118   4.852   4.647   7.704  0.7814 -1.4685 -2.5421
   38POPC  H15S 5119   4.802   4.506   7.619 -1.7320 -1.2921 -1.8147
   38POPC  C216 5120   4.653   4.593   7.762 -0.2166 -0.0548 -0.5305
   38POPC  H16R 5121   4.576   4.528   7.714 -0.7668  0.5596 -0.4921
   38POPC  H16S 5122   4.604   4.693   7.769 -0.5154 -0.2248 -0.0903
   38POPC  C217 5123   4.710   4.551   7.894 -0.2749  0.9709  0.7841
   38POPC  H17R 5124   4.795   4.611   7.934  1.2882 -0.8721  0.3844
   38POPC  H17S 5125   4.753   4.448   7.888  1.3559  1.4163  3.3546
   38POPC  C218 5126   4.621   4.558   8.019 -0.4023  0.3519 -0.1185
   38POPC  H18R 5127   4.683   4.534   8.108  1.8349  1.2451 -1.3574
   38POPC  H18S 5128   4.539   4.483   8.011  1.0136 -1.2782  0.0296
   38POPC  H18T 5129   4.584   4.661   8.037  0.8132  0.8946 -0.6410
   38POPC   C33 5130   3.384   4.114   6.845  0.0390 -0.4524 -0.2008
   38POPC   H3X 5131   3.487   4.072   6.847 -0.3299 -1.3764  0.3989
   38POPC   H3Y 5132   3.325   4.071   6.761 -0.6928  1.7299 -0.8633
   38POPC   C34 5133   3.322   4.081   6.983 -0.3052 -0.0399  0.1658
   38POPC   H4X 5134   3.214   4.098   7.002  0.0710 -0.3608  2.9013
   38POPC   H4Y 5135   3.362   4.141   7.067 -2.0536  1.4869 -0.0323
   38POPC   C35 5136   3.346   3.939   7.016 -0.2118 -0.1676 -0.0142
   38POPC   H5X 5137   3.456   3.927   7.006  0.2464  1.4920  2.1512
   38POPC   H5Y 5138   3.275   3.883   6.952 -2.5276  1.8684  0.5680
   38POPC   C36 5139   3.311   3.894   7.161  0.2349 -0.4198  0.2566
   38POPC   H6X 5140   3.321   3.783   7.168  1.2573 -0.2836  1.0932
   38POPC   H6Y 5141   3.204   3.925   7.168  0.2397 -0.8093  3.1792
   38POPC   C37 5142   3.389   3.959   7.276 -0.0855  0.8285  0.0503
   38POPC   H7X 5143   3.344   4.057   7.302 -1.8477 -0.0354  0.4123
   38POPC   H7Y 5144   3.493   3.966   7.239  0.4749 -2.5677  0.6538
   38POPC   C38 5145   3.392   3.870   7.402 -0.6801 -0.6343  0.0955
   38POPC   H8X 5146   3.407   3.768   7.362 -0.9795 -0.4037 -0.6265
   38POPC   H8Y 5147   3.293   3.887   7.448 -0.1082  2.2889  0.4399
   38POPC   C39 5148   3.503   3.911   7.498  0.5199  0.1032 -0.3813
   38POPC   H9X 5149   3.551   4.004   7.462  0.4145  0.3320  0.0605
   38POPC   H9Y 5150   3.575   3.827   7.501  0.1348 -0.2126  0.4912
   38POPC  C310 5151   3.447   3.930   7.644  0.1230  0.4656  0.7029
   38POPC  H10X 5152   3.401   3.834   7.674 -0.3982  0.5019  0.0454
   38POPC  H10Y 5153   3.366   4.006   7.638 -0.9880 -0.7798 -1.3033
   38POPC  C311 5154   3.568   3.936   7.743  0.6238 -1.1527  0.1267
   38POPC  H11X 5155   3.625   4.031   7.737  0.5223 -1.1081 -0.1491
   38POPC  H11Y 5156   3.645   3.858   7.725  2.7521  0.7250  0.7029
   38POPC  C312 5157   3.519   3.918   7.889 -0.5991  0.2464 -0.0577
   38POPC  H12X 5158   3.468   3.820   7.904 -0.0196  0.0380  0.6391
   38POPC  H12Y 5159   3.433   3.989   7.893  0.0159  1.0322 -0.6582
   38POPC  C313 5160   3.628   3.948   7.998  0.1436  0.5770  0.2374
   38POPC  H13X 5161   3.582   3.993   8.089  1.8851  2.8891  0.0688
   38POPC  H13Y 5162   3.692   4.030   7.960  1.0804  0.6031  1.7864
   38POPC  C314 5163   3.710   3.826   8.036 -0.0005  0.4044 -0.0781
   38POPC  H14X 5164   3.786   3.813   7.956 -0.0297 -0.5535  0.0365
   38POPC  H14Y 5165   3.644   3.737   8.029 -0.9792  0.9823  1.3118
   38POPC  C315 5166   3.786   3.838   8.163  0.3710  1.2851  0.0140
   38POPC  H15X 5167   3.707   3.855   8.239 -0.2163  1.9394 -0.7256
   38POPC  H15Y 5168   3.855   3.925   8.155  2.6595 -0.2813  1.7163
   38POPC  C316 5169   3.888   3.716   8.190  0.4070 -0.1093 -0.5830
   38POPC  H16X 5170   3.956   3.704   8.103  1.9111  1.4331  0.3273
   38POPC  H16Y 5171   3.823   3.628   8.211 -0.3750  0.3873 -0.8524
   38POPC  H16Z 5172   3.951   3.747   8.276  0.2579 -1.7087  0.1316
   39POPC     N 5173   1.169   0.760   6.086 -0.5712 -0.3148  0.3929
   39POPC   C12 5174   1.045   0.740   6.172  0.5960  0.6993 -0.9350
   39POPC  H12A 5175   1.003   0.838   6.193  0.8164  0.8939 -1.3926
   39POPC  H12B 5176   1.080   0.695   6.263  0.4674  2.8606  0.2606
   39POPC   C13 5177   1.135   0.787   5.942  0.2550 -0.0837  0.3173
   39POPC  H13A 5178   1.226   0.792   5.884 -0.9570  1.1985 -1.5474
   39POPC  H13B 5179   1.082   0.700   5.908  2.3249 -1.1900 -0.2785
   39POPC  H13C 5180   1.069   0.871   5.928 -1.5524 -1.6038 -0.7356
   39POPC   C14 5181   1.251   0.878   6.138  0.3296 -0.0141 -0.3706
   39POPC  H14A 5182   1.198   0.972   6.133  0.1618  0.1135  2.3743
   39POPC  H14B 5183   1.281   0.860   6.240  2.4339  0.8892 -0.7757
   39POPC  H14C 5184   1.333   0.893   6.069 -1.1683 -0.9193 -2.4220
   39POPC   C15 5185   1.247   0.636   6.088  0.3211 -0.2401 -0.3423
   39POPC  H15A 5186   1.209   0.562   6.019 -1.1758 -2.5286  2.6994
   39POPC  H15B 5187   1.252   0.603   6.191  1.3719  1.1472  0.0875
   39POPC  H15C 5188   1.348   0.661   6.058  0.9264 -0.8775  1.0984
   39POPC   C11 5189   0.945   0.649   6.107  0.3054  0.1869  0.1231
   39POPC  H11A 5190   0.893   0.691   6.018 -0.4573 -0.9754 -0.0025
   39POPC  H11B 5191   0.854   0.639   6.169 -0.5297 -0.6109 -1.1747
   39POPC     P 5192   0.974   0.406   6.180  0.1971 -0.0501 -0.5413
   39POPC   O13 5193   1.084   0.306   6.161 -0.1030  0.0204 -0.0326
   39POPC   O14 5194   0.843   0.347   6.175  0.4823  0.2958 -1.0284
   39POPC   O12 5195   0.991   0.515   6.076 -0.5416 -0.8870  0.1328
   39POPC   O11 5196   1.005   0.475   6.323 -0.0991 -0.0781  0.2887
   39POPC    C1 5197   0.909   0.537   6.402 -0.2904  1.0370  0.3825
   39POPC    HA 5198   0.807   0.536   6.358  0.5638 -0.2777 -1.7103
   39POPC    HB 5199   0.934   0.645   6.405  2.6196  0.6851 -3.3524
   39POPC    C2 5200   0.910   0.475   6.544  0.3751 -0.0660  0.0100
   39POPC    HS 5201   0.820   0.507   6.601 -1.0871 -2.0742 -1.0588
   39POPC   O21 5202   1.029   0.497   6.619  0.2550  0.1450 -0.9564
   39POPC   C21 5203   1.034   0.618   6.675  0.2510 -0.7415  0.0923
   39POPC   O22 5204   0.952   0.705   6.660 -0.0494  0.1158  0.0544
   39POPC   C22 5205   1.164   0.648   6.755 -0.1672  0.3080  0.4735
   39POPC   H2R 5206   1.156   0.755   6.786 -0.7091  0.3066  0.3455
   39POPC   H2S 5207   1.253   0.638   6.690 -0.4120 -0.3350  0.2363
   39POPC    C3 5208   0.888   0.321   6.521 -0.0657 -0.0240 -0.9732
   39POPC    HX 5209   0.984   0.273   6.491 -0.2587 -0.2334 -1.2630
   39POPC    HY 5210   0.809   0.305   6.445 -0.0795  0.7694 -1.1269
   39POPC   O31 5211   0.845   0.244   6.637 -0.3606 -0.3450 -0.0619
   39POPC   C31 5212   0.754   0.282   6.720  0.9071 -0.0463  0.3979
   39POPC   O32 5213   0.675   0.379   6.704  0.3134  0.2726 -0.0228
   39POPC   C32 5214   0.760   0.196   6.850  0.0386  0.6684  0.4049
   39POPC   H2X 5215   0.660   0.154   6.874  0.7656 -0.3597  1.7403
   39POPC   H2Y 5216   0.831   0.116   6.821  0.2452  0.3777  1.6484
   39POPC   C23 5217   1.177   0.558   6.878 -0.9847 -0.0422 -0.3695
   39POPC   H3R 5218   1.231   0.463   6.856 -0.0055  0.5815 -0.7137
   39POPC   H3S 5219   1.074   0.532   6.910 -1.1047  0.9174  0.0455
   39POPC   C24 5220   1.251   0.621   7.000 -0.3313 -0.1640 -0.4069
   39POPC   H4R 5221   1.194   0.714   7.021  0.7997  1.0251 -2.3104
   39POPC   H4S 5222   1.354   0.653   6.973 -0.1896  1.0366  1.3712
   39POPC   C25 5223   1.262   0.518   7.116 -0.3597  0.2541  0.0718
   39POPC   H5R 5224   1.326   0.431   7.089  0.8487  0.9422  0.6664
   39POPC   H5S 5225   1.161   0.479   7.142 -1.1712  1.3939 -1.1969
   39POPC   C26 5226   1.316   0.586   7.247  0.8833  0.1731 -0.4171
   39POPC   H6R 5227   1.398   0.650   7.210  0.6239  0.8679  0.1813
   39POPC   H6S 5228   1.357   0.505   7.310 -0.5514  0.1245  0.5169
   39POPC   C27 5229   1.204   0.657   7.320 -0.0622  0.4633  0.1594
   39POPC   H7R 5230   1.124   0.588   7.355  1.0613 -2.1404 -2.0640
   39POPC   H7S 5231   1.144   0.724   7.255 -2.8892 -3.1823 -1.3056
   39POPC   C28 5232   1.245   0.721   7.453  0.0867  0.5302  0.1672
   39POPC   H8R 5233   1.313   0.809   7.446  0.0703  0.5899  0.7278
   39POPC   H8S 5234   1.309   0.641   7.495  1.6079  2.1148  1.0011
   39POPC   C29 5235   1.121   0.761   7.531  0.2496  0.6208  0.5880
   39POPC   H91 5236   1.036   0.784   7.465 -1.8295 -0.8215  2.6003
   39POPC  C210 5237   1.106   0.772   7.659 -0.3167  0.4911  0.3128
   39POPC  H101 5238   1.007   0.782   7.705 -0.0613 -1.4272  1.3628
   39POPC  C211 5239   1.216   0.731   7.750 -0.0461 -0.1444  0.8700
   39POPC  H11R 5240   1.296   0.807   7.762  0.1381  0.0757 -1.2939
   39POPC  H11S 5241   1.261   0.637   7.712  0.2241 -0.5814  2.2168
   39POPC  C212 5242   1.169   0.700   7.892 -0.1152 -0.3528  0.0737
   39POPC  H12R 5243   1.233   0.615   7.922  1.6443  0.5486 -1.0025
   39POPC  H12S 5244   1.061   0.673   7.886 -0.2570  0.2812 -0.3451
   39POPC  C213 5245   1.193   0.811   7.996  0.0505 -0.0028  0.3425
   39POPC  H13R 5246   1.149   0.906   7.958  1.7516  0.5330 -0.3800
   39POPC  H13S 5247   1.303   0.825   7.999 -0.2455  3.2461  0.2399
   39POPC  C214 5248   1.135   0.770   8.130  0.7278 -0.0517  0.0100
   39POPC  H14R 5249   1.030   0.804   8.135  1.3293  2.1496 -1.1276
   39POPC  H14S 5250   1.187   0.828   8.209 -0.0336  0.3428  0.2262
   39POPC  C215 5251   1.128   0.625   8.171  0.0788  0.8188  0.0698
   39POPC  H15R 5252   1.231   0.581   8.175  1.3595  3.6915  2.3748
   39POPC  H15S 5253   1.070   0.563   8.100  0.8841 -0.1528  0.2222
   39POPC  C216 5254   1.077   0.600   8.310  0.2437  0.8697  0.1269
   39POPC  H16R 5255   1.148   0.637   8.387  0.4377  3.9018 -1.3582
   39POPC  H16S 5256   1.077   0.490   8.322 -1.7140  0.8405  0.2668
   39POPC  C217 5257   0.930   0.642   8.341  0.4085 -0.4725  0.5192
   39POPC  H17R 5258   0.867   0.589   8.265 -1.2873  0.1847  1.4261
   39POPC  H17S 5259   0.931   0.750   8.316  0.3686 -0.1499  1.8648
   39POPC  C218 5260   0.884   0.618   8.485  0.1853 -0.4615  0.4904
   39POPC  H18R 5261   0.782   0.660   8.499  0.3456  0.0849  0.0223
   39POPC  H18S 5262   0.947   0.665   8.563 -0.3416  0.8015  0.1785
   39POPC  H18T 5263   0.872   0.509   8.502  1.0952 -0.8779 -1.3126
   39POPC   C33 5264   0.823   0.271   6.970 -0.9202 -0.0141 -0.0232
   39POPC   H3X 5265   0.769   0.367   6.989  0.4946  0.7826  0.0820
   39POPC   H3Y 5266   0.917   0.308   6.924 -1.7676  1.1114 -0.9128
   39POPC   C34 5267   0.844   0.174   7.088  0.1725 -0.1218 -0.3530
   39POPC   H4X 5268   0.890   0.078   7.056  0.2743  0.0183 -0.6259
   39POPC   H4Y 5269   0.744   0.150   7.131  0.0002 -1.7068 -1.5675
   39POPC   C35 5270   0.922   0.233   7.198  0.7872  0.2931  0.0505
   39POPC   H5X 5271   0.854   0.306   7.247  0.6528  1.4046 -1.6819
   39POPC   H5Y 5272   1.013   0.291   7.169  0.3779  0.9274  0.0118
   39POPC   C36 5273   0.959   0.131   7.312 -0.7168 -0.1384  0.6976
   39POPC   H6X 5274   1.047   0.070   7.282 -0.9113  0.5325 -1.4387
   39POPC   H6Y 5275   0.881   0.056   7.339  0.4488 -1.6613  0.0057
   39POPC   C37 5276   0.983   0.201   7.443 -0.6211  0.0830  0.3058
   39POPC   H7X 5277   1.000   0.110   7.506  2.0937 -1.1773 -2.0402
   39POPC   H7Y 5278   0.896   0.263   7.474 -0.0819  1.0999 -0.1822
   39POPC   C38 5279   1.105   0.293   7.454 -0.4484 -0.3703 -0.4581
   39POPC   H8X 5280   1.069   0.394   7.427  0.9989 -0.3069 -2.3705
   39POPC   H8Y 5281   1.182   0.274   7.376  0.9729  0.6764  0.6427
   39POPC   C39 5282   1.172   0.293   7.594 -0.0040 -0.1786 -0.1143
   39POPC   H9X 5283   1.086   0.285   7.664 -0.7744  0.5165 -0.9615
   39POPC   H9Y 5284   1.212   0.396   7.602  0.9359 -0.5846  0.6414
   39POPC  C310 5285   1.274   0.190   7.633 -0.2385  0.7322  0.1219
   39POPC  H10X 5286   1.363   0.205   7.568  0.0931  1.4289  0.7276
   39POPC  H10Y 5287   1.229   0.091   7.607  0.4319  0.7517 -1.1702
   39POPC  C311 5288   1.312   0.176   7.783  0.0170 -0.4286 -0.1688
   39POPC  H11X 5289   1.414   0.134   7.793 -0.7405 -2.3747 -0.1344
   39POPC  H11Y 5290   1.238   0.105   7.825 -0.1448  0.4402  1.0675
   39POPC  C312 5291   1.305   0.318   7.856 -0.3384  0.5326  0.0456
   39POPC  H12X 5292   1.200   0.351   7.870 -1.3066 -2.2685  0.0126
   39POPC  H12Y 5293   1.356   0.391   7.789 -1.2996  0.5242 -0.7205
   39POPC  C313 5294   1.365   0.305   7.997 -0.1338 -0.0810 -0.1056
   39POPC  H13X 5295   1.384   0.409   8.031 -0.6905  0.3247 -0.9837
   39POPC  H13Y 5296   1.466   0.259   7.989 -0.2415 -0.4931  0.7561
   39POPC  C314 5297   1.281   0.228   8.096  0.8780  0.2728  0.3201
   39POPC  H14X 5298   1.267   0.121   8.068 -0.3297  0.4788  0.1082
   39POPC  H14Y 5299   1.183   0.278   8.110  1.2489  1.3181 -0.7261
   39POPC  C315 5300   1.345   0.211   8.236 -0.5279 -0.0924  0.5227
   39POPC  H15X 5301   1.378   0.315   8.260  1.1319 -0.3193 -0.6255
   39POPC  H15Y 5302   1.442   0.159   8.241 -0.1967  0.4447 -0.0547
   39POPC  C316 5303   1.254   0.148   8.339 -0.9316  0.0223 -0.4007
   39POPC  H16X 5304   1.311   0.143   8.434 -0.7942  0.0775 -0.4803
   39POPC  H16Y 5305   1.237   0.047   8.296 -1.8514  0.1147 -0.2609
   39POPC  H16Z 5306   1.162   0.210   8.337  0.6465  2.5089 -0.9051
   40POPC     N 5307   5.402   5.809   6.101 -0.0052 -0.3418 -0.4408
   40POPC   C12 5308   5.522   5.898   6.094 -0.4791  0.0043  0.1086
   40POPC  H12A 5309   5.492   5.999   6.067  2.2497  0.5481 -1.2326
   40POPC  H12B 5310   5.589   5.867   6.015  1.4639  0.2901  1.5611
   40POPC   C13 5311   5.335   5.781   5.969 -0.5408  0.1572 -0.6764
   40POPC  H13A 5312   5.390   5.708   5.912 -1.5379  0.1183 -1.6175
   40POPC  H13B 5313   5.251   5.715   5.987  0.4195 -1.7996 -2.8511
   40POPC  H13C 5314   5.310   5.868   5.910 -1.0573 -0.3070 -1.1536
   40POPC   C14 5315   5.439   5.680   6.159 -0.2019  0.8669  0.0830
   40POPC  H14A 5316   5.359   5.611   6.180  0.5485 -0.0703 -0.0972
   40POPC  H14B 5317   5.510   5.622   6.102 -0.4700 -3.2593  3.4077
   40POPC  H14C 5318   5.495   5.694   6.251  0.5171 -1.7038  0.1171
   40POPC   C15 5319   5.300   5.864   6.200  0.2261 -0.2864  0.3161
   40POPC  H15A 5320   5.215   5.799   6.213  0.7673 -1.0604  0.0389
   40POPC  H15B 5321   5.262   5.961   6.170  1.4680  0.7041  1.7928
   40POPC  H15C 5322   5.343   5.879   6.298  0.7115  0.6836 -0.0319
   40POPC   C11 5323   5.611   5.915   6.221  0.0438  0.5656 -0.1848
   40POPC  H11A 5324   5.531   5.925   6.298  0.1871  0.7787 -0.0643
   40POPC  H11B 5325   5.672   6.007   6.217  5.5079 -2.6430 -0.0127
   40POPC     P 5326   5.830   5.765   6.182  0.1839  0.1482 -0.1825
   40POPC   O13 5327   5.840   5.842   6.058  0.0708  0.2043  0.1003
   40POPC   O14 5328   5.831   5.620   6.156  0.3529 -0.1073  0.5004
   40POPC   O12 5329   5.687   5.797   6.252 -0.5742 -0.5171 -0.1557
   40POPC   O11 5330   5.941   5.808   6.281 -0.1450 -0.2584 -0.8501
   40POPC    C1 5331   5.919   5.908   6.388 -0.8722 -0.1608  0.8979
   40POPC    HA 5332   5.881   6.004   6.346  1.6871  1.6379  2.3779
   40POPC    HB 5333   6.016   5.930   6.438  0.9670 -2.5837 -1.3171
   40POPC    C2 5334   5.836   5.862   6.515  0.2992 -0.1695 -0.3203
   40POPC    HS 5335   5.731   5.844   6.484 -0.0682  0.6839  0.4004
   40POPC   O21 5336   5.843   5.964   6.611  0.1244 -0.4142  0.2376
   40POPC   C21 5337   5.729   5.978   6.691  0.2465 -0.2867  0.1427
   40POPC   O22 5338   5.622   5.916   6.679 -0.8345 -0.2118 -0.2531
   40POPC   C22 5339   5.758   6.090   6.798 -0.0704  0.3287  0.5375
   40POPC   H2R 5340   5.726   6.048   6.896  0.8640  2.1140  1.6485
   40POPC   H2S 5341   5.696   6.178   6.774  0.6962  0.6985 -0.1631
   40POPC    C3 5342   5.903   5.731   6.574 -0.2738 -0.0029  0.3280
   40POPC    HX 5343   6.007   5.764   6.598 -0.6770  0.3488  1.7155
   40POPC    HY 5344   5.912   5.653   6.496 -0.5292  0.7195 -0.4462
   40POPC   O31 5345   5.826   5.689   6.687  0.1298  0.0403 -0.5758
   40POPC   C31 5346   5.717   5.618   6.656 -0.2350  0.6119  0.1285
   40POPC   O32 5347   5.685   5.580   6.541  0.0865  0.3075 -0.6633
   40POPC   C32 5348   5.642   5.581   6.778  0.2355  0.6774  0.6707
   40POPC   H2X 5349   5.657   5.473   6.802 -0.6687  0.0883 -1.1874
   40POPC   H2Y 5350   5.535   5.585   6.747  0.7053 -0.9201 -1.3790
   40POPC   C23 5351   5.904   6.132   6.813 -0.6158 -0.7905 -0.5643
   40POPC   H3R 5352   5.944   6.198   6.734  0.4621 -0.5764  0.1404
   40POPC   H3S 5353   5.980   6.051   6.806 -0.3851 -0.5218 -1.2987
   40POPC   C24 5354   5.929   6.203   6.945  0.1650 -0.2271 -0.3526
   40POPC   H4R 5355   5.861   6.290   6.956 -1.7712 -1.6267 -0.7613
   40POPC   H4S 5356   6.033   6.243   6.944 -0.4706  1.5247 -0.9028
   40POPC   C25 5357   5.910   6.124   7.070 -0.0961  0.2623 -0.3787
   40POPC   H5R 5358   5.944   6.021   7.046 -2.5521 -0.7967  0.4145
   40POPC   H5S 5359   5.805   6.121   7.106  0.1043  1.9014  0.4625
   40POPC   C26 5360   5.980   6.185   7.199  0.2844  0.5822  0.1619
   40POPC   H6R 5361   6.087   6.158   7.202 -0.0138 -0.7526 -0.5059
   40POPC   H6S 5362   5.939   6.137   7.291 -1.7540  0.8452 -0.5561
   40POPC   C27 5363   5.965   6.339   7.214 -0.5258 -0.2362 -0.7550
   40POPC   H7R 5364   5.862   6.376   7.196 -0.9884 -0.6950  0.7930
   40POPC   H7S 5365   6.024   6.387   7.133  0.3746  0.1154  0.0846
   40POPC   C28 5366   6.030   6.396   7.344 -0.3730 -0.0212  0.4376
   40POPC   H8R 5367   6.084   6.491   7.325  0.4359 -0.7482 -1.0434
   40POPC   H8S 5368   6.104   6.322   7.381  0.9726  1.0927  0.0553
   40POPC   C29 5369   5.922   6.414   7.453  0.4600  0.1463 -0.0388
   40POPC   H91 5370   5.850   6.492   7.424 -1.4297 -2.1511 -1.9055
   40POPC  C210 5371   5.908   6.361   7.571 -0.7625 -0.4936 -0.4903
   40POPC  H101 5372   5.818   6.390   7.626 -0.2124  2.4138 -0.9840
   40POPC  C211 5373   5.993   6.253   7.632 -0.1780 -0.1553  0.4227
   40POPC  H11R 5374   6.069   6.298   7.700  1.2781 -1.4278 -0.3180
   40POPC  H11S 5375   6.048   6.195   7.555 -1.0726 -0.8131  0.2759
   40POPC  C212 5376   5.918   6.147   7.710 -0.3707 -0.0963  0.1748
   40POPC  H12R 5377   5.972   6.051   7.699 -0.1352  0.1598 -0.9600
   40POPC  H12S 5378   5.824   6.135   7.651  0.7344 -2.1669 -1.2778
   40POPC  C213 5379   5.886   6.177   7.858  0.2449 -0.3729  1.1514
   40POPC  H13R 5380   5.982   6.197   7.909  0.7393  0.3072  0.0045
   40POPC  H13S 5381   5.847   6.083   7.902  1.7782 -1.7337 -0.2886
   40POPC  C214 5382   5.784   6.289   7.872  0.1509  0.0332  0.6562
   40POPC  H14R 5383   5.706   6.263   7.797 -0.2031  0.6088  0.8194
   40POPC  H14S 5384   5.833   6.387   7.856  0.0502  0.4093  2.4063
   40POPC  C215 5385   5.705   6.285   8.008  0.3026 -0.0089 -0.1574
   40POPC  H15R 5386   5.661   6.386   8.020 -0.6675 -0.5778  1.4709
   40POPC  H15S 5387   5.772   6.260   8.093  1.9241  0.1218 -1.3665
   40POPC  C216 5388   5.595   6.182   8.013  0.1610 -0.1852  0.6500
   40POPC  H16R 5389   5.640   6.082   7.995 -0.1793 -0.3615  0.7846
   40POPC  H16S 5390   5.523   6.200   7.930  0.4084 -1.1305  0.2235
   40POPC  C217 5391   5.521   6.171   8.142  0.5338  0.1633  0.2983
   40POPC  H17R 5392   5.451   6.258   8.144 -0.0615 -0.2684 -0.8125
   40POPC  H17S 5393   5.576   6.199   8.234 -0.2544  2.9259  0.0278
   40POPC  C218 5394   5.444   6.044   8.152  0.4069 -0.4413 -0.1422
   40POPC  H18R 5395   5.388   6.040   8.248  0.2964  0.7675 -0.1445
   40POPC  H18S 5396   5.517   5.961   8.161  0.5190 -0.3100  0.1724
   40POPC  H18T 5397   5.373   6.036   8.067  1.2005 -0.5357 -0.8135
   40POPC   C33 5398   5.689   5.666   6.893 -1.3788  0.3861 -0.1069
   40POPC   H3X 5399   5.682   5.774   6.871  2.2174  0.7757  0.1398
   40POPC   H3Y 5400   5.794   5.632   6.907 -1.1105  1.1201 -0.3268
   40POPC   C34 5401   5.612   5.632   7.021 -0.0679 -0.5622 -0.2552
   40POPC   H4X 5402   5.607   5.523   7.039  0.1754 -0.3844  0.9676
   40POPC   H4Y 5403   5.508   5.672   7.027 -0.2657 -1.2655  1.8730
   40POPC   C35 5404   5.666   5.687   7.153 -0.3237  0.6309 -0.0750
   40POPC   H5X 5405   5.769   5.646   7.158 -1.1460 -1.6739 -0.8074
   40POPC   H5Y 5406   5.611   5.642   7.239 -1.3412  1.2402 -0.3937
   40POPC   C36 5407   5.660   5.839   7.154  0.4720 -0.1051 -0.7057
   40POPC   H6X 5408   5.565   5.882   7.117  0.2967  1.3306  1.2610
   40POPC   H6Y 5409   5.738   5.877   7.085  0.1827 -0.0751 -1.0184
   40POPC   C37 5410   5.690   5.907   7.294  0.3603 -0.6107 -0.3004
   40POPC   H7X 5411   5.690   6.017   7.280 -1.1143 -0.4967  0.4113
   40POPC   H7Y 5412   5.795   5.883   7.323  0.5617  0.9882  0.3776
   40POPC   C38 5413   5.600   5.877   7.409  0.6244 -1.3213 -0.0747
   40POPC   H8X 5414   5.593   5.767   7.417 -0.3163 -1.3154 -0.6407
   40POPC   H8Y 5415   5.496   5.912   7.391  0.3129 -2.8868 -1.4898
   40POPC   C39 5416   5.639   5.952   7.537  0.4199  0.0091  0.1946
   40POPC   H9X 5417   5.651   6.059   7.508  0.8767 -0.5189 -1.6832
   40POPC   H9Y 5418   5.737   5.909   7.568  0.7093  0.0471 -0.6597
   40POPC  C310 5419   5.543   5.955   7.648  0.2008 -0.2166 -0.0096
   40POPC  H10X 5420   5.439   5.966   7.609 -0.3476 -3.2315  0.3283
   40POPC  H10Y 5421   5.568   6.038   7.718  1.3582 -0.6711  0.1241
   40POPC  C311 5422   5.530   5.820   7.726 -0.3891  0.3231  0.7110
   40POPC  H11X 5423   5.634   5.781   7.727  0.1060  1.2576 -2.5908
   40POPC  H11Y 5424   5.462   5.755   7.667  0.8295  1.9053 -2.6868
   40POPC  C312 5425   5.483   5.835   7.864 -0.2738 -0.3333 -0.3742
   40POPC  H12X 5426   5.382   5.879   7.853 -0.5108 -0.9246 -0.5911
   40POPC  H12Y 5427   5.549   5.905   7.919 -0.2309  0.7869 -1.7949
   40POPC  C313 5428   5.468   5.698   7.933 -0.4354 -0.1392 -0.5329
   40POPC  H13X 5429   5.571   5.669   7.962 -0.8779 -0.0834  1.2732
   40POPC  H13Y 5430   5.433   5.623   7.860 -0.8189  1.3572 -1.9396
   40POPC  C314 5431   5.359   5.707   8.043  0.0052 -0.8789  0.2502
   40POPC  H14X 5432   5.273   5.745   7.984 -0.1591 -0.4287  0.7726
   40POPC  H14Y 5433   5.383   5.777   8.125 -1.2304  0.8828 -0.8111
   40POPC  C315 5434   5.321   5.580   8.108  0.0672 -0.0414 -0.3905
   40POPC  H15X 5435   5.404   5.553   8.177  0.9251  2.7638 -0.2191
   40POPC  H15Y 5436   5.300   5.495   8.040 -0.4279  0.8533 -1.3839
   40POPC  C316 5437   5.197   5.607   8.199 -0.1773  0.0045  0.5007
   40POPC  H16X 5438   5.113   5.638   8.132  1.4647  2.1780 -0.6896
   40POPC  H16Y 5439   5.214   5.694   8.266  0.3657 -1.0610  1.7803
   40POPC  H16Z 5440   5.171   5.511   8.247  0.3313  0.5208  1.8379
   41CHL1    C3 5441   2.659   3.866  10.030  0.2918  0.4115 -0.2017
   41CHL1    H3 5442   2.569   3.807  10.003  0.2216  0.3288  0.2102
   41CHL1    O3 5443   2.673   3.893  10.166  0.2287 -0.3474 -0.7367
   41CHL1   H3' 5444   2.727   3.972  10.176  1.9644 -1.7248  1.4185
   41CHL1    C4 5445   2.778   3.781   9.991 -0.3066 -0.5871  0.0013
   41CHL1   H4A 5446   2.869   3.842  10.010 -0.3098 -0.3005 -0.8751
   41CHL1   H4B 5447   2.779   3.693  10.059 -2.0808 -1.0674 -0.5427
   41CHL1    C5 5448   2.781   3.742   9.841  0.4982  0.2302 -0.1891
   41CHL1    C6 5449   2.771   3.614   9.811 -0.4227 -0.2827 -0.1012
   41CHL1    H6 5450   2.774   3.547   9.898  0.1144  1.4635  1.2947
   41CHL1    C7 5451   2.769   3.558   9.677  0.6722  0.3270  0.1794
   41CHL1   H7A 5452   2.838   3.474   9.658  2.0958  0.9839  2.1460
   41CHL1   H7B 5453   2.669   3.512   9.662  1.5702 -1.3971 -0.7556
   41CHL1    C8 5454   2.797   3.667   9.566  0.7395  0.0930 -0.5591
   41CHL1    H8 5455   2.907   3.681   9.555  1.1673 -2.4281 -0.3317
   41CHL1   C14 5456   2.753   3.620   9.434  0.0726 -0.0351 -0.0261
   41CHL1   H14 5457   2.646   3.599   9.455  0.3585  0.4514  2.0906
   41CHL1   C15 5458   2.829   3.502   9.385  0.0928  0.0024 -0.4754
   41CHL1  H15A 5459   2.933   3.536   9.402 -0.6582  2.7337 -0.9513
   41CHL1  H15B 5460   2.796   3.408   9.435  2.7590 -1.6019 -1.4696
   41CHL1   C16 5461   2.791   3.499   9.234 -0.2385  0.1757  0.5055
   41CHL1  H16A 5462   2.880   3.492   9.168 -0.0062  0.9474  0.7229
   41CHL1  H16B 5463   2.718   3.421   9.205 -0.0560 -0.1863  1.0093
   41CHL1   C17 5464   2.720   3.631   9.205 -0.3764  0.0213  0.2378
   41CHL1   H17 5465   2.611   3.611   9.215 -0.1458 -2.0225 -0.7605
   41CHL1   C13 5466   2.763   3.727   9.319 -0.5214 -0.0709 -0.1273
   41CHL1   C18 5467   2.909   3.773   9.296  0.7006  0.3199  0.3870
   41CHL1  H18A 5468   2.943   3.828   9.386  0.6465  2.2927 -0.7326
   41CHL1  H18B 5469   2.982   3.695   9.266  1.2144  0.2603  1.7405
   41CHL1  H18C 5470   2.909   3.852   9.218  0.7050 -0.5035 -0.4540
   41CHL1   C12 5471   2.672   3.843   9.350 -0.0703 -0.2122  0.6708
   41CHL1  H12A 5472   2.680   3.924   9.274  1.1478 -1.7752 -0.9377
   41CHL1  H12B 5473   2.571   3.798   9.362  0.9883 -2.7369  0.7288
   41CHL1   C11 5474   2.719   3.903   9.488 -0.7564  0.3418 -0.0386
   41CHL1  H11A 5475   2.812   3.962   9.472  0.2002  0.1992  3.8770
   41CHL1  H11B 5476   2.653   3.990   9.507 -0.4694  0.9890 -1.7736
   41CHL1    C9 5477   2.719   3.794   9.605 -0.1284  0.1553  0.1128
   41CHL1    H9 5478   2.617   3.765   9.636 -0.3179 -2.1361 -2.3595
   41CHL1   C10 5479   2.767   3.856   9.737  0.3137 -0.6073  0.2699
   41CHL1   C19 5480   2.907   3.920   9.714  0.4295 -0.2077 -0.1288
   41CHL1  H19A 5481   2.972   3.843   9.667  0.3548 -0.9495  0.9277
   41CHL1  H19B 5482   2.909   4.016   9.659  0.5922  0.0443  0.3083
   41CHL1  H19C 5483   2.957   3.927   9.813  0.1194 -3.5191  0.4061
   41CHL1    C1 5484   2.655   3.961   9.793 -0.4700 -0.3622 -0.3328
   41CHL1   H1A 5485   2.665   4.047   9.724  2.7499 -1.6899 -1.7391
   41CHL1   H1B 5486   2.553   3.918   9.780 -0.9648  0.9188 -0.8217
   41CHL1    C2 5487   2.670   3.993   9.942  0.3617 -0.0236 -0.3500
   41CHL1   H2A 5488   2.593   4.066   9.973  1.3054 -0.0885  2.4323
   41CHL1   H2B 5489   2.772   4.038   9.951  0.3533  0.8670 -3.6809
   41CHL1   C20 5490   2.749   3.672   9.059 -0.0905 -0.9341 -0.3040
   41CHL1   H20 5491   2.858   3.688   9.050 -0.4937  1.2500 -2.9088
   41CHL1   C21 5492   2.697   3.812   9.031 -0.8286  0.1909  0.3595
   41CHL1  H21A 5493   2.758   3.888   9.083  2.0193  0.3478 -2.8658
   41CHL1  H21B 5494   2.589   3.823   9.056 -0.7849  1.5339  0.0279
   41CHL1  H21C 5495   2.703   3.838   8.923  2.8920  2.9209  1.0593
   41CHL1   C22 5496   2.709   3.569   8.948 -0.3528 -0.3260  0.1763
   41CHL1  H22A 5497   2.731   3.608   8.846  0.7808 -1.0882  0.1098
   41CHL1  H22B 5498   2.773   3.479   8.957 -1.8180 -1.2794  1.5705
   41CHL1   C23 5499   2.563   3.523   8.960  0.1480 -0.8957 -0.4380
   41CHL1  H23A 5500   2.542   3.476   9.058 -2.0986 -0.8747 -0.8458
   41CHL1  H23B 5501   2.485   3.600   8.942  1.8861  0.9858 -0.2267
   41CHL1   C24 5502   2.528   3.401   8.865  0.3339 -0.3915 -0.0861
   41CHL1  H24A 5503   2.599   3.319   8.889  0.7925 -0.3887 -1.3152
   41CHL1  H24B 5504   2.423   3.379   8.893  0.4095  1.2828  1.6289
   41CHL1   C25 5505   2.549   3.433   8.714 -0.1192 -0.0125  0.3147
   41CHL1   H25 5506   2.660   3.433   8.707 -0.0167  0.4126  1.5928
   41CHL1   C26 5507   2.495   3.320   8.624  0.4446 -0.1988  1.0585
   41CHL1  H26A 5508   2.512   3.345   8.517  0.0830  3.5236  1.7318
   41CHL1  H26B 5509   2.535   3.221   8.652  1.1062  0.0057  0.8544
   41CHL1  H26C 5510   2.388   3.307   8.650  0.3872 -0.0177  0.9186
   41CHL1   C27 5511   2.480   3.572   8.675 -0.4523  0.8712  0.0108
   41CHL1  H27A 5512   2.487   3.586   8.565  0.0144 -0.5155 -0.1581
   41CHL1  H27B 5513   2.373   3.576   8.706  0.0790  1.1563  1.9085
   41CHL1  H27C 5514   2.541   3.653   8.719  1.0547 -0.2435  0.0494
   42CHL1    C3 5515   6.403   1.218   9.983  0.4013  0.5964  0.7805
   42CHL1    H3 5516   6.414   1.329   9.992  1.0812  0.4618  1.8478
   42CHL1    O3 5517   6.402   1.161  10.111  0.3203  0.1814  0.5891
   42CHL1   H3' 5518   6.328   1.100  10.114  0.6152 -0.4513 -2.1246
   42CHL1    C4 5519   6.268   1.182   9.918 -0.5875 -0.3112 -0.5781
   42CHL1   H4A 5520   6.246   1.073   9.916  0.2869 -0.5407  0.9055
   42CHL1   H4B 5521   6.194   1.236   9.981 -1.9021 -0.3954 -1.9672
   42CHL1    C5 5522   6.272   1.248   9.787  0.4302 -0.1515  0.0406
   42CHL1    C6 5523   6.185   1.342   9.744 -0.3841 -0.6444 -0.6307
   42CHL1    H6 5524   6.115   1.384   9.816 -0.0031 -0.7604 -0.1880
   42CHL1    C7 5525   6.174   1.394   9.605  0.0897  0.0970  0.4922
   42CHL1   H7A 5526   6.069   1.400   9.570  0.0805 -0.2103  0.4611
   42CHL1   H7B 5527   6.213   1.497   9.598 -0.3294  0.1788 -0.9679
   42CHL1    C8 5528   6.243   1.303   9.503  0.0510  0.4567  0.0106
   42CHL1    H8 5529   6.178   1.216   9.482 -4.1378  3.6689 -1.9388
   42CHL1   C14 5530   6.254   1.372   9.370 -0.1781 -0.2147 -0.3973
   42CHL1   H14 5531   6.329   1.453   9.381  0.5691 -1.0165  0.5755
   42CHL1   C15 5532   6.129   1.444   9.317 -0.1729  0.0744  0.6381
   42CHL1  H15A 5533   6.034   1.387   9.330 -1.9537  1.6261 -3.6268
   42CHL1  H15B 5534   6.118   1.539   9.373 -0.9565 -0.3029  1.1369
   42CHL1   C16 5535   6.158   1.463   9.165  0.2032 -0.4875 -0.8334
   42CHL1  H16A 5536   6.067   1.429   9.111  0.0044 -0.4773 -0.5102
   42CHL1  H16B 5537   6.179   1.572   9.162  1.4906 -0.5704  2.2501
   42CHL1   C17 5538   6.286   1.382   9.138  0.1266  0.3141  0.7245
   42CHL1   H17 5539   6.375   1.448   9.148  0.1797  0.1715  1.1778
   42CHL1   C13 5540   6.304   1.287   9.255 -0.4682  0.3485  0.2049
   42CHL1   C18 5541   6.205   1.166   9.243  0.9385  0.7190 -0.0832
   42CHL1  H18A 5542   6.196   1.105   9.335  0.6051  2.1154  0.8470
   42CHL1  H18B 5543   6.103   1.201   9.215  0.0779 -1.2256  0.4138
   42CHL1  H18C 5544   6.243   1.102   9.160 -0.6892 -0.8160  0.3112
   42CHL1   C12 5545   6.448   1.247   9.292 -0.3428 -0.1003 -0.0567
   42CHL1  H12A 5546   6.500   1.179   9.221  0.1516  2.3677 -2.1998
   42CHL1  H12B 5547   6.500   1.345   9.300  0.2482 -0.5449  2.7218
   42CHL1   C11 5548   6.446   1.183   9.432  0.1595  0.2633  0.0413
   42CHL1  H11A 5549   6.406   1.080   9.418 -1.9877  1.0433  0.0089
   42CHL1  H11B 5550   6.550   1.172   9.468 -0.8822 -0.3931  3.1000
   42CHL1    C9 5551   6.378   1.266   9.548 -0.2048 -0.2229  0.7115
   42CHL1    H9 5552   6.448   1.352   9.557  0.2635 -0.5681  0.4186
   42CHL1   C10 5553   6.376   1.190   9.684 -0.1770  0.3025 -0.0458
   42CHL1   C19 5554   6.347   1.039   9.665 -0.2530 -0.1263 -0.1604
   42CHL1  H19A 5555   6.334   0.983   9.760 -0.2453  2.6922  1.6263
   42CHL1  H19B 5556   6.257   1.028   9.601 -0.1917  3.7315 -1.1408
   42CHL1  H19C 5557   6.433   0.988   9.616  1.9182 -0.6942  3.8307
   42CHL1    C1 5558   6.512   1.206   9.749 -0.5151 -0.6044 -0.6380
   42CHL1   H1A 5559   6.593   1.160   9.690  0.8791  3.3372 -2.1282
   42CHL1   H1B 5560   6.534   1.315   9.754 -0.3140 -0.6804  0.2613
   42CHL1    C2 5561   6.517   1.168   9.899  0.4647  0.4065  0.2282
   42CHL1   H2A 5562   6.615   1.206   9.936  0.3862  0.8137  0.0319
   42CHL1   H2B 5563   6.523   1.058   9.890  0.6828  0.4925 -0.8061
   42CHL1   C20 5564   6.282   1.327   8.997 -0.2889 -0.6966 -0.4369
   42CHL1   H20 5565   6.197   1.255   8.986 -0.3402 -0.4628 -1.8530
   42CHL1   C21 5566   6.405   1.247   8.960  0.1075 -0.8956 -0.0145
   42CHL1  H21A 5567   6.419   1.155   9.020 -1.4498 -0.6116  0.8457
   42CHL1  H21B 5568   6.502   1.299   8.973  0.7032 -1.7406 -0.9610
   42CHL1  H21C 5569   6.383   1.222   8.854  1.1845 -2.3202  0.0632
   42CHL1   C22 5570   6.254   1.444   8.891  0.5602 -0.4877 -0.7169
   42CHL1  H22A 5571   6.261   1.544   8.939  2.5768 -0.1746 -1.5713
   42CHL1  H22B 5572   6.338   1.439   8.820  1.0671 -1.2140 -0.0827
   42CHL1   C23 5573   6.122   1.427   8.819  0.6873 -0.6283  0.3515
   42CHL1  H23A 5574   6.110   1.324   8.779  0.2592 -0.7483  0.7754
   42CHL1  H23B 5575   6.047   1.452   8.897  2.8141 -0.7375  2.5367
   42CHL1   C24 5576   6.078   1.520   8.706  0.3485  0.0762 -0.0288
   42CHL1  H24A 5577   5.967   1.517   8.703  0.3771 -1.0994 -0.5254
   42CHL1  H24B 5578   6.111   1.626   8.718  0.2974  0.2071 -0.9293
   42CHL1   C25 5579   6.124   1.483   8.565  0.3356  0.0469  0.2606
   42CHL1   H25 5580   6.104   1.375   8.553  0.0467  0.0875  0.3717
   42CHL1   C26 5581   6.044   1.566   8.465  0.1704  0.1024  0.1957
   42CHL1  H26A 5582   5.936   1.543   8.475  0.4170 -0.9271  0.6311
   42CHL1  H26B 5583   6.044   1.677   8.472 -0.2368  0.0270  1.6593
   42CHL1  H26C 5584   6.069   1.539   8.360  0.0958  1.6318 -0.2438
   42CHL1   C27 5585   6.275   1.505   8.553  0.1866  0.0544  0.1054
   42CHL1  H27A 5586   6.302   1.485   8.447 -1.2655 -1.4853 -0.0111
   42CHL1  H27B 5587   6.308   1.609   8.571 -0.4910  0.6195 -1.6468
   42CHL1  H27C 5588   6.316   1.422   8.614 -2.0445 -2.0968 -1.1373
   43CHL1    C3 5589   3.940   3.003  10.153 -0.6252 -0.0232  0.4188
   43CHL1    H3 5590   3.834   2.999  10.122 -0.7702 -3.0225  1.0301
   43CHL1    O3 5591   3.956   2.973  10.290  0.2472 -0.0651  0.3865
   43CHL1   H3' 5592   3.880   3.010  10.335 -2.2317 -0.9833 -2.7529
   43CHL1    C4 5593   4.014   2.893  10.075  0.0857  0.0821 -0.2618
   43CHL1   H4A 5594   4.121   2.898  10.104 -0.1076  1.8756  0.2709
   43CHL1   H4B 5595   3.963   2.806  10.121  0.8852  0.3984  1.2637
   43CHL1    C5 5596   4.013   2.908   9.926 -0.4529  0.2085  0.3477
   43CHL1    C6 5597   3.964   2.814   9.849  0.0247 -0.5202  1.2422
   43CHL1    H6 5598   3.929   2.717   9.887  1.0096 -0.7122  1.6962
   43CHL1    C7 5599   3.954   2.837   9.700  0.6672  0.3209  0.9446
   43CHL1   H7A 5600   3.981   2.742   9.648  1.1596  0.2365  1.3427
   43CHL1   H7B 5601   3.849   2.852   9.670  0.3314  2.4836  2.9078
   43CHL1    C8 5602   4.045   2.949   9.649 -0.6053  0.1799  0.3621
   43CHL1    H8 5603   4.148   2.909   9.661 -0.3598  0.2554 -1.2286
   43CHL1   C14 5604   4.015   2.976   9.503  0.1110 -0.8694 -0.2776
   43CHL1   H14 5605   3.908   3.006   9.493  0.3162 -0.6327 -1.9523
   43CHL1   C15 5606   4.022   2.858   9.403 -0.0482 -0.4813 -0.6222
   43CHL1  H15A 5607   4.106   2.789   9.426 -0.4112 -0.4294  1.0070
   43CHL1  H15B 5608   3.930   2.795   9.398 -1.5975  1.7493 -2.1981
   43CHL1   C16 5609   4.079   2.919   9.273 -0.1119 -0.2842  0.6250
   43CHL1  H16A 5610   4.179   2.877   9.255 -0.9228 -1.4427 -1.4023
   43CHL1  H16B 5611   4.019   2.888   9.185  2.8160  1.3628 -2.1668
   43CHL1   C17 5612   4.075   3.074   9.296  0.1150 -0.9723  0.0420
   43CHL1   H17 5613   3.971   3.106   9.279  0.3094  0.3614  1.2222
   43CHL1   C13 5614   4.103   3.090   9.444  0.0150  0.3430 -0.5840
   43CHL1   C18 5615   4.252   3.062   9.467 -0.1914 -0.0179 -0.1138
   43CHL1  H18A 5616   4.279   3.017   9.566  0.1918 -1.9337 -1.0355
   43CHL1  H18B 5617   4.300   2.998   9.390  1.7036  1.7579 -0.4880
   43CHL1  H18C 5618   4.302   3.161   9.465  0.6610 -0.4066 -3.1097
   43CHL1   C12 5619   4.073   3.220   9.516 -0.2899  0.4126 -0.0429
   43CHL1  H12A 5620   4.145   3.300   9.487 -0.6877  0.7987  0.0227
   43CHL1  H12B 5621   3.974   3.264   9.491  0.7037  2.3474 -0.8202
   43CHL1   C11 5622   4.082   3.204   9.673  0.4662  0.0744  0.0938
   43CHL1  H11A 5623   4.193   3.209   9.683  1.2281 -1.0232 -5.1121
   43CHL1  H11B 5624   4.045   3.298   9.721  0.4892 -0.0823  0.4170
   43CHL1    C9 5625   4.018   3.073   9.736 -0.8793 -0.4508  0.8405
   43CHL1    H9 5626   3.908   3.078   9.721 -1.0920 -2.7834  1.1980
   43CHL1   C10 5627   4.057   3.053   9.883  0.1508 -0.1658 -0.3037
   43CHL1   C19 5628   4.211   3.065   9.901 -0.9398  0.0658  0.5460
   43CHL1  H19A 5629   4.237   3.032  10.004 -0.5059 -3.7210 -0.6036
   43CHL1  H19B 5630   4.267   3.004   9.827 -1.8083  2.3117 -2.1772
   43CHL1  H19C 5631   4.243   3.169   9.880 -1.7106  0.4686  1.3091
   43CHL1    C1 5632   3.981   3.159   9.967 -0.2818 -0.5201 -0.1166
   43CHL1   H1A 5633   4.019   3.262   9.947 -0.1946 -0.3494  0.8410
   43CHL1   H1B 5634   3.871   3.148   9.952 -0.9167 -1.2711  3.8974
   43CHL1    C2 5635   4.000   3.141  10.119 -0.5558 -0.0800 -0.2153
   43CHL1   H2A 5636   3.939   3.216  10.174 -0.1826 -0.7328  1.1095
   43CHL1   H2B 5637   4.105   3.145  10.153 -0.6491 -0.1385  0.0797
   43CHL1   C20 5638   4.157   3.147   9.193 -0.3630 -0.2467  0.1975
   43CHL1   H20 5639   4.263   3.145   9.228 -0.3491  1.0556  0.2697
   43CHL1   C21 5640   4.109   3.296   9.191 -0.0787 -0.0499  0.8082
   43CHL1  H21A 5641   4.007   3.325   9.157  1.8230  2.5978 -3.6324
   43CHL1  H21B 5642   4.182   3.352   9.128 -0.0142  0.5837  1.4388
   43CHL1  H21C 5643   4.125   3.354   9.284 -0.7192 -0.0143  0.9018
   43CHL1   C22 5644   4.158   3.080   9.052  0.8400  0.0553 -0.1329
   43CHL1  H22A 5645   4.216   2.985   9.063  0.5628 -0.3001 -1.5669
   43CHL1  H22B 5646   4.055   3.056   9.017  1.0119  1.2344 -1.4893
   43CHL1   C23 5647   4.220   3.165   8.936 -0.0925 -0.6203 -0.2128
   43CHL1  H23A 5648   4.142   3.240   8.913 -1.7811 -1.9867  0.7085
   43CHL1  H23B 5649   4.315   3.212   8.968  0.2429 -0.0357 -2.0059
   43CHL1   C24 5650   4.260   3.078   8.813  0.4371  0.2344  0.1627
   43CHL1  H24A 5651   4.316   2.989   8.849 -0.4850 -0.1629  0.6538
   43CHL1  H24B 5652   4.162   3.055   8.765 -0.3593  0.3024  1.6906
   43CHL1   C25 5653   4.346   3.139   8.697 -0.7558 -1.0481 -0.1579
   43CHL1   H25 5654   4.444   3.161   8.746  1.0346 -2.2238 -2.9406
   43CHL1   C26 5655   4.360   3.045   8.576 -0.0306 -0.8336  0.1819
   43CHL1  H26A 5656   4.409   2.947   8.595  1.3390 -0.5793 -1.6734
   43CHL1  H26B 5657   4.258   3.018   8.540  0.2262 -4.0610  1.5189
   43CHL1  H26C 5658   4.428   3.100   8.507  0.1705 -0.9709  0.2694
   43CHL1   C27 5659   4.287   3.275   8.647  0.2429  0.4298 -0.3454
   43CHL1  H27A 5660   4.357   3.312   8.568  1.4388 -2.0640 -0.5595
   43CHL1  H27B 5661   4.191   3.259   8.594  0.1850  0.3165 -0.2071
   43CHL1  H27C 5662   4.275   3.344   8.733 -0.6712 -0.5833  0.3652
   44CHL1    C3 5663   4.849   3.805  10.140 -0.2714 -0.0367  0.4447
   44CHL1    H3 5664   4.832   3.695  10.142 -2.4679  0.2665  1.3556
   44CHL1    O3 5665   4.825   3.852  10.270 -0.9565  0.0733 -0.2461
   44CHL1   H3' 5666   4.821   3.947  10.265 -0.1774  0.0543 -2.0884
   44CHL1    C4 5667   4.994   3.839  10.104 -0.4610 -0.0236 -0.4281
   44CHL1   H4A 5668   5.001   3.949  10.117  0.6265 -0.1858  0.4181
   44CHL1   H4B 5669   5.068   3.792  10.171  1.2865 -0.1219 -2.3444
   44CHL1    C5 5670   5.012   3.793   9.963 -0.3548  0.6167  0.4937
   44CHL1    C6 5671   5.119   3.716   9.927  0.3839 -0.2324 -0.1744
   44CHL1    H6 5672   5.182   3.689  10.013  2.0498 -0.7267 -1.4922
   44CHL1    C7 5673   5.166   3.668   9.786  0.1340 -0.1107  0.1422
   44CHL1   H7A 5674   5.273   3.680   9.760  0.4372 -0.2294  1.2960
   44CHL1   H7B 5675   5.143   3.560   9.774 -1.2476  0.0795  0.8108
   44CHL1    C8 5676   5.090   3.751   9.675 -0.6083 -0.0155 -0.5206
   44CHL1    H8 5677   5.136   3.852   9.669  0.5082 -0.2699  2.2606
   44CHL1   C14 5678   5.108   3.677   9.543  0.2483  0.3968 -0.1831
   44CHL1   H14 5679   5.054   3.581   9.558  1.4400 -0.1783  0.4943
   44CHL1   C15 5680   5.248   3.639   9.486 -0.2224  0.1227  0.7401
   44CHL1  H15A 5681   5.307   3.733   9.490  0.1221 -0.1143  1.4086
   44CHL1  H15B 5682   5.293   3.562   9.553  1.6202  0.9850  0.5426
   44CHL1   C16 5683   5.232   3.598   9.347 -0.3297 -1.0951  0.9795
   44CHL1  H16A 5684   5.314   3.643   9.286 -2.9693 -0.2994 -2.2847
   44CHL1  H16B 5685   5.224   3.491   9.322 -0.6517 -0.9948  0.6522
   44CHL1   C17 5686   5.086   3.657   9.309 -0.4142 -0.3804  0.7178
   44CHL1   H17 5687   5.031   3.562   9.325 -0.3224 -0.2773  1.7145
   44CHL1   C13 5688   5.044   3.749   9.426 -0.7503  0.9454 -0.7241
   44CHL1   C18 5689   5.108   3.884   9.390 -0.6736  0.0091  0.4635
   44CHL1  H18A 5690   5.054   3.937   9.308 -0.7997  0.4752  0.8411
   44CHL1  H18B 5691   5.119   3.957   9.473 -1.9772  0.6708  0.0907
   44CHL1  H18C 5692   5.216   3.869   9.370 -0.8353 -0.6170  0.0385
   44CHL1   C12 5693   4.894   3.747   9.461  0.5744 -0.3789  0.9683
   44CHL1  H12A 5694   4.842   3.791   9.373 -2.5963 -0.5234  2.6384
   44CHL1  H12B 5695   4.855   3.644   9.475  0.6703 -0.6888 -0.8895
   44CHL1   C11 5696   4.866   3.831   9.590 -0.3895  0.7261 -0.5896
   44CHL1  H11A 5697   4.903   3.933   9.567  0.2854  0.5108 -0.4712
   44CHL1  H11B 5698   4.756   3.832   9.604 -0.4003  2.6436 -0.5937
   44CHL1    C9 5699   4.945   3.770   9.710  0.2393 -0.2985  0.4091
   44CHL1    H9 5700   4.909   3.665   9.713  0.7421 -0.5027 -0.3972
   44CHL1   C10 5701   4.917   3.838   9.850 -0.2977 -0.0626  0.1284
   44CHL1   C19 5702   4.931   3.988   9.827 -0.7940  0.1302  0.4720
   44CHL1  H19A 5703   5.024   4.017   9.774 -0.4393 -2.1608 -0.2236
   44CHL1  H19B 5704   4.841   4.016   9.768 -1.2260  1.0230  1.5167
   44CHL1  H19C 5705   4.942   4.047   9.922  1.0318  0.1808  0.2677
   44CHL1    C1 5706   4.775   3.805   9.903  0.2526 -0.3352  0.1156
   44CHL1   H1A 5707   4.705   3.856   9.833 -0.2520 -2.7277 -1.2298
   44CHL1   H1B 5708   4.755   3.697   9.891 -0.7529 -0.2454  0.8863
   44CHL1    C2 5709   4.746   3.861  10.044 -0.9228  0.0485  0.4392
   44CHL1   H2A 5710   4.641   3.835  10.067 -0.4987  0.2418  2.9088
   44CHL1   H2B 5711   4.750   3.971  10.033 -0.8887 -0.0114 -0.1363
   44CHL1   C20 5712   5.090   3.707   9.164  0.3156  0.3702 -0.1766
   44CHL1   H20 5713   5.156   3.795   9.150 -0.5283  1.0608  0.1222
   44CHL1   C21 5714   4.944   3.729   9.130  0.2009  0.2853  0.0172
   44CHL1  H21A 5715   4.869   3.650   9.150  2.4930 -2.1633 -0.5695
   44CHL1  H21B 5716   4.927   3.762   9.025  0.2921  1.0383  0.2333
   44CHL1  H21C 5717   4.907   3.814   9.192  2.1044 -0.3423  2.1477
   44CHL1   C22 5718   5.153   3.598   9.072 -0.5545  0.1184 -0.1475
   44CHL1  H22A 5719   5.263   3.604   9.088 -0.3698 -1.3689 -0.6965
   44CHL1  H22B 5720   5.115   3.495   9.090  2.2322 -1.1719 -1.0575
   44CHL1   C23 5721   5.122   3.636   8.926  0.2196 -0.1656  0.1883
   44CHL1  H23A 5722   5.017   3.609   8.899 -0.6979  1.4967  1.8663
   44CHL1  H23B 5723   5.136   3.744   8.906 -2.1208  0.4457  1.4312
   44CHL1   C24 5724   5.217   3.564   8.823 -0.2548  0.4140 -0.1885
   44CHL1  H24A 5725   5.314   3.578   8.875 -1.0217 -0.0690  1.4601
   44CHL1  H24B 5726   5.191   3.457   8.812 -1.0596  0.7381 -1.6650
   44CHL1   C25 5727   5.217   3.625   8.684 -0.3816 -0.1824  0.5979
   44CHL1   H25 5728   5.268   3.721   8.705 -0.4667  0.6278 -2.3638
   44CHL1   C26 5729   5.301   3.542   8.583  0.6796  0.0422 -0.2582
   44CHL1  H26A 5730   5.251   3.444   8.565  0.6146  0.2250 -1.1280
   44CHL1  H26B 5731   5.321   3.597   8.488  0.7451 -1.4777 -1.1484
   44CHL1  H26C 5732   5.404   3.529   8.621  0.4676  1.3489  0.8453
   44CHL1   C27 5733   5.083   3.662   8.628  0.0746 -0.0426  0.5303
   44CHL1  H27A 5734   5.033   3.566   8.601  0.4350  0.1212 -0.7535
   44CHL1  H27B 5735   5.014   3.715   8.697 -1.1143 -0.6977 -0.1132
   44CHL1  H27C 5736   5.088   3.704   8.526 -1.3078  0.3725  0.6175
   45CHL1    C3 5737   2.078   2.816  10.131  0.3592 -0.6724 -1.0373
   45CHL1    H3 5738   1.998   2.743  10.156 -0.6662  0.8607  0.4026
   45CHL1    O3 5739   2.118   2.885  10.257 -0.0839  0.3173 -0.0603
   45CHL1   H3' 5740   2.055   2.872  10.328 -1.1949 -1.1794 -1.2415
   45CHL1    C4 5741   2.195   2.752  10.065  0.1728 -0.0881 -0.2106
   45CHL1   H4A 5742   2.277   2.827  10.064 -0.1594  0.4685  3.0429
   45CHL1   H4B 5743   2.234   2.675  10.135 -1.5874 -0.8404  0.0066
   45CHL1    C5 5744   2.171   2.698   9.927  0.4018 -0.3646  0.4195
   45CHL1    C6 5745   2.202   2.568   9.901  0.5086 -0.0526 -0.3439
   45CHL1    H6 5746   2.252   2.516   9.984  1.0119 -2.1959 -1.8835
   45CHL1    C7 5747   2.195   2.507   9.763  0.8330 -0.8848 -0.4123
   45CHL1   H7A 5748   2.295   2.511   9.716  1.2821  0.8420  0.6067
   45CHL1   H7B 5749   2.162   2.401   9.761  0.8285 -0.8778 -1.8542
   45CHL1    C8 5750   2.094   2.584   9.660 -0.6458 -0.2427 -0.3248
   45CHL1    H8 5751   2.017   2.505   9.645  1.6634 -2.8565  0.7262
   45CHL1   C14 5752   2.166   2.621   9.528  0.5443 -0.4167 -0.4861
   45CHL1   H14 5753   2.242   2.697   9.558  0.3114 -1.0482  1.8822
   45CHL1   C15 5754   2.229   2.501   9.466 -0.0129  0.7638 -0.0539
   45CHL1  H15A 5755   2.334   2.484   9.498 -0.3806  0.6926  1.1573
   45CHL1  H15B 5756   2.174   2.412   9.502  1.0478 -0.8881 -2.2802
   45CHL1   C16 5757   2.210   2.518   9.315 -1.2007 -0.4137  0.0575
   45CHL1  H16A 5758   2.278   2.599   9.280  0.4712 -1.3678  0.9821
   45CHL1  H16B 5759   2.230   2.423   9.260 -0.3657 -0.8436  1.0735
   45CHL1   C17 5760   2.071   2.578   9.305  0.1629  1.1548  0.0017
   45CHL1   H17 5761   2.004   2.495   9.336 -4.0074  3.9883 -0.6585
   45CHL1   C13 5762   2.067   2.676   9.418  0.3103 -0.1171 -0.4656
   45CHL1   C18 5763   2.133   2.804   9.370 -0.2708 -0.3234 -0.4652
   45CHL1  H18A 5764   2.083   2.859   9.287  0.3270 -0.4782 -0.9345
   45CHL1  H18B 5765   2.127   2.874   9.456  0.1925 -2.4454  1.3830
   45CHL1  H18C 5766   2.242   2.791   9.351  0.6194  1.2852  2.7875
   45CHL1   C12 5767   1.920   2.703   9.481  0.1776 -0.5094 -0.0242
   45CHL1  H12A 5768   1.848   2.754   9.414 -0.6180 -1.3428  0.1781
   45CHL1  H12B 5769   1.879   2.601   9.489 -1.8568  0.3932  2.1725
   45CHL1   C11 5770   1.929   2.776   9.619  0.9941  0.5217  0.1764
   45CHL1  H11A 5771   1.968   2.880   9.618 -1.0731  1.3402 -0.7959
   45CHL1  H11B 5772   1.827   2.790   9.660  0.1767  3.1630 -2.4502
   45CHL1    C9 5773   2.018   2.698   9.724 -0.5821  0.4448 -0.3134
   45CHL1    H9 5774   1.944   2.645   9.788 -0.1276 -2.9551 -2.3588
   45CHL1   C10 5775   2.089   2.785   9.827 -0.5355  0.4622  0.0555
   45CHL1   C19 5776   2.195   2.890   9.764  0.0592 -0.1745 -0.3525
   45CHL1  H19A 5777   2.289   2.840   9.733  2.5490  4.4711 -1.1245
   45CHL1  H19B 5778   2.155   2.945   9.677  3.0470 -1.1225 -2.5074
   45CHL1  H19C 5779   2.222   2.965   9.842 -1.0730  1.1047 -1.1577
   45CHL1    C1 5780   1.986   2.878   9.898 -0.0586 -0.5184 -0.8314
   45CHL1   H1A 5781   1.956   2.964   9.834 -1.5376 -0.8931 -0.6768
   45CHL1   H1B 5782   1.895   2.813   9.905 -2.2221  2.3377 -0.4812
   45CHL1    C2 5783   2.019   2.923  10.042  0.0173  0.6955  0.0143
   45CHL1   H2A 5784   1.927   2.973  10.081 -1.1283 -2.0916  1.1183
   45CHL1   H2B 5785   2.092   3.007  10.036  2.2458 -1.2074 -1.2593
   45CHL1   C20 5786   2.029   2.614   9.156  0.6664  0.4680 -0.6780
   45CHL1   H20 5787   2.040   2.725   9.148  1.4994  0.7645  2.7826
   45CHL1   C21 5788   1.880   2.586   9.144 -0.0047 -0.8743 -0.6971
   45CHL1  H21A 5789   1.859   2.480   9.169 -2.9382  0.0660  1.3547
   45CHL1  H21B 5790   1.834   2.606   9.044  2.2003  2.2145 -1.2409
   45CHL1  H21C 5791   1.830   2.651   9.219  1.3862  0.1811 -0.6453
   45CHL1   C22 5792   2.112   2.545   9.043  0.1571  0.3172 -0.1246
   45CHL1  H22A 5793   2.219   2.566   9.064  0.7904  0.6443 -3.2391
   45CHL1  H22B 5794   2.090   2.437   9.052  1.6375  0.0513  0.6562
   45CHL1   C23 5795   2.084   2.577   8.895 -0.1513  0.2626 -0.7792
   45CHL1  H23A 5796   2.156   2.504   8.851  1.4813  1.6660 -0.5529
   45CHL1  H23B 5797   1.979   2.547   8.876  0.4721 -2.4521 -0.3579
   45CHL1   C24 5798   2.096   2.723   8.852 -0.7646 -0.0131  0.3458
   45CHL1  H24A 5799   2.061   2.739   8.747 -0.6862 -1.6030  0.0579
   45CHL1  H24B 5800   2.024   2.782   8.912 -0.4410 -0.0697  0.7874
   45CHL1   C25 5801   2.235   2.781   8.849 -0.4406 -0.3394  0.2020
   45CHL1   H25 5802   2.289   2.760   8.943 -0.3349 -0.3079  0.1479
   45CHL1   C26 5803   2.328   2.718   8.737 -0.0963 -0.1521  0.0608
   45CHL1  H26A 5804   2.286   2.752   8.640 -0.8015 -1.9485 -0.3136
   45CHL1  H26B 5805   2.435   2.742   8.753  0.1963 -1.2760 -0.1238
   45CHL1  H26C 5806   2.315   2.608   8.733  2.1485 -0.3968 -1.8078
   45CHL1   C27 5807   2.236   2.934   8.827  0.4718  0.1311 -0.7618
   45CHL1  H27A 5808   2.327   2.986   8.863 -0.6961  1.2557  0.7436
   45CHL1  H27B 5809   2.213   2.969   8.724 -2.6133 -4.7441 -2.0864
   45CHL1  H27C 5810   2.149   2.968   8.889  0.7516  0.0194 -0.3007
   46CHL1    C3 5811   3.714   5.474   9.967 -0.3848 -0.2817 -0.1627
   46CHL1    H3 5812   3.774   5.381   9.968 -0.1981 -0.1609 -0.0595
   46CHL1    O3 5813   3.658   5.506  10.095  0.5468  0.1399 -0.0381
   46CHL1   H3' 5814   3.728   5.483  10.157  2.4891 -0.9101 -2.4369
   46CHL1    C4 5815   3.802   5.587   9.919  0.0985 -0.4370 -0.6432
   46CHL1   H4A 5816   3.745   5.683   9.924  0.0177 -0.4433 -1.2679
   46CHL1   H4B 5817   3.880   5.613   9.993 -1.1832  0.6122  0.4006
   46CHL1    C5 5818   3.850   5.583   9.778  0.0239  0.3099 -0.1169
   46CHL1    C6 5819   3.982   5.592   9.753  0.4703 -0.2921 -0.8756
   46CHL1    H6 5820   4.051   5.608   9.838  0.6509 -0.8212 -0.9153
   46CHL1    C7 5821   4.042   5.587   9.620  0.4061 -0.3090 -0.0811
   46CHL1   H7A 5822   4.102   5.679   9.604 -0.8117  0.1113 -2.7298
   46CHL1   H7B 5823   4.115   5.505   9.603 -0.1050 -0.4159 -2.0262
   46CHL1    C8 5824   3.932   5.585   9.506  0.0430  0.7999  0.0241
   46CHL1    H8 5825   3.891   5.685   9.483 -1.6769 -0.2914 -2.0450
   46CHL1   C14 5826   3.988   5.528   9.372 -0.8467  0.8574  0.0442
   46CHL1   H14 5827   4.008   5.421   9.392 -3.9346 -0.2998 -2.1580
   46CHL1   C15 5828   4.126   5.578   9.320 -1.1727 -0.0828  0.5200
   46CHL1  H15A 5829   4.132   5.688   9.327 -3.4781  0.1788 -0.8266
   46CHL1  H15B 5830   4.206   5.528   9.380  0.3688 -0.5714 -1.7819
   46CHL1   C16 5831   4.122   5.532   9.172 -0.3632 -0.7846 -0.4871
   46CHL1  H16A 5832   4.112   5.627   9.117  1.3059 -0.9106 -1.0380
   46CHL1  H16B 5833   4.208   5.470   9.139 -0.5797 -1.1769 -0.3344
   46CHL1   C17 5834   3.982   5.465   9.144  0.3637 -0.8255  0.1050
   46CHL1   H17 5835   3.989   5.355   9.161 -0.5178 -0.9513 -0.3323
   46CHL1   C13 5836   3.888   5.528   9.256 -0.6341  0.3800  0.4579
   46CHL1   C18 5837   3.843   5.666   9.214 -0.3830 -0.5057 -0.0830
   46CHL1  H18A 5838   3.781   5.725   9.285  0.5041 -1.5793  1.6252
   46CHL1  H18B 5839   3.933   5.725   9.186 -0.8733  0.8417  1.0478
   46CHL1  H18C 5840   3.778   5.667   9.124 -0.7005  3.4915  0.0191
   46CHL1   C12 5841   3.762   5.448   9.293  0.3823  0.7514  0.1579
   46CHL1  H12A 5842   3.693   5.457   9.206 -0.0193  1.0702  0.5073
   46CHL1  H12B 5843   3.798   5.343   9.296  0.4752  0.7356 -1.0692
   46CHL1   C11 5844   3.702   5.481   9.431  0.2105 -0.4175  0.4344
   46CHL1  H11A 5845   3.647   5.576   9.418 -0.3273 -0.5566  1.6128
   46CHL1  H11B 5846   3.636   5.400   9.468  1.3062 -0.5554  2.2021
   46CHL1    C9 5847   3.810   5.502   9.549  0.1038 -0.6154 -0.1407
   46CHL1    H9 5848   3.851   5.403   9.579 -1.1507 -1.1921 -0.2686
   46CHL1   C10 5849   3.743   5.548   9.677  0.3427 -0.0080  0.2550
   46CHL1   C19 5850   3.660   5.682   9.650 -0.1658 -0.6162 -0.4564
   46CHL1  H19A 5851   3.624   5.722   9.748 -2.6132 -0.4929 -1.3358
   46CHL1  H19B 5852   3.733   5.754   9.607 -0.5040 -0.1612 -0.2827
   46CHL1  H19C 5853   3.565   5.661   9.596 -1.3399 -0.0865  1.3067
   46CHL1    C1 5854   3.645   5.436   9.733 -0.4401 -0.0329 -0.3084
   46CHL1   H1A 5855   3.560   5.437   9.660 -0.3803  1.3428 -0.3715
   46CHL1   H1B 5856   3.694   5.336   9.725 -3.3783 -1.5236 -1.2869
   46CHL1    C2 5857   3.596   5.463   9.874 -0.2561  0.0027 -0.3209
   46CHL1   H2A 5858   3.527   5.384   9.909 -1.3960 -0.0594 -2.5150
   46CHL1   H2B 5859   3.537   5.557   9.882  0.5449  0.4056  1.4807
   46CHL1   C20 5860   3.937   5.471   8.997  0.4580 -0.2426 -0.5979
   46CHL1   H20 5861   3.898   5.573   8.973  0.7825 -0.0665 -0.3857
   46CHL1   C21 5862   3.840   5.350   8.970 -0.7913 -1.3274 -0.5712
   46CHL1  H21A 5863   3.908   5.261   8.973 -1.0526 -1.7190 -3.4944
   46CHL1  H21B 5864   3.798   5.356   8.867 -1.5801 -1.5914 -0.2720
   46CHL1  H21C 5865   3.763   5.350   9.050  0.9494 -2.8391  1.2197
   46CHL1   C22 5866   4.057   5.455   8.906 -0.3251  0.3536  0.6089
   46CHL1  H22A 5867   4.136   5.532   8.920  1.6665 -1.4065 -0.4014
   46CHL1  H22B 5868   4.099   5.353   8.921 -0.4594 -0.1427 -1.9354
   46CHL1   C23 5869   4.012   5.467   8.754 -0.7246  0.3329 -0.0120
   46CHL1  H23A 5870   3.935   5.391   8.730  0.3346 -1.5302  2.1160
   46CHL1  H23B 5871   3.962   5.565   8.737 -2.3290 -0.8358 -2.7471
   46CHL1   C24 5872   4.135   5.465   8.663 -0.5051  0.4440  0.4533
   46CHL1  H24A 5873   4.192   5.560   8.665  1.5248 -0.6296 -1.3687
   46CHL1  H24B 5874   4.206   5.383   8.686  0.9550  1.2560 -0.9818
   46CHL1   C25 5875   4.089   5.451   8.516 -0.6768  0.3361  0.4958
   46CHL1   H25 5876   3.984   5.485   8.510 -0.0155  2.3258 -0.6727
   46CHL1   C26 5877   4.175   5.539   8.420  0.4833 -0.1772  0.3765
   46CHL1  H26A 5878   4.215   5.642   8.438 -1.0697  0.6689 -0.7794
   46CHL1  H26B 5879   4.265   5.478   8.399 -0.5607 -1.0288 -1.8706
   46CHL1  H26C 5880   4.119   5.534   8.324  1.1058 -1.1218  0.0512
   46CHL1   C27 5881   4.083   5.304   8.471 -0.2367 -0.2143 -0.4429
   46CHL1  H27A 5882   4.046   5.291   8.367  0.4674 -1.6569 -0.5349
   46CHL1  H27B 5883   4.184   5.258   8.468  0.7251  1.8134 -1.1944
   46CHL1  H27C 5884   4.014   5.249   8.538  1.3891  0.3013  1.7516
   47CHL1    C3 5885   4.561   2.998  10.105 -0.9913  0.0438 -0.2384
   47CHL1    H3 5886   4.475   3.065  10.083 -1.7874 -0.6252  0.7550
   47CHL1    O3 5887   4.606   3.024  10.241 -0.5631 -0.6018 -0.0823
   47CHL1   H3' 5888   4.693   2.982  10.245 -0.5959 -0.6751 -0.1166
   47CHL1    C4 5889   4.518   2.849  10.089  0.2502 -0.0866  0.1452
   47CHL1   H4A 5890   4.602   2.792  10.132 -1.0160 -1.8923  0.3219
   47CHL1   H4B 5891   4.439   2.835  10.166  0.2619 -0.7375  0.0419
   47CHL1    C5 5892   4.488   2.803   9.950 -0.3755 -0.3070 -0.0030
   47CHL1    C6 5893   4.371   2.738   9.914  0.1938  0.4315 -0.2004
   47CHL1    H6 5894   4.295   2.726   9.992  0.3566 -0.0484 -0.1161
   47CHL1    C7 5895   4.336   2.680   9.775 -0.5342  0.6246  0.1106
   47CHL1   H7A 5896   4.306   2.575   9.796  2.3679 -0.5529 -1.0099
   47CHL1   H7B 5897   4.255   2.740   9.729  0.5999  0.3845 -2.3772
   47CHL1    C8 5898   4.458   2.675   9.680 -0.2392 -0.8132 -0.4583
   47CHL1    H8 5899   4.543   2.608   9.705  1.9275  1.4569 -1.3197
   47CHL1   C14 5900   4.410   2.673   9.535  0.3771 -0.1537 -1.0310
   47CHL1   H14 5901   4.338   2.758   9.531  0.3169  0.0433  2.2470
   47CHL1   C15 5902   4.335   2.541   9.498 -0.0631 -0.2070  0.1165
   47CHL1  H15A 5903   4.389   2.462   9.556 -1.7054 -2.2984 -1.0740
   47CHL1  H15B 5904   4.227   2.536   9.522 -0.1932 -1.0017 -0.6014
   47CHL1   C16 5905   4.359   2.535   9.343 -0.5760  0.0756  0.0194
   47CHL1  H16A 5906   4.410   2.438   9.323 -0.2272  0.2012  0.2780
   47CHL1  H16B 5907   4.263   2.549   9.290  0.1757 -0.1358 -1.4496
   47CHL1   C17 5908   4.436   2.661   9.300 -0.6784  0.9030 -0.3873
   47CHL1   H17 5909   4.363   2.744   9.296  1.1722  2.5766 -2.1618
   47CHL1   C13 5910   4.518   2.687   9.428 -0.3430 -0.0883  0.1179
   47CHL1   C18 5911   4.621   2.566   9.446  0.9407  0.1538  0.2955
   47CHL1  H18A 5912   4.580   2.463   9.443 -1.0565  0.8833  0.7138
   47CHL1  H18B 5913   4.695   2.568   9.363  0.2282 -1.7747 -0.4469
   47CHL1  H18C 5914   4.664   2.564   9.548 -0.4234 -2.4377  0.9029
   47CHL1   C12 5915   4.585   2.821   9.445  0.6857 -0.0140 -0.3074
   47CHL1  H12A 5916   4.667   2.831   9.371  1.9081 -2.5214  0.5964
   47CHL1  H12B 5917   4.516   2.903   9.417 -0.6669 -0.9095  0.2974
   47CHL1   C11 5918   4.634   2.847   9.587  0.5538 -0.1867 -0.2261
   47CHL1  H11A 5919   4.738   2.805   9.586  0.9339  0.6230  1.5496
   47CHL1  H11B 5920   4.650   2.957   9.594 -1.1872  0.1514 -1.1436
   47CHL1    C9 5921   4.534   2.811   9.696 -0.4391 -0.0819 -0.3503
   47CHL1    H9 5922   4.447   2.878   9.680 -1.7823 -1.9830 -1.5308
   47CHL1   C10 5923   4.585   2.841   9.842 -0.7756 -0.5123  0.5830
   47CHL1   C19 5924   4.707   2.754   9.867  0.4089  0.3261  0.7970
   47CHL1  H19A 5925   4.791   2.765   9.795  0.0131  0.3629  0.3340
   47CHL1  H19B 5926   4.752   2.758   9.968  1.3220 -0.5064  0.4368
   47CHL1  H19C 5927   4.675   2.649   9.851  2.1770  0.0680 -1.7728
   47CHL1    C1 5928   4.640   2.988   9.860  0.0129 -0.3325  0.3749
   47CHL1   H1A 5929   4.729   3.000   9.795 -0.7479  1.1251 -0.4304
   47CHL1   H1B 5930   4.555   3.054   9.832 -0.9058 -0.9940  1.4725
   47CHL1    C2 5931   4.683   3.019  10.004  0.7954 -0.1446 -0.4829
   47CHL1   H2A 5932   4.704   3.128  10.008  3.1374 -0.5811  0.8888
   47CHL1   H2B 5933   4.760   2.956  10.054 -0.8671 -1.6174  0.3422
   47CHL1   C20 5934   4.497   2.642   9.158 -0.6458 -0.2990  0.0360
   47CHL1   H20 5935   4.592   2.584   9.164 -1.2580 -1.2089  1.4803
   47CHL1   C21 5936   4.522   2.787   9.102  0.5927 -0.2568  0.1014
   47CHL1  H21A 5937   4.586   2.781   9.012 -0.4399  1.8184 -0.8440
   47CHL1  H21B 5938   4.585   2.839   9.178  1.6522  0.8407 -1.4622
   47CHL1  H21C 5939   4.432   2.848   9.077  1.7587  0.6267 -2.2378
   47CHL1   C22 5940   4.405   2.563   9.055  0.4043 -0.3459 -0.0621
   47CHL1  H22A 5941   4.386   2.458   9.086  0.8677 -0.3382  0.2598
   47CHL1  H22B 5942   4.314   2.626   9.054  0.7355  0.1291 -0.5689
   47CHL1   C23 5943   4.466   2.551   8.910  0.3984 -0.0381  0.0230
   47CHL1  H23A 5944   4.462   2.648   8.856  0.0181 -0.5254 -0.8405
   47CHL1  H23B 5945   4.575   2.531   8.915  0.3150 -0.6198 -0.3971
   47CHL1   C24 5946   4.431   2.431   8.822 -0.2036 -0.3706  0.0492
   47CHL1  H24A 5947   4.452   2.338   8.878 -0.2141 -1.0024 -0.9648
   47CHL1  H24B 5948   4.321   2.423   8.805 -0.5458  1.2366  1.2550
   47CHL1   C25 5949   4.495   2.410   8.681 -0.4436  0.1455 -0.1331
   47CHL1   H25 5950   4.593   2.362   8.699  0.3095  1.9359  0.7015
   47CHL1   C26 5951   4.413   2.307   8.599 -0.1600 -0.4788  0.2477
   47CHL1  H26A 5952   4.470   2.271   8.511 -1.3418 -0.0688 -0.7235
   47CHL1  H26B 5953   4.318   2.350   8.559 -0.8399 -2.0149  0.1625
   47CHL1  H26C 5954   4.389   2.222   8.665 -0.8779 -2.4087 -2.3460
   47CHL1   C27 5955   4.539   2.532   8.601  0.1538  0.2875  0.3864
   47CHL1  H27A 5956   4.587   2.607   8.667  1.8150 -1.2093  0.9862
   47CHL1  H27B 5957   4.610   2.505   8.519 -0.1662 -0.2490  0.2836
   47CHL1  H27C 5958   4.450   2.576   8.553  1.3752 -2.7746 -5.7289
   48CHL1    C3 5959   0.254   3.298  10.078  0.8503 -0.3033 -0.3687
   48CHL1    H3 5960   0.232   3.206  10.019  0.1204 -0.8247  0.7028
   48CHL1    O3 5961   0.371   3.262  10.150 -0.5148 -0.0083  0.0845
   48CHL1   H3' 5962   0.354   3.294  10.239 -0.0866  2.1435 -0.5355
   48CHL1    C4 5963   0.288   3.415   9.979  0.4720  0.2368  0.0431
   48CHL1   H4A 5964   0.318   3.500  10.044  0.7688 -2.0614  3.1692
   48CHL1   H4B 5965   0.380   3.396   9.920  1.3427  2.0214  0.7674
   48CHL1    C5 5966   0.172   3.460   9.892  0.7271  0.7928  0.5901
   48CHL1    C6 5967   0.177   3.472   9.753  0.2029 -0.1809 -1.1393
   48CHL1    H6 5968   0.274   3.457   9.705  0.8943  0.9446 -0.1394
   48CHL1    C7 5969   0.065   3.520   9.669  0.2253 -0.0017 -0.2038
   48CHL1   H7A 5970   0.094   3.592   9.589  2.5546 -0.5310  0.0966
   48CHL1   H7B 5971   0.010   3.436   9.622 -0.5225  1.0047 -1.1845
   48CHL1    C8 5972  -0.047   3.594   9.748 -0.7426  0.1346 -0.6393
   48CHL1    H8 5973  -0.003   3.694   9.768  0.8832 -0.3322 -1.7395
   48CHL1   C14 5974  -0.173   3.606   9.664  0.5304  0.4700  0.1287
   48CHL1   H14 5975  -0.202   3.499   9.654  1.5337  0.3183 -1.7465
   48CHL1   C15 5976  -0.172   3.641   9.513  0.0220  0.0351  0.2452
   48CHL1  H15A 5977  -0.113   3.735   9.514  1.3690 -0.7691 -0.5256
   48CHL1  H15B 5978  -0.127   3.560   9.453  1.9180  0.5102  0.9650
   48CHL1   C16 5979  -0.319   3.673   9.487  0.5993  0.0646  0.2987
   48CHL1  H16A 5980  -0.338   3.778   9.456 -0.1927 -0.0077  0.5193
   48CHL1  H16B 5981  -0.382   3.612   9.420 -1.2448  2.3296 -0.1909
   48CHL1   C17 5982  -0.393   3.670   9.622 -0.3172  0.0913 -0.3788
   48CHL1   H17 5983  -0.438   3.569   9.633 -0.4296 -0.3183 -3.6243
   48CHL1   C13 5984  -0.281   3.680   9.728  0.8606 -0.0477 -0.0882
   48CHL1   C18 5985  -0.241   3.827   9.748 -0.0963 -0.1743  0.1095
   48CHL1  H18A 5986  -0.321   3.899   9.776  0.8199  0.2089  1.8509
   48CHL1  H18B 5987  -0.151   3.834   9.813 -0.6067 -0.7454  0.8943
   48CHL1  H18C 5988  -0.223   3.866   9.645 -1.0655 -1.1650 -0.4646
   48CHL1   C12 5989  -0.315   3.608   9.864 -0.3540  0.7462 -0.3326
   48CHL1  H12A 5990  -0.393   3.657   9.927  1.0330  0.3465  1.7879
   48CHL1  H12B 5991  -0.356   3.510   9.831 -1.8791  1.6226 -1.1784
   48CHL1   C11 5992  -0.194   3.586   9.953  0.5282 -0.2342  0.0829
   48CHL1  H11A 5993  -0.148   3.681   9.987  0.2033  0.6151 -1.7210
   48CHL1  H11B 5994  -0.223   3.525  10.041  0.2080  0.1932  0.2754
   48CHL1    C9 5995  -0.077   3.523   9.875  0.3329  0.1332  0.1309
   48CHL1    H9 5996  -0.111   3.422   9.845  0.8070  0.7576 -2.7962
   48CHL1   C10 5997   0.045   3.489   9.969  0.7719 -0.1160  0.6631
   48CHL1   C19 5998   0.076   3.609  10.062 -0.1821  1.1218  0.6271
   48CHL1  H19A 5999   0.158   3.587  10.133 -0.5917 -0.3641  0.6893
   48CHL1  H19B 6000   0.089   3.705  10.009  1.1994  1.5304  1.6644
   48CHL1  H19C 6001  -0.011   3.634  10.127 -1.1200  3.0532 -1.2425
   48CHL1    C1 6002   0.007   3.366  10.062 -0.0500  0.1180  0.5148
   48CHL1   H1A 6003  -0.076   3.386  10.134  1.2709 -1.8699  2.7327
   48CHL1   H1B 6004  -0.034   3.288   9.995  2.2547 -0.4921 -0.2568
   48CHL1    C2 6005   0.124   3.322  10.152 -0.1556  0.0017 -0.4118
   48CHL1   H2A 6006   0.104   3.225  10.202 -2.2510 -0.6681 -2.3849
   48CHL1   H2B 6007   0.146   3.402  10.225 -1.0540  0.0425 -0.1776
   48CHL1   C20 6008  -0.513   3.775   9.620  0.7014 -0.0880  0.2284
   48CHL1   H20 6009  -0.478   3.879   9.602  2.3619 -0.3824  1.4239
   48CHL1   C21 6010  -0.592   3.779   9.764 -0.0984  0.3105  0.2980
   48CHL1  H21A 6011  -0.700   3.796   9.742  0.4845 -0.1664 -3.5394
   48CHL1  H21B 6012  -0.550   3.844   9.844 -0.1371  1.4111 -0.5494
   48CHL1  H21C 6013  -0.586   3.673   9.799 -2.6414 -0.6295 -1.7447
   48CHL1   C22 6014  -0.616   3.742   9.511  0.8075  0.9254 -0.1886
   48CHL1  H22A 6015  -0.695   3.819   9.511  1.9034  2.1510  2.0474
   48CHL1  H22B 6016  -0.566   3.747   9.412  0.2882 -0.2822 -0.5297
   48CHL1   C23 6017  -0.685   3.601   9.506  0.5043 -0.8259 -0.0731
   48CHL1  H23A 6018  -0.607   3.522   9.504 -0.5751 -1.9504  0.8284
   48CHL1  H23B 6019  -0.737   3.589   9.603  0.5161  0.1337  0.0628
   48CHL1   C24 6020  -0.774   3.585   9.388 -0.0789  0.0667  1.0523
   48CHL1  H24A 6021  -0.839   3.496   9.400 -2.2046  1.4996  0.6289
   48CHL1  H24B 6022  -0.840   3.674   9.378  0.5222  0.3684 -0.6861
   48CHL1   C25 6023  -0.695   3.570   9.255 -0.4188 -0.9350 -0.6374
   48CHL1   H25 6024  -0.633   3.660   9.238 -4.3995  2.5331  1.2473
   48CHL1   C26 6025  -0.593   3.453   9.247 -0.0832  0.3915 -0.5309
   48CHL1  H26A 6026  -0.649   3.358   9.258 -1.4329  0.8799 -2.6990
   48CHL1  H26B 6027  -0.536   3.462   9.152  1.6479 -1.4160  0.2553
   48CHL1  H26C 6028  -0.518   3.475   9.326 -1.2676  2.6777  0.0382
   48CHL1   C27 6029  -0.796   3.564   9.136 -0.1351 -0.1638  0.7754
   48CHL1  H27A 6030  -0.835   3.460   9.129  2.5052 -1.1048 -2.3964
   48CHL1  H27B 6031  -0.884   3.631   9.144 -1.4311 -1.8611  1.4022
   48CHL1  H27C 6032  -0.741   3.582   9.041 -1.8778  1.3696  0.0003
   49CHL1    C3 6033   4.062   5.252  10.007 -0.1983 -0.1511  0.0414
   49CHL1    H3 6034   4.002   5.344   9.990 -2.8481 -1.6475  0.8565
   49CHL1    O3 6035   4.064   5.231  10.148 -0.7620 -0.8935 -0.2076
   49CHL1   H3' 6036   4.135   5.169  10.162  0.5394 -0.1818 -3.0788
   49CHL1    C4 6037   4.009   5.129   9.927 -0.1885 -0.4772  0.4233
   49CHL1   H4A 6038   4.060   5.037   9.964 -2.8085 -2.7883 -1.3042
   49CHL1   H4B 6039   3.903   5.120   9.957 -0.0067 -0.5060  1.0735
   49CHL1    C5 6040   4.017   5.130   9.779  0.1359 -0.3576  1.0330
   49CHL1    C6 6041   3.910   5.110   9.703  0.7104  0.4068  0.0644
   49CHL1    H6 6042   3.814   5.090   9.753  0.5182 -0.5781 -0.6614
   49CHL1    C7 6043   3.921   5.099   9.553  0.0850  0.0657  0.7087
   49CHL1   H7A 6044   3.863   5.014   9.510  2.4065 -0.5041 -1.5519
   49CHL1   H7B 6045   3.879   5.195   9.515 -0.9191  0.9612  3.8314
   49CHL1    C8 6046   4.070   5.084   9.507  0.5320  0.7953 -0.3361
   49CHL1    H8 6047   4.100   4.980   9.534  0.3983  0.8601  0.0716
   49CHL1   C14 6048   4.086   5.093   9.354  0.8925 -0.7353  0.2297
   49CHL1   H14 6049   4.045   5.193   9.329 -2.7541 -2.1760 -0.2409
   49CHL1   C15 6050   3.992   5.004   9.274 -0.1003  0.6130 -0.0775
   49CHL1  H15A 6051   3.993   4.900   9.313 -0.1129  1.5221  2.5418
   49CHL1  H15B 6052   3.888   5.043   9.268 -0.2962  0.2025  0.5526
   49CHL1   C16 6053   4.060   4.997   9.135 -0.0658  0.0033 -0.2037
   49CHL1  H16A 6054   4.104   4.901   9.103 -1.4816 -0.8495  0.3415
   49CHL1  H16B 6055   3.986   5.028   9.059 -0.5772 -0.4510  0.1044
   49CHL1   C17 6056   4.180   5.096   9.148  0.0205  0.2193  0.8986
   49CHL1   H17 6057   4.133   5.195   9.128 -1.1405  0.0909  2.7742
   49CHL1   C13 6058   4.225   5.098   9.294  0.3234 -0.8717  0.2271
   49CHL1   C18 6059   4.299   4.965   9.329 -0.3463  0.0737  0.0872
   49CHL1  H18A 6060   4.318   4.963   9.438 -0.4890  1.4155  0.1545
   49CHL1  H18B 6061   4.243   4.875   9.295 -0.9416  0.1095  0.9305
   49CHL1  H18C 6062   4.400   4.979   9.285 -0.3734 -0.1177 -0.0384
   49CHL1   C12 6063   4.289   5.221   9.360 -0.7674  0.6620 -1.0977
   49CHL1  H12A 6064   4.390   5.240   9.318 -0.3544 -0.8326 -0.8526
   49CHL1  H12B 6065   4.216   5.298   9.329 -0.9538  1.1893  0.5756
   49CHL1   C11 6066   4.292   5.214   9.512 -0.2488 -0.0123 -0.3259
   49CHL1  H11A 6067   4.356   5.127   9.538 -0.2667  0.4199  1.3105
   49CHL1  H11B 6068   4.332   5.304   9.564 -1.2372 -0.9672  2.2694
   49CHL1    C9 6069   4.154   5.189   9.577 -0.1178  0.2989  0.1411
   49CHL1    H9 6070   4.109   5.290   9.564  0.5194  0.3671 -1.8957
   49CHL1   C10 6071   4.162   5.160   9.734 -0.1659  0.2019  0.4132
   49CHL1   C19 6072   4.252   5.036   9.771 -0.3104 -0.3902  0.1610
   49CHL1  H19A 6073   4.259   5.009   9.879 -0.3309 -2.8346 -0.3995
   49CHL1  H19B 6074   4.205   4.952   9.716 -3.4558  1.5090 -0.2623
   49CHL1  H19C 6075   4.355   5.069   9.744  0.5837 -0.7520  2.8150
   49CHL1    C1 6076   4.223   5.289   9.812  0.1148  0.0627 -0.2450
   49CHL1   H1A 6077   4.331   5.297   9.787 -0.3268  0.1062 -2.2820
   49CHL1   H1B 6078   4.168   5.379   9.778 -2.1296 -0.6584  1.2126
   49CHL1    C2 6079   4.210   5.278   9.966 -0.4787 -0.1776 -0.3967
   49CHL1   H2A 6080   4.256   5.360  10.026 -1.4711 -0.3462  0.6297
   49CHL1   H2B 6081   4.267   5.191  10.004  3.0903  1.6970 -1.0998
   49CHL1   C20 6082   4.282   5.073   9.035 -0.1975 -0.0070  0.0215
   49CHL1   H20 6083   4.342   4.984   9.062  1.1444  0.7048 -0.5133
   49CHL1   C21 6084   4.386   5.188   9.046 -0.0591 -0.0267  0.6418
   49CHL1  H21A 6085   4.336   5.287   9.045  2.3831  1.3205 -1.9938
   49CHL1  H21B 6086   4.458   5.177   8.962 -1.2388 -1.9900 -0.1855
   49CHL1  H21C 6087   4.454   5.171   9.133  0.7360 -2.0126 -0.2969
   49CHL1   C22 6088   4.222   5.054   8.892  0.3469  0.7281 -0.2087
   49CHL1  H22A 6089   4.131   4.989   8.889  0.6387  0.3627 -1.5123
   49CHL1  H22B 6090   4.173   5.151   8.870 -0.8135  0.4207  0.8746
   49CHL1   C23 6091   4.322   5.023   8.782  0.0254 -0.1221 -0.1205
   49CHL1  H23A 6092   4.380   5.116   8.762 -1.0642  0.3436 -1.2389
   49CHL1  H23B 6093   4.392   4.951   8.831  0.8052  0.6138 -0.1322
   49CHL1   C24 6094   4.253   4.966   8.650 -0.1036  0.2782 -0.3555
   49CHL1  H24A 6095   4.193   4.879   8.682 -0.1560  0.5571  0.3233
   49CHL1  H24B 6096   4.200   5.053   8.605 -2.1828 -1.5646 -1.6267
   49CHL1   C25 6097   4.365   4.926   8.551  0.3055 -0.2087 -0.0561
   49CHL1   H25 6098   4.448   4.875   8.605  0.1683  0.4070  0.7487
   49CHL1   C26 6099   4.311   4.825   8.438 -0.1204 -1.5340 -0.0867
   49CHL1  H26A 6100   4.383   4.788   8.362  0.5292 -0.0911 -0.2103
   49CHL1  H26B 6101   4.262   4.736   8.483  1.7590 -2.5383  0.0363
   49CHL1  H26C 6102   4.243   4.888   8.376  0.8598 -0.4361 -0.0818
   49CHL1   C27 6103   4.435   5.044   8.478  0.2059  0.6925 -0.3058
   49CHL1  H27A 6104   4.541   5.030   8.447  0.8453  0.7380  1.7403
   49CHL1  H27B 6105   4.374   5.076   8.391  0.1609  2.3385  0.3053
   49CHL1  H27C 6106   4.435   5.138   8.536  1.4245  2.4065 -2.8883
   50CHL1    C3 6107   0.686   1.603  10.031  0.3613  0.0796  0.6151
   50CHL1    H3 6108   0.767   1.529  10.014  1.0418  0.8280  0.5443
   50CHL1    O3 6109   0.680   1.649  10.164 -0.5100 -0.0922  0.5507
   50CHL1   H3' 6110   0.620   1.724  10.164 -1.0497 -0.5193  0.5157
   50CHL1    C4 6111   0.699   1.724   9.934  0.2624 -0.2872  1.2320
   50CHL1   H4A 6112   0.614   1.794   9.949 -1.3147 -1.3844 -1.7161
   50CHL1   H4B 6113   0.793   1.780   9.953  0.1790  1.1522 -2.0166
   50CHL1    C5 6114   0.701   1.677   9.790  0.3999  0.4599  0.7119
   50CHL1    C6 6115   0.802   1.695   9.703  0.8836  0.2760  0.1634
   50CHL1    H6 6116   0.890   1.741   9.748  0.4550  0.0561  1.2662
   50CHL1    C7 6117   0.802   1.658   9.553 -0.2383  0.0220 -0.5386
   50CHL1   H7A 6118   0.866   1.726   9.493 -0.9910  1.9449  0.7054
   50CHL1   H7B 6119   0.842   1.555   9.542 -1.0845 -0.4964  0.9401
   50CHL1    C8 6120   0.655   1.644   9.498  0.3505  0.0106 -0.0941
   50CHL1    H8 6121   0.618   1.749   9.497  0.1814 -0.0066  1.4157
   50CHL1   C14 6122   0.654   1.581   9.362 -0.7787  0.0787 -0.1838
   50CHL1   H14 6123   0.692   1.477   9.373 -1.8902 -0.1295  2.4148
   50CHL1   C15 6124   0.742   1.647   9.253  0.2558 -0.8039 -0.6210
   50CHL1  H15A 6125   0.750   1.754   9.281 -2.0365 -0.7485  0.0108
   50CHL1  H15B 6126   0.841   1.599   9.244  0.9512  0.6721 -1.2000
   50CHL1   C16 6127   0.670   1.619   9.123 -0.8460 -0.2045  0.4697
   50CHL1  H16A 6128   0.633   1.715   9.079  0.6340 -0.3759 -1.2716
   50CHL1  H16B 6129   0.735   1.569   9.048 -0.8464  0.9304 -0.3194
   50CHL1   C17 6130   0.549   1.528   9.157 -1.1400  0.4276  0.0255
   50CHL1   H17 6131   0.571   1.420   9.175 -2.1434  0.2599  0.2702
   50CHL1   C13 6132   0.515   1.565   9.304  0.6031 -0.7301 -0.2417
   50CHL1   C18 6133   0.435   1.697   9.306  0.3693 -0.1476 -0.1866
   50CHL1  H18A 6134   0.331   1.670   9.277  0.8306 -2.2325 -0.0318
   50CHL1  H18B 6135   0.425   1.720   9.414  1.1674 -2.6637  0.4935
   50CHL1  H18C 6136   0.472   1.779   9.240 -1.4521  1.2557  0.4405
   50CHL1   C12 6137   0.438   1.453   9.390  0.1346 -0.1508  0.3167
   50CHL1  H12A 6138   0.330   1.437   9.368 -0.0068  1.0221  0.0905
   50CHL1  H12B 6139   0.495   1.358   9.376 -2.1030 -1.8613  1.9046
   50CHL1   C11 6140   0.444   1.490   9.536 -0.3974 -1.6906 -0.6309
   50CHL1  H11A 6141   0.363   1.563   9.555  0.4059 -0.5807 -1.3814
   50CHL1  H11B 6142   0.420   1.396   9.591  2.4387 -0.6821  2.7617
   50CHL1    C9 6143   0.580   1.552   9.598  0.4677  0.1255  0.4801
   50CHL1    H9 6144   0.647   1.464   9.600  1.0394  0.4814 -1.3467
   50CHL1   C10 6145   0.574   1.611   9.746  0.1642  0.8217  0.2601
   50CHL1   C19 6146   0.455   1.716   9.743  0.2608  1.1531  0.4106
   50CHL1  H19A 6147   0.437   1.773   9.837 -1.0425  0.9258  0.3160
   50CHL1  H19B 6148   0.481   1.788   9.661  1.0929 -1.3943 -1.7158
   50CHL1  H19C 6149   0.352   1.677   9.727  0.3938  0.4955  1.0946
   50CHL1    C1 6150   0.543   1.492   9.852  0.4410 -0.4010  0.8702
   50CHL1   H1A 6151   0.442   1.450   9.833 -1.4880  2.0892  4.5156
   50CHL1   H1B 6152   0.618   1.412   9.832  2.0302  0.8142  1.7873
   50CHL1    C2 6153   0.553   1.533   9.997 -0.4150 -0.8345 -0.4817
   50CHL1   H2A 6154   0.535   1.444  10.060  3.1298 -2.8989 -2.1054
   50CHL1   H2B 6155   0.478   1.612  10.022  0.7257 -0.4692  2.0002
   50CHL1   C20 6156   0.447   1.535   9.044 -0.2751 -0.2835  0.2132
   50CHL1   H20 6157   0.400   1.634   9.029  1.3812  0.5701  0.5112
   50CHL1   C21 6158   0.334   1.440   9.082  0.4174 -0.6550  0.1739
   50CHL1  H21A 6159   0.259   1.426   9.001 -0.9653  1.7856  0.9254
   50CHL1  H21B 6160   0.279   1.486   9.167 -0.7133  0.0142 -0.8859
   50CHL1  H21C 6161   0.376   1.342   9.116 -0.5266 -0.9541  0.5194
   50CHL1   C22 6162   0.505   1.486   8.904  0.5826  0.0296  0.2214
   50CHL1  H22A 6163   0.608   1.526   8.899  1.1149 -1.1403  1.3210
   50CHL1  H22B 6164   0.511   1.376   8.899 -3.0563 -0.3750  1.5324
   50CHL1   C23 6165   0.425   1.533   8.781  0.8582 -0.0148 -0.2134
   50CHL1  H23A 6166   0.320   1.498   8.789  0.5135  1.1215  0.5804
   50CHL1  H23B 6167   0.407   1.643   8.772 -2.7715 -0.6456 -2.7834
   50CHL1   C24 6168   0.498   1.493   8.655 -0.7262  0.9527 -0.1343
   50CHL1  H24A 6169   0.591   1.554   8.649  0.9679 -1.5846 -1.6906
   50CHL1  H24B 6170   0.528   1.387   8.670 -2.0181  0.9472  2.9961
   50CHL1   C25 6171   0.431   1.507   8.518  0.7720  0.4997 -0.6474
   50CHL1   H25 6172   0.501   1.505   8.431  0.2637  1.9164 -1.1178
   50CHL1   C26 6173   0.322   1.399   8.500 -0.0623  0.3171 -0.6183
   50CHL1  H26A 6174   0.243   1.402   8.579  1.9110  0.4533  1.4716
   50CHL1  H26B 6175   0.260   1.420   8.410  1.8182  0.0266 -2.0366
   50CHL1  H26C 6176   0.370   1.298   8.504  0.3854  0.4697 -1.8724
   50CHL1   C27 6177   0.349   1.640   8.504 -0.2291 -0.1809  0.8336
   50CHL1  H27A 6178   0.309   1.654   8.401 -0.5282 -0.8921  0.8518
   50CHL1  H27B 6179   0.259   1.638   8.569 -1.9550  0.1541 -1.4146
   50CHL1  H27C 6180   0.416   1.727   8.524 -1.9031  1.7539 -1.3986
   51CHL1    C3 6181   3.425   2.424  10.109  0.2412  0.5160 -0.1585
   51CHL1    H3 6182   3.322   2.392  10.135  0.1237  1.5969  0.8111
   51CHL1    O3 6183   3.469   2.496  10.225 -0.4997  0.0043  0.7292
   51CHL1   H3' 6184   3.401   2.561  10.242  0.4189  1.7606 -1.7172
   51CHL1    C4 6185   3.512   2.297  10.094  0.7241  0.4134 -0.0387
   51CHL1   H4A 6186   3.617   2.334  10.086  0.3035  1.5862 -0.2231
   51CHL1   H4B 6187   3.515   2.237  10.187  2.1596  0.3368 -0.1019
   51CHL1    C5 6188   3.473   2.224   9.963  0.4284 -0.3791 -0.3308
   51CHL1    C6 6189   3.430   2.099   9.968  0.5957 -0.7687 -0.4820
   51CHL1    H6 6190   3.434   2.050  10.066  0.0752 -0.0181 -0.0737
   51CHL1    C7 6191   3.395   2.026   9.839  0.6173 -0.8297 -0.1337
   51CHL1   H7A 6192   3.452   1.930   9.835  2.7944  0.4099 -0.7688
   51CHL1   H7B 6193   3.287   2.003   9.828  0.2266  1.0238 -0.5376
   51CHL1    C8 6194   3.452   2.085   9.708  0.2937 -0.8991 -0.1881
   51CHL1    H8 6195   3.563   2.081   9.718  0.2960 -0.9079 -0.2162
   51CHL1   C14 6196   3.414   2.012   9.583 -0.3283  0.5065 -0.9676
   51CHL1   H14 6197   3.304   2.014   9.594 -0.3289 -2.7789  1.0233
   51CHL1   C15 6198   3.458   1.862   9.570  0.0883 -0.0220  0.2658
   51CHL1  H15A 6199   3.559   1.846   9.612  0.0981 -0.4270  0.0927
   51CHL1  H15B 6200   3.379   1.809   9.628  0.0439 -2.9007 -2.1564
   51CHL1   C16 6201   3.441   1.836   9.421 -0.3757 -0.5269  0.3277
   51CHL1  H16A 6202   3.539   1.804   9.381  1.3248  1.6693  2.4892
   51CHL1  H16B 6203   3.366   1.757   9.395 -0.7990 -1.3200  3.4881
   51CHL1   C17 6204   3.404   1.968   9.350  0.8623  0.1890 -0.0882
   51CHL1   H17 6205   3.295   1.978   9.367  1.0736  0.1994  1.4367
   51CHL1   C13 6206   3.460   2.073   9.449 -0.4489  0.0054  0.0374
   51CHL1   C18 6207   3.616   2.092   9.436 -0.1108 -0.0783  0.5254
   51CHL1  H18A 6208   3.669   2.132   9.525  0.5499 -2.5078  1.2836
   51CHL1  H18B 6209   3.659   1.993   9.412  1.3379  0.2226  1.7339
   51CHL1  H18C 6210   3.637   2.157   9.347  2.6659  0.2004  1.2710
   51CHL1   C12 6211   3.407   2.214   9.443  0.7220  0.0867  0.5802
   51CHL1  H12A 6212   3.436   2.265   9.348  0.7402 -0.3809  0.3332
   51CHL1  H12B 6213   3.300   2.190   9.451  1.1818 -1.5098  2.4328
   51CHL1   C11 6214   3.454   2.299   9.558  0.5534  0.0010 -0.5729
   51CHL1  H11A 6215   3.558   2.333   9.538  0.1116  1.0401 -1.1862
   51CHL1  H11B 6216   3.394   2.392   9.556 -0.6410 -0.7416 -0.6199
   51CHL1    C9 6217   3.419   2.232   9.697  0.0049  0.2565  0.1888
   51CHL1    H9 6218   3.309   2.238   9.708 -0.1568  3.5723 -1.8922
   51CHL1   C10 6219   3.476   2.307   9.826  0.2436  0.2341 -0.6998
   51CHL1   C19 6220   3.624   2.353   9.792  0.0611  0.4695  0.7227
   51CHL1  H19A 6221   3.625   2.435   9.718 -0.3355 -0.3444 -0.1977
   51CHL1  H19B 6222   3.664   2.377   9.893  0.3747 -1.4712  1.0965
   51CHL1  H19C 6223   3.679   2.267   9.748 -0.3328  0.7033 -0.2384
   51CHL1    C1 6224   3.395   2.441   9.852  0.1155  1.3769 -0.2497
   51CHL1   H1A 6225   3.409   2.506   9.763  2.8196  0.1224 -0.8135
   51CHL1   H1B 6226   3.289   2.406   9.852 -0.3599  2.7308  0.4051
   51CHL1    C2 6227   3.428   2.507   9.988  0.3213 -0.2947 -0.2134
   51CHL1   H2A 6228   3.356   2.592   9.994  0.2158 -0.3663 -0.4416
   51CHL1   H2B 6229   3.532   2.545   9.987  0.4338 -0.5996 -0.4633
   51CHL1   C20 6230   3.446   1.975   9.206 -0.6750  0.3139 -0.1874
   51CHL1   H20 6231   3.555   1.997   9.206 -1.0185  2.3457 -1.8566
   51CHL1   C21 6232   3.379   2.092   9.130 -0.0459 -1.0653 -0.3444
   51CHL1  H21A 6233   3.392   2.194   9.173 -2.6487 -0.6566 -0.3472
   51CHL1  H21B 6234   3.270   2.067   9.127 -0.6243  1.1228  0.4026
   51CHL1  H21C 6235   3.407   2.085   9.023 -1.1709 -0.3036 -0.7153
   51CHL1   C22 6236   3.418   1.848   9.127  0.8419 -0.6795  0.1234
   51CHL1  H22A 6237   3.450   1.756   9.180 -0.2330 -1.2296 -0.1429
   51CHL1  H22B 6238   3.309   1.826   9.117  0.2957  1.8237  0.1233
   51CHL1   C23 6239   3.493   1.846   8.986  0.6132  0.1590  0.0977
   51CHL1  H23A 6240   3.448   1.909   8.907 -0.1806 -0.5154  0.0031
   51CHL1  H23B 6241   3.600   1.874   9.001  1.0276 -1.9432  1.5662
   51CHL1   C24 6242   3.483   1.706   8.927 -0.1733  0.6411  0.3648
   51CHL1  H24A 6243   3.553   1.643   8.987  1.5872  3.4118  1.4240
   51CHL1  H24B 6244   3.379   1.672   8.947 -0.5816  1.7496  0.1814
   51CHL1   C25 6245   3.527   1.711   8.783  0.8429  0.1679 -0.0613
   51CHL1   H25 6246   3.447   1.765   8.727 -0.1062  0.3209  1.4027
   51CHL1   C26 6247   3.661   1.779   8.762 -0.1181 -0.7317  0.0008
   51CHL1  H26A 6248   3.710   1.741   8.670  0.5491 -2.3247  0.9705
   51CHL1  H26B 6249   3.649   1.889   8.754  0.1229 -0.6553  0.6237
   51CHL1  H26C 6250   3.727   1.754   8.848  1.0971 -0.4034 -0.8245
   51CHL1   C27 6251   3.533   1.568   8.725  0.1532  0.2422 -0.1240
   51CHL1  H27A 6252   3.626   1.512   8.750  0.4329 -0.4088 -2.4309
   51CHL1  H27B 6253   3.449   1.514   8.775  0.3551 -0.2254 -0.2898
   51CHL1  H27C 6254   3.514   1.573   8.616 -0.7309 -1.9842 -0.1228
   52CHL1    C3 6255   4.434   3.443  10.034  0.0837 -0.2464  0.6412
   52CHL1    H3 6256   4.447   3.338  10.070 -0.4227 -0.3855  0.4304
   52CHL1    O3 6257   4.374   3.517  10.143 -0.5172  0.0675 -0.2025
   52CHL1   H3' 6258   4.340   3.596  10.102  2.3750  1.1041 -0.8370
   52CHL1    C4 6259   4.573   3.499   9.998 -1.0251 -0.1693 -0.1639
   52CHL1   H4A 6260   4.569   3.609   9.981  1.9579  0.0748  0.3078
   52CHL1   H4B 6261   4.637   3.479  10.087 -3.0064 -1.5515  1.0312
   52CHL1    C5 6262   4.620   3.435   9.868 -0.4287 -0.0275  0.1252
   52CHL1    C6 6263   4.735   3.363   9.859  0.2409 -0.3755 -0.4970
   52CHL1    H6 6264   4.794   3.352   9.951 -3.1200 -0.4712  1.8152
   52CHL1    C7 6265   4.792   3.313   9.725 -0.5502 -0.1758 -0.5577
   52CHL1   H7A 6266   4.897   3.349   9.716 -1.0753  1.5955  0.0282
   52CHL1   H7B 6267   4.773   3.204   9.717 -0.7332 -0.3099  1.2961
   52CHL1    C8 6268   4.722   3.370   9.602  0.3207 -0.0231  0.3268
   52CHL1    H8 6269   4.753   3.475   9.580  1.6432 -0.2124  1.2190
   52CHL1   C14 6270   4.758   3.276   9.487 -0.1052  0.0308  0.6299
   52CHL1   H14 6271   4.721   3.175   9.514 -4.0934  1.1632  0.0316
   52CHL1   C15 6272   4.914   3.268   9.449  0.0890 -0.1139 -0.1217
   52CHL1  H15A 6273   4.964   3.366   9.434  0.7851 -0.7650 -2.3911
   52CHL1  H15B 6274   4.966   3.207   9.525 -0.4247  0.6521  0.8825
   52CHL1   C16 6275   4.914   3.201   9.304  0.0492 -0.1829  0.0059
   52CHL1  H16A 6276   4.957   3.268   9.226 -1.7109 -0.6351 -1.4348
   52CHL1  H16B 6277   4.964   3.102   9.300 -0.9337 -0.7310  0.7905
   52CHL1   C17 6278   4.762   3.185   9.264 -0.1538 -1.0429  0.0560
   52CHL1   H17 6279   4.728   3.088   9.306  1.2056 -0.8717  1.6726
   52CHL1   C13 6280   4.695   3.300   9.347  0.0705 -0.2975 -0.0786
   52CHL1   C18 6281   4.723   3.443   9.280 -0.4745  0.0038  0.2263
   52CHL1  H18A 6282   4.672   3.529   9.328 -0.6509  0.5673 -0.9419
   52CHL1  H18B 6283   4.832   3.458   9.262 -0.8826 -0.4955 -3.3538
   52CHL1  H18C 6284   4.688   3.443   9.175  1.0828  1.4995 -0.3460
   52CHL1   C12 6285   4.546   3.289   9.377  0.6571  0.0652  0.4855
   52CHL1  H12A 6286   4.486   3.321   9.289  0.8854  0.2319  0.3901
   52CHL1  H12B 6287   4.525   3.180   9.384  0.8701 -0.1097 -1.1391
   52CHL1   C11 6288   4.495   3.380   9.490  0.3150 -0.1655  0.6965
   52CHL1  H11A 6289   4.535   3.475   9.447  1.1327 -2.1135 -3.3417
   52CHL1  H11B 6290   4.388   3.364   9.514 -0.0096 -0.7400 -1.0384
   52CHL1    C9 6291   4.572   3.365   9.622  0.2410  0.2394  0.4068
   52CHL1    H9 6292   4.548   3.260   9.650 -0.2263  0.1409 -0.3292
   52CHL1   C10 6293   4.520   3.447   9.745  0.0994  0.1965  0.2222
   52CHL1   C19 6294   4.500   3.596   9.706 -0.5442  0.3374  0.5872
   52CHL1  H19A 6295   4.586   3.635   9.648 -1.0612  1.9455  0.8511
   52CHL1  H19B 6296   4.418   3.612   9.634  0.2553  1.2672 -0.1431
   52CHL1  H19C 6297   4.472   3.652   9.798 -1.7743  0.0141  0.4197
   52CHL1    C1 6298   4.394   3.392   9.793  0.5207  0.4722  0.2240
   52CHL1   H1A 6299   4.310   3.394   9.720  1.7451  1.9593 -1.2058
   52CHL1   H1B 6300   4.406   3.285   9.821 -0.1335  0.0697 -0.9892
   52CHL1    C2 6301   4.341   3.456   9.921  0.8670  0.2659 -0.1978
   52CHL1   H2A 6302   4.242   3.414   9.948  1.0891  0.5013  1.0496
   52CHL1   H2B 6303   4.301   3.560   9.912 -4.3675 -1.6009 -2.4563
   52CHL1   C20 6304   4.741   3.186   9.111 -0.0364  0.2890 -0.3383
   52CHL1   H20 6305   4.760   3.292   9.082 -1.1935  0.8864  0.9680
   52CHL1   C21 6306   4.592   3.158   9.082 -0.2771 -0.5083 -0.3162
   52CHL1  H21A 6307   4.551   3.088   9.159  1.2170 -0.1892  0.8194
   52CHL1  H21B 6308   4.575   3.112   8.982  0.8971 -1.3341 -0.1618
   52CHL1  H21C 6309   4.534   3.252   9.086  0.3822 -0.1019 -0.2330
   52CHL1   C22 6310   4.833   3.087   9.031  0.3395  0.2663  0.4243
   52CHL1  H22A 6311   4.933   3.079   9.079  0.7776  0.6953 -0.3860
   52CHL1  H22B 6312   4.776   2.992   9.031 -1.7150  1.3692  2.7962
   52CHL1   C23 6313   4.861   3.130   8.887 -0.0400 -0.8153  1.2530
   52CHL1  H23A 6314   4.764   3.153   8.837  1.3866  0.7080 -0.9920
   52CHL1  H23B 6315   4.918   3.225   8.893 -1.5944  0.2643 -0.0848
   52CHL1   C24 6316   4.945   3.034   8.807 -0.0905 -0.2469  0.4296
   52CHL1  H24A 6317   5.035   3.000   8.862 -0.5023 -0.7132  0.8263
   52CHL1  H24B 6318   4.880   2.944   8.806  0.3341 -0.6140 -1.9107
   52CHL1   C25 6319   4.992   3.066   8.665  0.6321  0.0684 -0.1034
   52CHL1   H25 6320   4.902   3.090   8.604 -0.0925  0.1526  0.9698
   52CHL1   C26 6321   5.087   3.185   8.657 -0.2239 -0.3508 -0.4361
   52CHL1  H26A 6322   5.108   3.211   8.550 -2.9551  1.9976 -0.5230
   52CHL1  H26B 6323   5.050   3.279   8.702  0.3007 -0.5806  0.4961
   52CHL1  H26C 6324   5.182   3.158   8.707 -1.3327 -2.1121  0.8344
   52CHL1   C27 6325   5.052   2.930   8.612 -0.2789  0.1515  0.5149
   52CHL1  H27A 6326   5.085   2.935   8.506 -2.2428 -1.3655 -0.2259
   52CHL1  H27B 6327   5.134   2.908   8.684  0.6148  2.2161  0.2078
   52CHL1  H27C 6328   4.977   2.848   8.623  2.2034 -2.3655 -0.2603
   53CHL1    C3 6329   5.779   2.526   9.900 -0.2918 -0.7925  0.5448
   53CHL1    H3 6330   5.752   2.629   9.869  1.0850 -0.3975  0.5872
   53CHL1    O3 6331   5.805   2.521  10.039  0.5570 -0.0525 -0.1350
   53CHL1   H3' 6332   5.742   2.586  10.072  1.1359 -0.0113  0.9241
   53CHL1    C4 6333   5.678   2.423   9.866  0.5601  0.3372  0.1345
   53CHL1   H4A 6334   5.700   2.323   9.909  0.5495  0.4392  0.3814
   53CHL1   H4B 6335   5.586   2.457   9.919  0.8995  0.6683  0.5128
   53CHL1    C5 6336   5.656   2.415   9.718 -0.3861  0.5200 -0.5209
   53CHL1    C6 6337   5.535   2.443   9.669  0.3446  0.2146 -0.0885
   53CHL1    H6 6338   5.454   2.476   9.736 -1.4508 -1.6738 -1.1999
   53CHL1    C7 6339   5.502   2.433   9.523  0.2212 -0.5403 -0.0516
   53CHL1   H7A 6340   5.402   2.390   9.504 -0.1472  0.0512  0.5359
   53CHL1   H7B 6341   5.493   2.538   9.487  0.5386 -1.2713 -2.4367
   53CHL1    C8 6342   5.616   2.360   9.441 -0.6316  0.1769  0.0877
   53CHL1    H8 6343   5.616   2.251   9.462 -0.5895  0.0400 -0.5854
   53CHL1   C14 6344   5.600   2.385   9.294  0.2645  0.3043  0.3376
   53CHL1   H14 6345   5.617   2.493   9.277  3.1855 -0.5798 -4.0660
   53CHL1   C15 6346   5.464   2.347   9.233  0.5096 -0.6584 -0.3421
   53CHL1  H15A 6347   5.410   2.268   9.290 -3.9472 -0.7909 -4.1434
   53CHL1  H15B 6348   5.396   2.435   9.229 -2.3122 -2.7205 -2.7919
   53CHL1   C16 6349   5.492   2.308   9.093  0.7284 -0.7112 -0.2906
   53CHL1  H16A 6350   5.489   2.197   9.089 -0.5223 -0.9903  3.8477
   53CHL1  H16B 6351   5.414   2.347   9.024  0.4575 -1.0368 -0.1716
   53CHL1   C17 6352   5.640   2.342   9.070  0.0931  0.2157  0.2936
   53CHL1   H17 6353   5.633   2.449   9.044 -1.7170  0.8611  2.9675
   53CHL1   C13 6354   5.712   2.325   9.203 -0.4185  0.6327 -0.5801
   53CHL1   C18 6355   5.728   2.171   9.239 -0.1484 -0.0529  0.2581
   53CHL1  H18A 6356   5.765   2.160   9.343 -0.1432  3.1771  0.6925
   53CHL1  H18B 6357   5.635   2.112   9.223  0.7435 -0.6215 -4.6188
   53CHL1  H18C 6358   5.802   2.119   9.175 -0.0169 -0.4902  0.7631
   53CHL1   C12 6359   5.843   2.401   9.238 -1.0536  0.0898 -0.0155
   53CHL1  H12A 6360   5.930   2.356   9.187 -0.9975  0.5454 -0.3275
   53CHL1  H12B 6361   5.833   2.505   9.200  1.5052  0.5637  0.4278
   53CHL1   C11 6362   5.874   2.393   9.382  0.9445 -0.1906 -0.6521
   53CHL1  H11A 6363   5.909   2.290   9.405 -1.2096 -0.7211  0.5955
   53CHL1  H11B 6364   5.953   2.461   9.418 -0.6578  1.1478  0.4754
   53CHL1    C9 6365   5.749   2.419   9.479 -0.2048 -0.2793  0.2187
   53CHL1    H9 6366   5.734   2.529   9.475 -1.9384 -0.3053  3.0074
   53CHL1   C10 6367   5.777   2.391   9.630 -0.1471 -0.1829  0.3473
   53CHL1   C19 6368   5.822   2.241   9.650 -0.4828 -0.4494  0.2163
   53CHL1  H19A 6369   5.746   2.168   9.615 -0.4509 -0.3903  0.0233
   53CHL1  H19B 6370   5.899   2.213   9.575 -0.5426 -1.9901  0.6977
   53CHL1  H19C 6371   5.842   2.202   9.752  2.1172 -1.8879 -0.7325
   53CHL1    C1 6372   5.894   2.475   9.680 -0.2460  0.0424 -0.2360
   53CHL1   H1A 6373   5.986   2.422   9.644  0.4362  0.0495  1.4370
   53CHL1   H1B 6374   5.884   2.573   9.629  0.1643  0.1617 -0.0893
   53CHL1    C2 6375   5.912   2.488   9.832 -0.1261  0.1105 -0.4261
   53CHL1   H2A 6376   5.990   2.562   9.860  0.7325 -0.9330  0.0336
   53CHL1   H2B 6377   5.948   2.391   9.874 -1.1339 -0.4562 -0.8458
   53CHL1   C20 6378   5.697   2.280   8.941  0.5209  0.3421  0.6620
   53CHL1   H20 6379   5.722   2.173   8.960  0.8643  0.2068 -0.4970
   53CHL1   C21 6380   5.828   2.358   8.900  0.4531  0.5273 -0.2214
   53CHL1  H21A 6381   5.882   2.307   8.818 -0.0190 -2.3471  1.1492
   53CHL1  H21B 6382   5.895   2.355   8.989  1.4330  0.9400 -0.9230
   53CHL1  H21C 6383   5.816   2.463   8.865  0.9557  0.3636 -0.9092
   53CHL1   C22 6384   5.590   2.269   8.828 -0.2192  0.7425 -0.0130
   53CHL1  H22A 6385   5.496   2.224   8.866  1.6608 -2.5333  1.1945
   53CHL1  H22B 6386   5.564   2.366   8.780  2.0014  1.3992 -0.0268
   53CHL1   C23 6387   5.634   2.168   8.718  0.1625  0.6067  0.1494
   53CHL1  H23A 6388   5.719   2.212   8.662 -0.6418  0.2949 -1.3727
   53CHL1  H23B 6389   5.657   2.071   8.767 -1.7187  0.1907  0.2809
   53CHL1   C24 6390   5.517   2.124   8.621 -0.5587  0.2863 -0.4125
   53CHL1  H24A 6391   5.569   2.040   8.571  0.4563  0.5613  0.1432
   53CHL1  H24B 6392   5.441   2.073   8.684 -0.8578 -0.7831 -1.6156
   53CHL1   C25 6393   5.463   2.229   8.528 -0.6445  0.5839  0.2326
   53CHL1   H25 6394   5.434   2.320   8.586  1.4014  1.1382  0.4741
   53CHL1   C26 6395   5.555   2.261   8.409  0.2203  0.1170  0.0513
   53CHL1  H26A 6396   5.652   2.301   8.447 -0.0883  1.0453 -0.1066
   53CHL1  H26B 6397   5.559   2.184   8.330 -1.3232 -0.8363  0.8585
   53CHL1  H26C 6398   5.497   2.343   8.362 -0.9275  0.2216  1.5892
   53CHL1   C27 6399   5.329   2.181   8.472 -0.4086  0.8329  0.8359
   53CHL1  H27A 6400   5.329   2.091   8.408 -0.2787  0.6310  1.1209
   53CHL1  H27B 6401   5.258   2.158   8.553  0.4013 -2.0918  0.8255
   53CHL1  H27C 6402   5.288   2.264   8.410 -1.7497  0.2440  0.8991
   54CHL1    C3 6403   6.300   4.383  10.188 -0.4528 -0.4901  0.5255
   54CHL1    H3 6404   6.299   4.494  10.182 -2.2796 -0.5028  0.0247
   54CHL1    O3 6405   6.259   4.364  10.321  0.2676 -0.0796  0.4176
   54CHL1   H3' 6406   6.194   4.433  10.336  0.4896  0.3540 -0.5362
   54CHL1    C4 6407   6.195   4.324  10.097 -0.1822 -0.6025  0.0331
   54CHL1   H4A 6408   6.180   4.215  10.118 -1.0070 -0.4612  0.2143
   54CHL1   H4B 6409   6.100   4.375  10.123 -0.3125 -0.3688 -0.8679
   54CHL1    C5 6410   6.235   4.354   9.956  0.0618 -0.2083 -0.8246
   54CHL1    C6 6411   6.152   4.426   9.876 -0.3588  0.0658 -0.3022
   54CHL1    H6 6412   6.062   4.472   9.919  0.7418 -0.3173  2.6436
   54CHL1    C7 6413   6.182   4.438   9.728 -0.6222  0.3248 -0.0380
   54CHL1   H7A 6414   6.100   4.412   9.657  1.4506  1.5461 -3.0769
   54CHL1   H7B 6415   6.205   4.544   9.705 -1.1711  0.6256  0.7334
   54CHL1    C8 6416   6.300   4.349   9.681 -0.1349 -0.2520  0.4536
   54CHL1    H8 6417   6.255   4.248   9.671 -1.3603  0.3067  0.0881
   54CHL1   C14 6418   6.356   4.388   9.542  0.0491 -0.1126 -0.1359
   54CHL1   H14 6419   6.392   4.493   9.554  0.3694 -0.1411 -0.7835
   54CHL1   C15 6420   6.255   4.410   9.432  0.3934 -0.0456  0.1542
   54CHL1  H15A 6421   6.181   4.327   9.433  0.3869 -0.0379  0.4079
   54CHL1  H15B 6422   6.192   4.501   9.442  1.5822  0.9567 -1.0297
   54CHL1   C16 6423   6.337   4.407   9.306  0.5942 -0.1474  0.2971
   54CHL1  H16A 6424   6.295   4.326   9.243 -1.3088  1.4362 -0.5646
   54CHL1  H16B 6425   6.339   4.502   9.250  3.0244  0.3037  1.0588
   54CHL1   C17 6426   6.480   4.370   9.349  0.6920  0.5322  0.4791
   54CHL1   H17 6427   6.538   4.460   9.375 -1.0253  1.9333 -0.3259
   54CHL1   C13 6428   6.464   4.298   9.483  0.1960 -0.5545 -0.2082
   54CHL1   C18 6429   6.405   4.155   9.463 -0.0511 -0.0480 -0.0122
   54CHL1  H18A 6430   6.487   4.093   9.421 -0.6216 -1.1005  0.3803
   54CHL1  H18B 6431   6.373   4.109   9.559  0.1425 -2.1539 -0.8934
   54CHL1  H18C 6432   6.322   4.147   9.389  1.2565 -1.3213 -1.4375
   54CHL1   C12 6433   6.584   4.299   9.580  0.0589 -0.0702  0.4352
   54CHL1  H12A 6434   6.648   4.213   9.552 -1.1122 -0.8043 -0.0563
   54CHL1  H12B 6435   6.647   4.389   9.594  0.6762 -0.5945  1.1447
   54CHL1   C11 6436   6.534   4.258   9.716  0.6401  0.2116 -0.1692
   54CHL1  H11A 6437   6.501   4.152   9.724 -2.3169  1.0495 -0.1026
   54CHL1  H11B 6438   6.623   4.269   9.781  1.0455 -2.3875 -0.1731
   54CHL1    C9 6439   6.413   4.336   9.776  0.2566 -0.2225  0.5119
   54CHL1    H9 6440   6.445   4.442   9.783  1.4006 -0.6601  3.1066
   54CHL1   C10 6441   6.374   4.292   9.919  0.0984  0.3067  0.1913
   54CHL1   C19 6442   6.371   4.135   9.926  0.2183 -0.3268  0.3320
   54CHL1  H19A 6443   6.480   4.118   9.924  0.7903  2.7744 -0.3356
   54CHL1  H19B 6444   6.338   4.101  10.026  0.2552  1.3084  0.9254
   54CHL1  H19C 6445   6.319   4.083   9.843 -0.9901  2.0827 -0.5310
   54CHL1    C1 6446   6.481   4.344  10.024 -0.6580  0.4579 -0.4509
   54CHL1   H1A 6447   6.587   4.316  10.007 -0.5015  1.7298 -1.7583
   54CHL1   H1B 6448   6.481   4.455  10.018 -0.7977  0.4871  0.0415
   54CHL1    C2 6449   6.436   4.324  10.171 -0.5391 -0.3059  0.6927
   54CHL1   H2A 6450   6.512   4.371  10.237 -0.9074 -0.3912  1.1819
   54CHL1   H2B 6451   6.437   4.215  10.194 -0.1414 -0.6171 -0.6776
   54CHL1   C20 6452   6.549   4.298   9.241  0.1992 -0.3821  0.3824
   54CHL1   H20 6453   6.494   4.206   9.212 -0.8356 -0.3540  2.1343
   54CHL1   C21 6454   6.695   4.260   9.281  0.4242 -0.1480 -0.4087
   54CHL1  H21A 6455   6.697   4.176   9.353 -0.4261 -0.6929 -1.0023
   54CHL1  H21B 6456   6.742   4.345   9.335 -2.0893 -0.2434  2.1708
   54CHL1  H21C 6457   6.747   4.232   9.187  1.3304 -0.4220  0.1675
   54CHL1   C22 6458   6.557   4.388   9.115 -0.0409  0.5906 -0.8153
   54CHL1  H22A 6459   6.608   4.340   9.030  0.1006  0.9563 -0.9404
   54CHL1  H22B 6460   6.453   4.411   9.082 -0.7920 -1.8766 -0.3464
   54CHL1   C23 6461   6.637   4.518   9.135  0.0740 -0.7595  1.0391
   54CHL1  H23A 6462   6.579   4.585   9.201  0.9497  0.7248  0.3605
   54CHL1  H23B 6463   6.733   4.526   9.191  1.0731  0.5372 -0.7313
   54CHL1   C24 6464   6.670   4.593   9.003 -0.1095  0.4601  0.3832
   54CHL1  H24A 6465   6.714   4.520   8.932  0.2985  1.5796 -0.5638
   54CHL1  H24B 6466   6.569   4.619   8.964  0.0937 -0.8861 -1.1231
   54CHL1   C25 6467   6.758   4.713   9.019 -0.6016 -0.4474 -0.3822
   54CHL1   H25 6468   6.857   4.686   9.061 -0.4223  3.8028  2.6334
   54CHL1   C26 6469   6.778   4.789   8.886  0.0589  0.0204  0.1577
   54CHL1  H26A 6470   6.675   4.815   8.853 -0.1836  0.0883  0.9676
   54CHL1  H26B 6471   6.846   4.876   8.902 -1.6366  1.1352  1.7251
   54CHL1  H26C 6472   6.819   4.725   8.804 -0.9450  0.5323 -0.7670
   54CHL1   C27 6473   6.707   4.812   9.120 -0.0853 -0.3266 -0.4251
   54CHL1  H27A 6474   6.776   4.899   9.126 -0.3241 -0.1400 -0.3765
   54CHL1  H27B 6475   6.607   4.848   9.090  0.2125  0.0928 -0.9380
   54CHL1  H27C 6476   6.708   4.770   9.223  2.2192 -1.7249 -0.9285
   55CHL1    C3 6477   0.071   2.142   9.849  0.3436 -1.3132  0.5849
   55CHL1    H3 6478   0.098   2.249   9.857 -2.0458 -0.6028 -0.1838
   55CHL1    O3 6479   0.057   2.107   9.989 -0.3224 -0.1596  0.1517
   55CHL1   H3' 6480   0.146   2.097  10.025 -0.0692  1.2355 -0.0508
   55CHL1    C4 6481  -0.050   2.114   9.773  0.3935  0.0790  0.4667
   55CHL1   H4A 6482  -0.085   2.009   9.788  0.3499  0.0156 -0.0836
   55CHL1   H4B 6483  -0.137   2.175   9.807 -1.3986 -1.0242 -1.8458
   55CHL1    C5 6484  -0.037   2.146   9.625  0.6063 -0.2333 -0.3773
   55CHL1    C6 6485  -0.116   2.241   9.562 -0.4074  0.0126 -0.4699
   55CHL1    H6 6486  -0.200   2.281   9.620  0.4425 -3.2445  3.5059
   55CHL1    C7 6487  -0.109   2.264   9.411 -0.4367  0.0241  0.3023
   55CHL1   H7A 6488  -0.216   2.261   9.379 -0.0207 -0.5219 -1.1106
   55CHL1   H7B 6489  -0.064   2.364   9.391 -0.6580  0.3766  1.4444
   55CHL1    C8 6490  -0.020   2.168   9.333 -0.1685 -1.0415 -0.1525
   55CHL1    H8 6491  -0.082   2.082   9.301 -2.2136 -0.4420  1.9410
   55CHL1   C14 6492   0.019   2.239   9.199 -0.0289 -0.0370 -0.3197
   55CHL1   H14 6493   0.095   2.313   9.233  0.3582  0.1175 -1.4932
   55CHL1   C15 6494  -0.094   2.294   9.111 -0.3490 -0.0379 -0.1531
   55CHL1  H15A 6495  -0.184   2.230   9.117 -0.6482  0.5272  3.2402
   55CHL1  H15B 6496  -0.118   2.396   9.149  3.1693  0.2904  1.6479
   55CHL1   C16 6497  -0.024   2.319   8.974  0.1072  0.0851 -0.0391
   55CHL1  H16A 6498  -0.085   2.266   8.898 -0.5165  1.0886 -0.2460
   55CHL1  H16B 6499  -0.009   2.426   8.949 -2.7448  0.7620  0.8613
   55CHL1   C17 6500   0.123   2.253   8.986  0.9268 -0.2831  0.4831
   55CHL1   H17 6501   0.185   2.340   9.016 -1.8076  1.6322  0.9406
   55CHL1   C13 6502   0.105   2.151   9.110  1.0172  0.1292 -0.5964
   55CHL1   C18 6503   0.024   2.030   9.053  0.6111 -0.0900 -0.5918
   55CHL1  H18A 6504  -0.059   2.062   8.986  1.2881  0.8101 -1.0263
   55CHL1  H18B 6505   0.093   1.970   8.991  1.8199  1.5627 -0.9185
   55CHL1  H18C 6506  -0.011   1.976   9.144 -0.4311  0.9062 -0.3734
   55CHL1   C12 6507   0.232   2.101   9.190  0.2506 -0.4151  0.4995
   55CHL1  H12A 6508   0.284   2.030   9.122 -4.1731 -1.5526 -2.1126
   55CHL1  H12B 6509   0.291   2.194   9.208  0.5916 -0.6378  0.5341
   55CHL1   C11 6510   0.208   2.046   9.329 -0.0438 -0.0426  0.0626
   55CHL1  H11A 6511   0.177   1.941   9.314 -1.0829  0.3600 -0.7046
   55CHL1  H11B 6512   0.310   2.033   9.372 -0.3379 -0.7257  0.5627
   55CHL1    C9 6513   0.110   2.129   9.411  0.2498 -0.1509  0.0972
   55CHL1    H9 6514   0.152   2.230   9.429  0.4314 -0.2683  0.3468
   55CHL1   C10 6515   0.075   2.073   9.556 -0.8366  0.0108 -0.2890
   55CHL1   C19 6516   0.042   1.921   9.549  0.1236 -0.4026 -0.7703
   55CHL1  H19A 6517   0.138   1.877   9.515 -0.3731 -0.7203 -1.8209
   55CHL1  H19B 6518   0.005   1.884   9.647  0.3243  1.7671  0.1818
   55CHL1  H19C 6519  -0.040   1.897   9.478 -0.9861 -1.0077  0.6672
   55CHL1    C1 6520   0.211   2.088   9.635  0.3605  0.5118  0.2153
   55CHL1   H1A 6521   0.286   2.016   9.598 -0.0298 -0.6062  1.5120
   55CHL1   H1B 6522   0.263   2.180   9.600 -1.0687  0.3454 -2.6201
   55CHL1    C2 6523   0.198   2.074   9.788 -0.2328 -0.2560 -0.6150
   55CHL1   H2A 6524   0.296   2.088   9.839 -0.5826  0.5329 -0.1369
   55CHL1   H2B 6525   0.173   1.966   9.798 -1.5362  0.1130  0.4311
   55CHL1   C20 6526   0.174   2.207   8.848 -0.0329 -0.2743 -0.8601
   55CHL1   H20 6527   0.114   2.124   8.805 -0.4323 -1.0975  1.2071
   55CHL1   C21 6528   0.313   2.149   8.863  0.3735  0.2393  0.5504
   55CHL1  H21A 6529   0.348   2.094   8.773 -0.7948 -0.2847  0.4032
   55CHL1  H21B 6530   0.324   2.069   8.940  0.0285  0.9415  1.3354
   55CHL1  H21C 6531   0.387   2.228   8.888 -0.1867  1.0067 -0.1639
   55CHL1   C22 6532   0.181   2.323   8.738  0.3756 -0.2557  0.2084
   55CHL1  H22A 6533   0.217   2.288   8.639  1.6946 -0.5788  0.7766
   55CHL1  H22B 6534   0.079   2.356   8.709  0.3386  0.8394  1.4760
   55CHL1   C23 6535   0.270   2.442   8.771  0.1905  0.1777  0.1838
   55CHL1  H23A 6536   0.221   2.506   8.848 -0.7712  0.6521 -0.7872
   55CHL1  H23B 6537   0.371   2.413   8.806  0.7593  1.0402 -0.7123
   55CHL1   C24 6538   0.280   2.550   8.657 -0.8037 -0.1442  0.3272
   55CHL1  H24A 6539   0.338   2.510   8.570 -1.4643 -0.9423  0.2440
   55CHL1  H24B 6540   0.177   2.567   8.619  0.5315 -1.5997 -4.8263
   55CHL1   C25 6541   0.341   2.687   8.700 -0.0011 -0.7127  0.7676
   55CHL1   H25 6542   0.262   2.733   8.763 -0.4323 -0.6325  0.1796
   55CHL1   C26 6543   0.471   2.695   8.786  0.1217  0.6066 -0.4376
   55CHL1  H26A 6544   0.558   2.636   8.749  0.9380  1.0519  0.7139
   55CHL1  H26B 6545   0.506   2.800   8.797  2.2946 -0.3409  3.2614
   55CHL1  H26C 6546   0.445   2.651   8.885 -1.1680 -1.6784 -1.7121
   55CHL1   C27 6547   0.349   2.780   8.572  0.1190  0.6407 -0.0070
   55CHL1  H27A 6548   0.369   2.889   8.582  1.9531  0.4301 -0.8014
   55CHL1  H27B 6549   0.414   2.723   8.501  0.6200  0.1899  0.8017
   55CHL1  H27C 6550   0.250   2.762   8.526  1.1446  0.3802 -2.3044
   56CHL1    C3 6551   4.626   5.174   9.961  0.1416 -0.8087  0.4442
   56CHL1    H3 6552   4.527   5.197   9.916  0.6011  1.0557  0.2638
   56CHL1    O3 6553   4.629   5.171  10.102  0.1523  0.3173 -0.6132
   56CHL1   H3' 6554   4.588   5.255  10.126  0.6106  0.4129 -0.1519
   56CHL1    C4 6555   4.675   5.043   9.891 -0.2140  0.1884 -0.6098
   56CHL1   H4A 6556   4.765   5.020   9.952 -0.6108  0.8218  0.2283
   56CHL1   H4B 6557   4.612   4.955   9.915 -3.0637  2.2035 -0.2311
   56CHL1    C5 6558   4.696   5.056   9.743 -0.6051  0.4098  0.1803
   56CHL1    C6 6559   4.648   4.965   9.656  0.6943 -0.1153 -0.0847
   56CHL1    H6 6560   4.587   4.881   9.693 -0.5895  0.0842 -1.6225
   56CHL1    C7 6561   4.652   4.969   9.508  0.4189  0.5559 -0.0725
   56CHL1   H7A 6562   4.696   4.876   9.467  0.1481  0.4608 -0.1475
   56CHL1   H7B 6563   4.547   4.978   9.472 -0.2285  1.9263  1.9766
   56CHL1    C8 6564   4.736   5.083   9.449 -0.0276  0.3856 -0.2464
   56CHL1    H8 6565   4.837   5.046   9.474 -1.7886 -4.1665  1.1699
   56CHL1   C14 6566   4.720   5.117   9.301  0.8387 -0.3198  0.0357
   56CHL1   H14 6567   4.622   5.167   9.289  0.3412 -1.1777  0.5088
   56CHL1   C15 6568   4.728   5.000   9.207 -0.1239  0.3915  0.1865
   56CHL1  H15A 6569   4.800   4.920   9.234  2.1809  1.8107 -1.4433
   56CHL1  H15B 6570   4.626   4.956   9.203 -0.8917  1.8714  1.9603
   56CHL1   C16 6571   4.770   5.066   9.073  0.2850  0.2392  0.8154
   56CHL1  H16A 6572   4.867   5.038   9.026  1.1562  2.6780  1.0278
   56CHL1  H16B 6573   4.685   5.064   9.002 -1.3590 -0.1683  2.7082
   56CHL1   C17 6574   4.799   5.215   9.099  0.0429 -0.0159  0.4782
   56CHL1   H17 6575   4.703   5.270   9.086  0.9142  1.5918  0.5729
   56CHL1   C13 6576   4.817   5.228   9.251  0.1905  0.9328 -0.4829
   56CHL1   C18 6577   4.963   5.197   9.278  0.2392 -0.3062 -0.3951
   56CHL1  H18A 6578   5.005   5.120   9.209  2.5550  0.8566 -0.3657
   56CHL1  H18B 6579   5.020   5.289   9.255 -0.2130  0.4077  1.1646
   56CHL1  H18C 6580   4.970   5.156   9.382  3.1171 -1.8742 -1.1115
   56CHL1   C12 6581   4.773   5.358   9.324  0.3823  0.2918  0.3884
   56CHL1  H12A 6582   4.821   5.453   9.291  2.5938 -1.5747 -2.2422
   56CHL1  H12B 6583   4.664   5.372   9.305 -0.0630 -1.6964  1.2202
   56CHL1   C11 6584   4.787   5.339   9.474  0.3429  0.8146 -0.3105
   56CHL1  H11A 6585   4.894   5.338   9.505 -0.0150 -0.6891  1.0362
   56CHL1  H11B 6586   4.742   5.429   9.521 -0.4947 -0.0094  0.5156
   56CHL1    C9 6587   4.723   5.212   9.539  0.2149 -0.5822  0.2742
   56CHL1    H9 6588   4.614   5.228   9.532  0.0846 -1.7771 -0.6578
   56CHL1   C10 6589   4.756   5.193   9.691 -0.6280 -0.0287 -0.1880
   56CHL1   C19 6590   4.912   5.198   9.719  0.1209  0.7331 -0.3264
   56CHL1  H19A 6591   4.945   5.162   9.819 -0.0545  0.1272 -0.4828
   56CHL1  H19B 6592   4.952   5.116   9.655 -0.5855 -0.8528  1.1556
   56CHL1  H19C 6593   4.976   5.282   9.687  1.0094 -0.0566 -0.6859
   56CHL1    C1 6594   4.692   5.308   9.770  0.4620 -0.2886 -0.3528
   56CHL1   H1A 6595   4.729   5.409   9.743 -1.7848  0.8569  0.5878
   56CHL1   H1B 6596   4.582   5.303   9.754 -0.2765 -1.8205  3.9773
   56CHL1    C2 6597   4.709   5.299   9.920  0.2934 -0.2929 -0.2955
   56CHL1   H2A 6598   4.659   5.382   9.974 -0.9122 -1.2703  0.1361
   56CHL1   H2B 6599   4.817   5.289   9.944  0.0744 -1.4885  0.2405
   56CHL1   C20 6600   4.909   5.282   9.007 -0.1274  0.0744  0.1810
   56CHL1   H20 6601   5.010   5.239   9.027 -0.0288 -0.5178 -1.4187
   56CHL1   C21 6602   4.925   5.433   9.042  0.4178 -0.0645 -0.0719
   56CHL1  H21A 6603   4.983   5.438   9.137  0.3339  1.2636 -0.0729
   56CHL1  H21B 6604   4.830   5.489   9.051  0.9898  0.8147  0.7415
   56CHL1  H21C 6605   4.986   5.489   8.967  0.5692  0.2760  0.2995
   56CHL1   C22 6606   4.882   5.256   8.864 -0.0427  0.1327 -0.3544
   56CHL1  H22A 6607   4.856   5.149   8.845  0.9785 -0.3466  0.8231
   56CHL1  H22B 6608   4.798   5.324   8.839  0.3760  0.7094 -0.2014
   56CHL1   C23 6609   5.001   5.286   8.769  0.1504  0.2241  0.2058
   56CHL1  H23A 6610   5.047   5.385   8.789 -1.9294  0.8609  2.2556
   56CHL1  H23B 6611   5.084   5.215   8.787 -0.2031 -1.3203 -3.3003
   56CHL1   C24 6612   4.968   5.257   8.619  0.2708  0.7823 -0.0524
   56CHL1  H24A 6613   4.917   5.159   8.612  0.1997  0.8072  0.1180
   56CHL1  H24B 6614   4.888   5.322   8.577 -0.2700 -0.6784 -1.3533
   56CHL1   C25 6615   5.084   5.260   8.517 -0.4975  0.2302  0.2282
   56CHL1   H25 6616   5.153   5.346   8.527  1.3455 -0.5610 -3.6064
   56CHL1   C26 6617   5.179   5.138   8.549  0.0077 -0.4765 -0.3634
   56CHL1  H26A 6618   5.271   5.150   8.488  1.5849  0.0471  1.9670
   56CHL1  H26B 6619   5.213   5.158   8.653  2.0598  0.6766 -1.2004
   56CHL1  H26C 6620   5.128   5.043   8.527  1.0668 -1.0934 -0.2241
   56CHL1   C27 6621   5.024   5.256   8.373  1.2671  0.5758 -1.0125
   56CHL1  H27A 6622   5.092   5.228   8.289 -0.4780 -1.6063 -1.8164
   56CHL1  H27B 6623   4.937   5.187   8.373 -2.9425  5.0334  3.9338
   56CHL1  H27C 6624   4.977   5.353   8.349 -0.5112  0.2930  1.0574
   57CHL1    C3 6625   1.087   2.648  10.307  0.0339  0.4339  0.6196
   57CHL1    H3 6626   1.181   2.691  10.264  0.5914 -0.1060  1.2853
   57CHL1    O3 6627   1.079   2.647  10.450 -0.3436 -0.9139 -0.5265
   57CHL1   H3' 6628   0.993   2.614  10.476  0.6565 -1.9331  1.7327
   57CHL1    C4 6629   0.968   2.732  10.247 -0.2478  0.1341  0.1949
   57CHL1   H4A 6630   0.871   2.695  10.286  0.0803 -1.6344 -0.5645
   57CHL1   H4B 6631   0.969   2.837  10.281 -0.2474 -0.2249  1.3355
   57CHL1    C5 6632   0.966   2.722  10.094  0.4442  0.1237  0.2572
   57CHL1    C6 6633   0.967   2.837  10.024 -0.4633 -0.3098 -0.2221
   57CHL1    H6 6634   0.963   2.937  10.070 -0.3555 -0.8514  0.9985
   57CHL1    C7 6635   0.957   2.842   9.876  0.5505  0.5758  0.3099
   57CHL1   H7A 6636   0.875   2.912   9.851 -1.0611 -1.5303 -0.6112
   57CHL1   H7B 6637   1.047   2.866   9.815 -1.7206  0.1825 -3.5523
   57CHL1    C8 6638   0.905   2.704   9.812 -0.9098  0.0827  0.6858
   57CHL1    H8 6639   0.794   2.702   9.818 -1.1369  0.0970 -2.1441
   57CHL1   C14 6640   0.929   2.707   9.660 -0.1825  0.0704  0.7507
   57CHL1   H14 6641   1.039   2.719   9.654  0.0075 -1.3089  1.0868
   57CHL1   C15 6642   0.859   2.817   9.575 -0.0551  0.1845 -0.7889
   57CHL1  H15A 6643   0.750   2.809   9.598  0.0807 -2.8919 -0.8199
   57CHL1  H15B 6644   0.891   2.923   9.578  0.2564  0.1030  2.0391
   57CHL1   C16 6645   0.884   2.764   9.430  0.3244  0.0290 -0.1252
   57CHL1  H16A 6646   0.784   2.764   9.382  0.3391  0.2923 -0.1596
   57CHL1  H16B 6647   0.942   2.828   9.360 -0.9525 -0.3643 -1.5902
   57CHL1   C17 6648   0.945   2.623   9.446  0.1779  0.2783 -0.0479
   57CHL1   H17 6649   1.055   2.633   9.451  0.0036  1.8472  1.5383
   57CHL1   C13 6650   0.906   2.575   9.589 -0.3155  0.3899  0.5946
   57CHL1   C18 6651   0.756   2.531   9.596 -0.1379  0.3330  0.1051
   57CHL1  H18A 6652   0.704   2.544   9.693 -1.4093  0.7148 -0.6108
   57CHL1  H18B 6653   0.699   2.590   9.521 -1.2403 -0.0032  0.6582
   57CHL1  H18C 6654   0.740   2.429   9.554  1.3426 -0.4532  1.3555
   57CHL1   C12 6655   0.991   2.464   9.655  0.1190 -0.1569  0.5627
   57CHL1  H12A 6656   0.961   2.364   9.615 -1.5779  0.3284  0.5321
   57CHL1  H12B 6657   1.095   2.501   9.643 -0.0573  0.5046  1.0252
   57CHL1   C11 6658   0.967   2.454   9.809  0.6818 -0.5644  0.1341
   57CHL1  H11A 6659   0.869   2.402   9.817 -0.6324  1.7205 -0.2474
   57CHL1  H11B 6660   1.044   2.387   9.852  1.6952 -0.0975 -0.9246
   57CHL1    C9 6661   0.984   2.589   9.882 -0.1470  0.0576 -0.4006
   57CHL1    H9 6662   1.087   2.629   9.871  0.0640 -0.4061 -0.1389
   57CHL1   C10 6663   0.960   2.579  10.034  0.1501  0.0508  0.2154
   57CHL1   C19 6664   0.812   2.529  10.059  0.2681  0.3188 -0.6780
   57CHL1  H19A 6665   0.794   2.513  10.167 -0.8020  0.1570 -0.8653
   57CHL1  H19B 6666   0.735   2.596  10.015 -1.8440 -2.3340 -1.3499
   57CHL1  H19C 6667   0.807   2.425  10.019 -0.0878  0.4397 -0.9533
   57CHL1    C1 6668   1.057   2.490  10.112  0.4177  0.7114 -0.0058
   57CHL1   H1A 6669   1.035   2.381  10.099 -0.1023  0.8625 -0.4208
   57CHL1   H1B 6670   1.155   2.515  10.065  1.3013 -0.5028  1.1059
   57CHL1    C2 6671   1.079   2.498  10.263 -0.1010  0.2189  0.0740
   57CHL1   H2A 6672   1.162   2.434  10.299 -0.7917 -0.7429 -0.0239
   57CHL1   H2B 6673   0.989   2.456  10.312  0.9677 -1.7592  0.4114
   57CHL1   C20 6674   0.909   2.534   9.320 -0.3295  0.0604  0.0411
   57CHL1   H20 6675   0.801   2.509   9.328 -0.6176 -0.2522 -3.3378
   57CHL1   C21 6676   0.983   2.397   9.328 -0.7299  0.5177 -0.3066
   57CHL1  H21A 6677   1.092   2.408   9.346 -0.5120  0.6553 -1.5989
   57CHL1  H21B 6678   0.966   2.329   9.241  1.0636 -0.8338  0.3371
   57CHL1  H21C 6679   0.941   2.344   9.417 -2.5837  0.5638 -1.0972
   57CHL1   C22 6680   0.945   2.601   9.181  0.6831 -0.3208  0.1184
   57CHL1  H22A 6681   0.903   2.703   9.169 -0.7597 -0.9082 -0.0417
   57CHL1  H22B 6682   1.052   2.620   9.202  0.4792  0.7038  0.3068
   57CHL1   C23 6683   0.916   2.514   9.053 -0.5536 -0.2488 -0.2713
   57CHL1  H23A 6684   1.001   2.444   9.039  0.6263  0.9613  0.5786
   57CHL1  H23B 6685   0.824   2.455   9.073  0.6806 -1.2912  3.1155
   57CHL1   C24 6686   0.905   2.593   8.918  0.0746  0.0429  0.4049
   57CHL1  H24A 6687   0.804   2.640   8.914 -0.6597 -1.5419 -0.2418
   57CHL1  H24B 6688   0.982   2.673   8.919  1.0474 -0.8807  0.2823
   57CHL1   C25 6689   0.934   2.513   8.786 -0.5891 -0.5987 -0.3124
   57CHL1   H25 6690   1.030   2.464   8.812 -0.8335 -0.9576 -0.0857
   57CHL1   C26 6691   0.822   2.420   8.756  0.0665 -0.0173  0.1636
   57CHL1  H26A 6692   0.721   2.463   8.771 -1.1848 -2.0380 -1.8585
   57CHL1  H26B 6693   0.827   2.377   8.653  1.6183 -0.9402  0.5874
   57CHL1  H26C 6694   0.842   2.336   8.826  1.7552 -1.4131 -1.8736
   57CHL1   C27 6695   0.966   2.604   8.664  0.0192  0.1622 -0.4106
   57CHL1  H27A 6696   0.888   2.684   8.667  0.0967  0.2703 -1.2601
   57CHL1  H27B 6697   1.064   2.656   8.658 -1.3337  2.8194 -1.4551
   57CHL1  H27C 6698   0.965   2.545   8.571  2.1601  1.3041 -1.2283
   58CHL1    C3 6699   2.868   6.765   9.980  0.0773 -0.2599 -0.5354
   58CHL1    H3 6700   2.769   6.715   9.988  0.2036 -0.4792 -0.3053
   58CHL1    O3 6701   2.867   6.845  10.095  0.0962 -0.5427  0.1795
   58CHL1   H3' 6702   2.952   6.830  10.137  0.3956 -2.9480 -1.1216
   58CHL1    C4 6703   2.989   6.660   9.987  0.0621  0.2215 -0.8808
   58CHL1   H4A 6704   3.079   6.723  10.001 -1.7618  2.6682  0.4887
   58CHL1   H4B 6705   2.971   6.591  10.072  2.0017 -0.8635 -1.2712
   58CHL1    C5 6706   3.014   6.583   9.863 -0.6093  0.0692  0.1821
   58CHL1    C6 6707   3.018   6.451   9.860  0.2981  1.0347 -0.2207
   58CHL1    H6 6708   3.012   6.392   9.953  1.3261 -1.0630 -1.4242
   58CHL1    C7 6709   3.054   6.378   9.731 -0.4720  0.1099  0.5823
   58CHL1   H7A 6710   3.142   6.313   9.754  0.9199  2.1108  1.1847
   58CHL1   H7B 6711   2.969   6.310   9.710  0.3196 -0.1066 -2.3307
   58CHL1    C8 6712   3.116   6.461   9.614  0.7111  0.6832  0.1637
   58CHL1    H8 6713   3.211   6.510   9.645 -0.9426  2.2258  3.2365
   58CHL1   C14 6714   3.104   6.380   9.483  0.6277  0.2266  0.2955
   58CHL1   H14 6715   2.998   6.345   9.481  1.2748 -1.7953 -1.1814
   58CHL1   C15 6716   3.180   6.243   9.473  0.1211  0.1965  0.4792
   58CHL1  H15A 6717   3.273   6.248   9.534  2.6056 -1.6558 -2.8140
   58CHL1  H15B 6718   3.120   6.161   9.519 -1.6570 -0.2818 -2.4340
   58CHL1   C16 6719   3.207   6.230   9.326  0.2955  0.0827  0.3007
   58CHL1  H16A 6720   3.317   6.226   9.311  0.3053  1.0894 -0.0438
   58CHL1  H16B 6721   3.159   6.140   9.282 -0.8126  0.5100  0.6075
   58CHL1   C17 6722   3.138   6.356   9.254 -0.4973  0.2454  0.4187
   58CHL1   H17 6723   3.032   6.332   9.231 -0.1321  0.3162 -1.4940
   58CHL1   C13 6724   3.131   6.466   9.357  0.0914  0.4118  0.0122
   58CHL1   C18 6725   3.277   6.523   9.367 -0.0677  0.7133  0.7335
   58CHL1  H18A 6726   3.352   6.443   9.382  0.8479  1.5083  0.5191
   58CHL1  H18B 6727   3.299   6.585   9.277 -1.8873  1.4117  0.7279
   58CHL1  H18C 6728   3.281   6.600   9.447 -0.4770  1.6494 -0.1131
   58CHL1   C12 6729   3.019   6.571   9.348  0.8816 -0.4900 -0.1656
   58CHL1  H12A 6730   3.047   6.630   9.258 -0.3729 -0.3664 -0.4857
   58CHL1  H12B 6731   2.922   6.520   9.329 -0.5004  2.4449 -1.5430
   58CHL1   C11 6732   3.012   6.656   9.472 -0.0789  0.3913  0.1925
   58CHL1  H11A 6733   3.110   6.703   9.450 -0.6977  1.2142 -0.8753
   58CHL1  H11B 6734   2.933   6.734   9.474 -1.7193 -1.2169  1.5047
   58CHL1    C9 6735   3.010   6.572   9.606 -0.1574  0.1361  0.2277
   58CHL1    H9 6736   2.906   6.534   9.605 -0.6240  1.3733 -1.4119
   58CHL1   C10 6737   3.016   6.669   9.731 -0.4582 -0.1215 -0.2764
   58CHL1   C19 6738   3.142   6.760   9.722 -0.2644  0.1421 -0.1126
   58CHL1  H19A 6739   3.232   6.712   9.679  0.0847 -1.6292  2.4170
   58CHL1  H19B 6740   3.117   6.845   9.654  0.0564 -1.2737 -2.0838
   58CHL1  H19C 6741   3.180   6.801   9.818  1.2466 -0.5277 -0.4056
   58CHL1    C1 6742   2.889   6.753   9.729 -0.3918 -0.1382  0.0811
   58CHL1   H1A 6743   2.884   6.824   9.643  0.6322 -1.8531 -1.4841
   58CHL1   H1B 6744   2.802   6.685   9.722  0.0859 -0.6119 -2.4839
   58CHL1    C2 6745   2.873   6.844   9.853 -0.0190 -0.8208 -0.1783
   58CHL1   H2A 6746   2.776   6.896   9.838  0.3839 -0.3718 -1.2619
   58CHL1   H2B 6747   2.948   6.926   9.857 -2.6536  1.8507 -1.3906
   58CHL1   C20 6748   3.209   6.401   9.119  0.1692  1.0807  0.0331
   58CHL1   H20 6749   3.316   6.426   9.133  1.1499 -0.5235 -3.4087
   58CHL1   C21 6750   3.128   6.512   9.044  1.1053  0.2710  0.5654
   58CHL1  H21A 6751   3.020   6.494   9.058  1.3890 -2.1639 -0.0189
   58CHL1  H21B 6752   3.151   6.505   8.935 -0.1215  0.3367  0.2907
   58CHL1  H21C 6753   3.151   6.614   9.084  1.1213 -0.4665  2.5201
   58CHL1   C22 6754   3.231   6.286   9.022 -0.1624 -0.1881  0.6457
   58CHL1  H22A 6755   3.274   6.323   8.926 -1.7569  0.7379  0.2610
   58CHL1  H22B 6756   3.298   6.213   9.073 -0.7114 -0.4134  1.0470
   58CHL1   C23 6757   3.108   6.215   8.966 -0.2294 -1.0531 -0.1402
   58CHL1  H23A 6758   3.077   6.160   9.057  0.2586 -0.2431  0.5289
   58CHL1  H23B 6759   3.018   6.277   8.943 -1.1974 -2.0763  0.7287
   58CHL1   C24 6760   3.139   6.125   8.846  0.1845 -0.2211  0.3830
   58CHL1  H24A 6761   3.201   6.173   8.767 -1.5623 -1.5224 -1.9049
   58CHL1  H24B 6762   3.193   6.034   8.878 -0.7025 -1.1281 -0.6106
   58CHL1   C25 6763   3.010   6.065   8.765 -0.0186 -1.0336 -0.8612
   58CHL1   H25 6764   2.936   6.022   8.836 -1.3499 -1.5426 -2.4928
   58CHL1   C26 6765   2.952   6.175   8.673  0.0217  0.3129 -0.7819
   58CHL1  H26A 6766   2.870   6.139   8.608  0.2865 -0.0492 -0.9156
   58CHL1  H26B 6767   2.925   6.271   8.724 -0.6112  2.8031 -5.2807
   58CHL1  H26C 6768   3.029   6.205   8.600 -0.1816  1.0707 -0.6978
   58CHL1   C27 6769   3.050   5.943   8.681  0.1890  0.3938 -0.3459
   58CHL1  H27A 6770   2.973   5.865   8.694  1.9324 -1.5492 -1.0608
   58CHL1  H27B 6771   3.072   5.960   8.573  2.4042 -1.5870 -0.2879
   58CHL1  H27C 6772   3.139   5.897   8.730 -0.3259 -0.8849 -0.5774
   59CHL1    C3 6773   2.113   0.862  10.322 -0.6707 -0.4154 -0.3142
   59CHL1    H3 6774   2.203   0.804  10.349  1.0884  2.7146  1.0253
   59CHL1    O3 6775   2.039   0.913  10.433  0.1881 -0.0980 -0.0415
   59CHL1   H3' 6776   2.100   0.964  10.487  1.1741  0.0885 -1.2889
   59CHL1    C4 6777   2.151   0.978  10.227 -0.2743 -0.8071  0.8865
   59CHL1   H4A 6778   2.061   1.043  10.214  0.8815  0.6747 -0.0025
   59CHL1   H4B 6779   2.224   1.040  10.283  1.1436 -1.4763 -0.1589
   59CHL1    C5 6780   2.207   0.921  10.100  0.6400 -0.4567  0.6917
   59CHL1    C6 6781   2.330   0.953  10.059 -0.2579  0.3153  0.4401
   59CHL1    H6 6782   2.383   1.026  10.123  2.1577  0.3052 -1.3707
   59CHL1    C7 6783   2.388   0.899   9.933 -0.3883 -0.3330  0.1204
   59CHL1   H7A 6784   2.448   0.976   9.881 -0.6715 -0.3649 -0.2490
   59CHL1   H7B 6785   2.445   0.804   9.943 -1.2857 -1.1171 -1.8542
   59CHL1    C8 6786   2.272   0.862   9.832  0.6299  0.2242 -0.1671
   59CHL1    H8 6787   2.209   0.952   9.813  1.3177  0.4324 -1.6438
   59CHL1   C14 6788   2.332   0.823   9.701  0.3819 -0.2236 -0.2477
   59CHL1   H14 6789   2.396   0.735   9.723  0.9456  0.1900 -0.2083
   59CHL1   C15 6790   2.427   0.920   9.628  0.0430  0.3720 -0.9757
   59CHL1  H15A 6791   2.376   1.019   9.623  0.1145  0.5683  1.1955
   59CHL1  H15B 6792   2.531   0.939   9.660  0.2013 -0.1438 -1.1862
   59CHL1   C16 6793   2.424   0.867   9.487  0.2199 -0.1404  0.0651
   59CHL1  H16A 6794   2.385   0.943   9.415 -2.2768 -1.0349  0.3518
   59CHL1  H16B 6795   2.518   0.828   9.444  0.2573  1.3966 -1.3671
   59CHL1   C17 6796   2.313   0.752   9.478 -0.1463  0.1694 -0.0228
   59CHL1   H17 6797   2.374   0.660   9.489  2.2075  1.7264  0.7612
   59CHL1   C13 6798   2.229   0.777   9.600 -0.3255 -0.0812  0.2207
   59CHL1   C18 6799   2.113   0.881   9.578  0.4311 -0.2691  0.6047
   59CHL1  H18A 6800   2.083   0.936   9.669  3.2552  1.5423  0.5674
   59CHL1  H18B 6801   2.150   0.963   9.513  0.6853 -0.0301  1.0534
   59CHL1  H18C 6802   2.024   0.837   9.526 -1.4000  4.3219 -0.6442
   59CHL1   C12 6803   2.167   0.653   9.670  0.0911 -0.3795  0.5821
   59CHL1  H12A 6804   2.089   0.625   9.596  1.4742 -2.4363 -0.1738
   59CHL1  H12B 6805   2.246   0.575   9.666 -0.2855 -0.7521  0.2311
   59CHL1   C11 6806   2.097   0.677   9.804 -0.2079  0.2244  0.4423
   59CHL1  H11A 6807   2.003   0.725   9.769  0.2796 -0.4719 -2.0456
   59CHL1  H11B 6808   2.071   0.581   9.852  0.9121  0.9885  2.7688
   59CHL1    C9 6809   2.187   0.759   9.907  0.6880  0.3340 -0.2500
   59CHL1    H9 6810   2.264   0.686   9.940  0.3748 -0.5681 -1.4221
   59CHL1   C10 6811   2.120   0.814  10.029 -0.2374 -0.4770  0.6015
   59CHL1   C19 6812   1.991   0.881   9.979 -0.2006 -0.9700  0.0759
   59CHL1  H19A 6813   1.945   0.937  10.064  0.4871 -2.0359  1.1853
   59CHL1  H19B 6814   2.021   0.946   9.894  0.6475 -2.2382 -0.6170
   59CHL1  H19C 6815   1.911   0.811   9.948 -0.9429 -0.7186  1.3519
   59CHL1    C1 6816   2.086   0.707  10.128  0.1098  0.9478 -0.0039
   59CHL1   H1A 6817   2.012   0.640  10.078 -0.4800  0.3448  1.5952
   59CHL1   H1B 6818   2.172   0.643  10.157 -0.1923  0.5941  0.1303
   59CHL1    C2 6819   2.027   0.760  10.253  0.4170  0.6846 -0.4060
   59CHL1   H2A 6820   2.006   0.674  10.320  2.1772 -0.4856 -1.2883
   59CHL1   H2B 6821   1.927   0.807  10.240 -0.9946 -2.2528 -0.9304
   59CHL1   C20 6822   2.240   0.747   9.350  0.1555 -0.0162  0.0551
   59CHL1   H20 6823   2.183   0.840   9.332  0.7396  0.3030 -0.1636
   59CHL1   C21 6824   2.146   0.622   9.339  0.4911  0.6068 -0.2943
   59CHL1  H21A 6825   2.152   0.555   9.427  0.7981  2.1307  0.8871
   59CHL1  H21B 6826   2.167   0.560   9.250 -2.1644  1.2316 -1.4358
   59CHL1  H21C 6827   2.040   0.655   9.340  1.4392  4.1575  0.5209
   59CHL1   C22 6828   2.331   0.753   9.222 -0.1936 -0.0042 -0.5748
   59CHL1  H22A 6829   2.387   0.849   9.224 -2.2062  1.2170 -0.2432
   59CHL1  H22B 6830   2.406   0.671   9.225 -1.2566 -1.0728 -1.8463
   59CHL1   C23 6831   2.260   0.755   9.080 -0.1918 -0.1970 -0.1973
   59CHL1  H23A 6832   2.188   0.671   9.082 -0.8366  0.3466 -0.1123
   59CHL1  H23B 6833   2.199   0.848   9.072  1.1936  0.5702 -3.2400
   59CHL1   C24 6834   2.351   0.733   8.962 -0.0378  0.3451 -0.2173
   59CHL1  H24A 6835   2.429   0.812   8.959  0.5225 -0.2222 -2.6852
   59CHL1  H24B 6836   2.410   0.641   8.986 -2.0477 -1.2705 -1.1642
   59CHL1   C25 6837   2.278   0.724   8.827 -0.4789  0.2162  0.5270
   59CHL1   H25 6838   2.197   0.648   8.816  0.9771 -1.5859  1.5829
   59CHL1   C26 6839   2.199   0.859   8.809  0.1242  0.2109 -0.3181
   59CHL1  H26A 6840   2.156   0.867   8.707 -0.4378  1.7533  0.0224
   59CHL1  H26B 6841   2.115   0.870   8.880 -0.4883  0.2783 -1.0368
   59CHL1  H26C 6842   2.276   0.937   8.830 -0.8518  0.9786  0.4736
   59CHL1   C27 6843   2.392   0.705   8.720  0.4404 -0.5310 -0.3780
   59CHL1  H27A 6844   2.434   0.603   8.728  1.4772 -0.1048 -0.2322
   59CHL1  H27B 6845   2.336   0.708   8.624  1.2149  0.2924 -0.8191
   59CHL1  H27C 6846   2.455   0.797   8.717  0.0380 -0.1868  1.1091
   60CHL1    C3 6847   2.118   6.081  10.051 -0.0048 -0.5810  0.0934
   60CHL1    H3 6848   2.038   6.013  10.013 -0.1224 -0.2239 -0.3087
   60CHL1    O3 6849   2.141   6.051  10.187  0.0331 -0.1221  1.5681
   60CHL1   H3' 6850   2.216   5.991  10.183  0.9655  1.0551 -0.1947
   60CHL1    C4 6851   2.240   6.046   9.973  0.1890 -0.0727  1.0861
   60CHL1   H4A 6852   2.336   6.089  10.009  0.2614  1.2824 -0.5944
   60CHL1   H4B 6853   2.261   5.937   9.984 -0.9952 -0.9111 -3.1330
   60CHL1    C5 6854   2.219   6.065   9.826 -0.0408 -0.0085 -0.0837
   60CHL1    C6 6855   2.236   5.974   9.731 -0.5185  0.4032 -0.2516
   60CHL1    H6 6856   2.287   5.878   9.749  0.4470  0.7301 -1.1692
   60CHL1    C7 6857   2.224   6.002   9.580 -0.5145  0.3771 -0.4830
   60CHL1   H7A 6858   2.314   5.984   9.516 -1.6184  0.3044 -2.0641
   60CHL1   H7B 6859   2.144   5.933   9.545  0.1787  0.3497 -2.1522
   60CHL1    C8 6860   2.189   6.141   9.537  0.2968  0.0302 -0.0292
   60CHL1    H8 6861   2.286   6.194   9.528  0.3713  0.1265  1.1693
   60CHL1   C14 6862   2.116   6.140   9.397  0.3679 -0.1170 -0.4245
   60CHL1   H14 6863   2.027   6.075   9.414  0.0359 -0.2661 -2.5304
   60CHL1   C15 6864   2.192   6.072   9.284 -0.3751 -0.5008 -0.2667
   60CHL1  H15A 6865   2.298   6.104   9.280 -0.3365 -0.4967  0.7388
   60CHL1  H15B 6866   2.189   5.962   9.297  0.9079 -0.3467  1.6026
   60CHL1   C16 6867   2.123   6.125   9.161  0.4381  0.2954 -0.7027
   60CHL1  H16A 6868   2.200   6.152   9.086 -0.0498 -0.3224 -1.4367
   60CHL1  H16B 6869   2.060   6.047   9.113  0.2809  0.0828 -0.1632
   60CHL1   C17 6870   2.029   6.242   9.202  0.0889 -0.1573  0.3946
   60CHL1   H17 6871   1.936   6.186   9.226 -0.0306  0.2269  0.8559
   60CHL1   C13 6872   2.080   6.283   9.347 -0.6602 -0.7265 -0.5090
   60CHL1   C18 6873   2.200   6.379   9.323  0.9168 -0.4741 -0.4895
   60CHL1  H18A 6874   2.262   6.381   9.415 -2.2621  0.2477  1.7941
   60CHL1  H18B 6875   2.258   6.352   9.231  1.4080  0.0428 -0.3381
   60CHL1  H18C 6876   2.160   6.480   9.303 -0.6430 -1.2046 -1.2579
   60CHL1   C12 6877   1.980   6.339   9.453 -0.3735 -0.0214  0.1590
   60CHL1  H12A 6878   1.936   6.438   9.429  1.8696  1.2115  0.9115
   60CHL1  H12B 6879   1.899   6.263   9.445 -1.1572  1.0384 -3.4506
   60CHL1   C11 6880   2.038   6.340   9.597  0.5131 -0.0860  0.1347
   60CHL1  H11A 6881   2.119   6.416   9.601  0.4987 -0.1124  1.9637
   60CHL1  H11B 6882   1.961   6.371   9.671 -0.0209 -1.1317  0.0216
   60CHL1    C9 6883   2.106   6.208   9.647 -0.8111  0.7421  0.0668
   60CHL1    H9 6884   2.022   6.136   9.656 -1.4310  1.5940  1.4194
   60CHL1   C10 6885   2.166   6.205   9.788 -0.3675 -0.4145 -0.7334
   60CHL1   C19 6886   2.278   6.311   9.789 -0.5730  0.7585  0.3032
   60CHL1  H19A 6887   2.246   6.407   9.744  0.0861  0.7351 -0.2328
   60CHL1  H19B 6888   2.316   6.322   9.892 -0.2237 -1.7911  0.5114
   60CHL1  H19C 6889   2.361   6.269   9.727 -2.2249  0.3805 -1.7742
   60CHL1    C1 6890   2.042   6.245   9.883 -0.3071 -0.3234 -0.6215
   60CHL1   H1A 6891   2.016   6.353   9.872  1.5893  0.0923 -1.6031
   60CHL1   H1B 6892   1.949   6.198   9.846 -1.0257  0.7423 -0.2183
   60CHL1    C2 6893   2.066   6.227  10.035  0.0993  0.3245  0.3050
   60CHL1   H2A 6894   1.970   6.249  10.087 -2.4603 -1.7803 -3.0603
   60CHL1   H2B 6895   2.142   6.293  10.082  1.2544 -0.8334  0.1250
   60CHL1   C20 6896   1.985   6.352   9.100 -0.5250 -0.0151  0.1647
   60CHL1   H20 6897   2.077   6.408   9.074  1.4389 -3.1300 -0.1345
   60CHL1   C21 6898   1.885   6.446   9.168 -0.4975  0.0269 -0.3489
   60CHL1  H21A 6899   1.845   6.515   9.091  0.8722 -0.1755 -1.2781
   60CHL1  H21B 6900   1.936   6.509   9.245  2.3273 -2.4399 -0.0183
   60CHL1  H21C 6901   1.809   6.378   9.212  1.3129 -2.1157 -0.3531
   60CHL1   C22 6902   1.922   6.291   8.972 -0.4045  0.6531  0.6154
   60CHL1  H22A 6903   1.882   6.368   8.903  1.0999  0.9069 -0.0265
   60CHL1  H22B 6904   2.001   6.237   8.915 -1.7179 -0.0492 -0.6031
   60CHL1   C23 6905   1.811   6.190   9.004  0.3878 -0.5036  0.4397
   60CHL1  H23A 6906   1.855   6.097   9.046  0.4535 -2.0636 -2.7465
   60CHL1  H23B 6907   1.740   6.225   9.082  0.6110 -1.5227  1.1176
   60CHL1   C24 6908   1.714   6.154   8.889  0.3580 -0.2262  0.7363
   60CHL1  H24A 6909   1.645   6.077   8.928  0.3186  0.5283  2.2278
   60CHL1  H24B 6910   1.643   6.239   8.879  0.0850 -0.4904  0.4277
   60CHL1   C25 6911   1.766   6.098   8.759  0.1094  0.4652 -0.3261
   60CHL1   H25 6912   1.817   6.174   8.696  2.4865  0.1772  1.0986
   60CHL1   C26 6913   1.862   5.975   8.776 -0.1680  0.0848 -0.3882
   60CHL1  H26A 6914   1.934   6.019   8.849  0.0975  1.4049 -1.4201
   60CHL1  H26B 6915   1.818   5.883   8.820  1.4005  0.0883  1.3092
   60CHL1  H26C 6916   1.904   5.942   8.679 -0.0329  2.2499 -1.1021
   60CHL1   C27 6917   1.639   6.055   8.676 -0.4023  0.6424  0.6600
   60CHL1  H27A 6918   1.583   5.978   8.732  2.0069 -1.5846  0.2193
   60CHL1  H27B 6919   1.573   6.142   8.659 -0.0652  0.8717  0.4962
   60CHL1  H27C 6920   1.670   6.017   8.576  2.9276 -0.0254  1.8042
   61CHL1    C3 6921   5.536   5.228  10.327 -0.0652  0.0862 -0.3696
   61CHL1    H3 6922   5.524   5.337  10.309 -1.0660  0.2440  1.0660
   61CHL1    O3 6923   5.534   5.212  10.468 -0.0890  0.1608  0.4359
   61CHL1   H3' 6924   5.617   5.255  10.492 -0.8474  2.7263 -1.1166
   61CHL1    C4 6925   5.424   5.146  10.275 -0.3169  0.3712 -0.7949
   61CHL1   H4A 6926   5.452   5.043  10.307  2.1868  0.6713 -1.7934
   61CHL1   H4B 6927   5.328   5.182  10.317  0.3681  2.3501 -0.8342
   61CHL1    C5 6928   5.425   5.161  10.126  0.2852 -0.0810 -0.7236
   61CHL1    C6 6929   5.318   5.217  10.062 -0.1556 -0.1827  0.0342
   61CHL1    H6 6930   5.241   5.272  10.119 -1.2796 -0.4471 -1.1946
   61CHL1    C7 6931   5.311   5.210   9.909 -0.0129  0.0124 -0.8542
   61CHL1   H7A 6932   5.211   5.169   9.884  0.8250 -2.1640 -0.8819
   61CHL1   H7B 6933   5.329   5.309   9.862  0.8433  0.2725 -0.0027
   61CHL1    C8 6934   5.416   5.122   9.843 -0.2479  0.3277  0.4274
   61CHL1    H8 6935   5.383   5.016   9.856 -3.9154  1.2316 -0.4955
   61CHL1   C14 6936   5.419   5.146   9.690 -0.7210 -0.0739 -0.5355
   61CHL1   H14 6937   5.450   5.252   9.678 -0.4989 -0.1429 -0.5673
   61CHL1   C15 6938   5.282   5.146   9.610 -0.3366 -1.0557 -0.6267
   61CHL1  H15A 6939   5.216   5.070   9.657  0.2748 -0.4299  1.3343
   61CHL1  H15B 6940   5.235   5.244   9.635  2.9098  0.2073  1.0840
   61CHL1   C16 6941   5.326   5.124   9.468 -0.0262  0.9439  0.1975
   61CHL1  H16A 6942   5.273   5.028   9.448  3.4695 -0.9980 -0.5856
   61CHL1  H16B 6943   5.289   5.202   9.397  1.2994 -0.3593 -2.0298
   61CHL1   C17 6944   5.481   5.107   9.462  0.1175  0.0440  0.7034
   61CHL1   H17 6945   5.526   5.207   9.448  0.4588 -0.2852 -0.6698
   61CHL1   C13 6946   5.514   5.066   9.603  0.8304  0.2106 -0.1691
   61CHL1   C18 6947   5.471   4.912   9.609 -0.0785  0.6638 -0.1920
   61CHL1  H18A 6948   5.492   4.879   9.714  1.6105  1.0396 -0.3773
   61CHL1  H18B 6949   5.365   4.895   9.582  0.2515  0.4867 -1.4040
   61CHL1  H18C 6950   5.533   4.832   9.564  1.5516  0.3300  2.3848
   61CHL1   C12 6951   5.650   5.093   9.661  0.0041  0.0392  0.1926
   61CHL1  H12A 6952   5.724   5.027   9.611  0.2115 -1.6141  2.5567
   61CHL1  H12B 6953   5.680   5.200   9.652 -0.2710  0.3727  2.5778
   61CHL1   C11 6954   5.660   5.071   9.814 -0.9676  0.0135 -0.2501
   61CHL1  H11A 6955   5.659   4.961   9.830  2.9619 -0.0819  0.4071
   61CHL1  H11B 6956   5.759   5.103   9.851 -1.4657  1.3548 -0.0323
   61CHL1    C9 6957   5.554   5.142   9.900  0.5640  0.5370 -0.6717
   61CHL1    H9 6958   5.575   5.251   9.900  2.0935  0.2659 -0.4157
   61CHL1   C10 6959   5.559   5.100  10.058 -0.3749 -0.0832 -0.2393
   61CHL1   C19 6960   5.564   4.948  10.080 -0.3447  0.1903  0.6150
   61CHL1  H19A 6961   5.577   4.918  10.186  1.8264 -1.4194 -0.0370
   61CHL1  H19B 6962   5.471   4.898  10.046  1.1997 -1.3542 -1.5246
   61CHL1  H19C 6963   5.651   4.907  10.025  0.1636  0.7086  1.0136
   61CHL1    C1 6964   5.676   5.179  10.135  0.5035  0.7342  1.1172
   61CHL1   H1A 6965   5.772   5.132  10.105 -0.0106  0.0456  0.4986
   61CHL1   H1B 6966   5.676   5.285  10.104 -0.4661 -0.4102 -3.6724
   61CHL1    C2 6967   5.672   5.172  10.285 -0.9284  0.2393  0.4196
   61CHL1   H2A 6968   5.756   5.229  10.330  0.1661 -1.4395  0.5815
   61CHL1   H2B 6969   5.684   5.068  10.322  3.8297  0.6712  0.6324
   61CHL1   C20 6970   5.525   5.014   9.345 -0.5364 -0.6356 -0.5753
   61CHL1   H20 6971   5.472   4.918   9.359  0.0465 -0.8524  0.2408
   61CHL1   C21 6972   5.677   4.996   9.340  0.1021  0.5306  0.1188
   61CHL1  H21A 6973   5.724   5.094   9.361 -0.2784  0.8584 -0.5544
   61CHL1  H21B 6974   5.717   4.973   9.239  1.3382  1.6503  0.3169
   61CHL1  H21C 6975   5.718   4.923   9.414  0.9871  1.9908  1.1353
   61CHL1   C22 6976   5.494   5.086   9.206 -0.3485 -0.1685  0.2957
   61CHL1  H22A 6977   5.391   5.127   9.216 -1.2768 -2.0852 -0.8361
   61CHL1  H22B 6978   5.575   5.160   9.189  2.4890 -3.1825 -0.2338
   61CHL1   C23 6979   5.502   4.993   9.088 -0.7655  0.6229 -0.5631
   61CHL1  H23A 6980   5.595   4.932   9.095 -0.9230  0.4454  0.0350
   61CHL1  H23B 6981   5.427   4.912   9.102  1.1663 -1.3920 -1.2040
   61CHL1   C24 6982   5.501   5.055   8.948  0.1802  0.1007  0.3153
   61CHL1  H24A 6983   5.414   5.123   8.933  0.1946 -0.3133 -1.9660
   61CHL1  H24B 6984   5.579   5.133   8.944 -1.9628  2.3162 -1.6040
   61CHL1   C25 6985   5.503   4.954   8.837 -0.3173  0.1502  0.6447
   61CHL1   H25 6986   5.586   4.881   8.851  0.8717  0.9753 -1.5196
   61CHL1   C26 6987   5.363   4.882   8.829 -0.1169 -0.3907  0.8191
   61CHL1  H26A 6988   5.290   4.960   8.798  1.6781  0.5001 -1.4630
   61CHL1  H26B 6989   5.361   4.800   8.754 -1.8029 -0.2354  0.6529
   61CHL1  H26C 6990   5.330   4.839   8.926 -2.0854 -1.4429 -0.2650
   61CHL1   C27 6991   5.530   5.025   8.705 -0.7356 -0.2063 -0.4030
   61CHL1  H27A 6992   5.449   5.094   8.672  0.8200  1.8123 -0.1996
   61CHL1  H27B 6993   5.615   5.097   8.706 -1.8261  1.1141  0.7112
   61CHL1  H27C 6994   5.553   4.953   8.623 -0.9646  1.5622 -2.1077
   62CHL1    C3 6995   1.401   2.321   9.882  0.1483 -0.0638 -0.3713
   62CHL1    H3 6996   1.321   2.396   9.863  1.6610  2.4380  2.2890
   62CHL1    O3 6997   1.472   2.344  10.004 -0.4483  0.5722 -0.2058
   62CHL1   H3' 6998   1.425   2.288  10.066  1.2127 -1.2708 -0.5284
   62CHL1    C4 6999   1.327   2.184   9.885 -1.1787 -0.3291 -0.7079
   62CHL1   H4A 7000   1.404   2.106   9.903  0.7875  1.1762 -2.2507
   62CHL1   H4B 7001   1.263   2.179   9.976  2.6493 -2.7290  2.1864
   62CHL1    C5 7002   1.268   2.153   9.747 -0.1293 -0.1282 -0.6135
   62CHL1    C6 7003   1.139   2.122   9.741 -0.0048  0.5195 -0.4921
   62CHL1    H6 7004   1.086   2.114   9.837 -1.5035 -0.2247 -1.3585
   62CHL1    C7 7005   1.075   2.072   9.613  0.5787 -0.4244 -0.3486
   62CHL1   H7A 7006   1.018   1.980   9.639  0.4727 -1.0955 -2.6445
   62CHL1   H7B 7007   1.007   2.156   9.588  2.8346  2.4506  2.3467
   62CHL1    C8 7008   1.174   2.049   9.491 -0.3643 -0.7968 -0.6405
   62CHL1    H8 7009   1.222   1.951   9.511  0.8281 -0.2846 -0.9076
   62CHL1   C14 7010   1.107   2.033   9.357 -0.0569  0.2023 -0.5750
   62CHL1   H14 7011   1.050   2.126   9.338 -1.8620 -0.7364  0.0132
   62CHL1   C15 7012   1.004   1.920   9.354 -0.0686  0.1856 -1.0444
   62CHL1  H15A 7013   1.033   1.827   9.408  1.8324  0.0802 -2.1654
   62CHL1  H15B 7014   0.905   1.952   9.394 -0.1727 -0.0278 -1.1270
   62CHL1   C16 7015   0.986   1.891   9.204  0.7923 -0.5653 -0.3477
   62CHL1  H16A 7016   1.013   1.785   9.188  0.3109 -0.8399  0.5885
   62CHL1  H16B 7017   0.882   1.919   9.176  2.0563  2.1550 -2.8382
   62CHL1   C17 7018   1.092   1.983   9.128  0.1447  0.2259  0.3350
   62CHL1   H17 7019   1.039   2.078   9.105 -2.4475 -1.4337 -0.9705
   62CHL1   C13 7020   1.203   2.010   9.238 -0.3327  0.1297 -0.0613
   62CHL1   C18 7021   1.281   1.873   9.250  0.0753  0.0991 -0.2257
   62CHL1  H18A 7022   1.343   1.849   9.161  0.3237 -0.7467  0.1565
   62CHL1  H18B 7023   1.363   1.879   9.326 -0.9955  0.6944  0.9260
   62CHL1  H18C 7024   1.216   1.784   9.264  0.5172 -0.0858  0.7932
   62CHL1   C12 7025   1.293   2.131   9.231  0.3279  0.2710 -0.0146
   62CHL1  H12A 7026   1.363   2.134   9.145 -0.4449 -0.7747 -0.7013
   62CHL1  H12B 7027   1.230   2.222   9.228  0.2529  0.2685  1.0637
   62CHL1   C11 7028   1.373   2.151   9.360  0.0852  0.0136 -0.5967
   62CHL1  H11A 7029   1.451   2.074   9.376 -1.6496 -1.4338  1.2923
   62CHL1  H11B 7030   1.429   2.246   9.341  0.0748  0.1938  0.2702
   62CHL1    C9 7031   1.281   2.164   9.485  0.0479  0.4366 -0.2345
   62CHL1    H9 7032   1.231   2.263   9.476 -0.6091  0.3036  1.5142
   62CHL1   C10 7033   1.353   2.171   9.622  0.3278 -0.7409 -0.2773
   62CHL1   C19 7034   1.466   2.065   9.628  0.9395  0.0484 -0.4378
   62CHL1  H19A 7035   1.528   2.072   9.720  1.2830  3.7861 -0.8033
   62CHL1  H19B 7036   1.430   1.964   9.601  0.1882 -0.2045  1.3309
   62CHL1  H19C 7037   1.552   2.089   9.563  1.6813 -0.5671  0.2886
   62CHL1    C1 7038   1.417   2.310   9.632  0.6280  0.0169  0.2883
   62CHL1   H1A 7039   1.481   2.328   9.543 -0.8305  0.7256 -0.6678
   62CHL1   H1B 7040   1.335   2.385   9.622  0.2027 -0.5292 -0.4050
   62CHL1    C2 7041   1.494   2.338   9.763  0.4405 -0.7096  0.9909
   62CHL1   H2A 7042   1.534   2.441   9.759  0.5527 -0.7802 -2.1999
   62CHL1   H2B 7043   1.578   2.268   9.782 -1.5931 -3.0757  1.8465
   62CHL1   C20 7044   1.136   1.927   8.990 -0.2375  0.1178  0.3431
   62CHL1   H20 7045   1.205   1.843   9.012  1.2967  1.4902  0.9451
   62CHL1   C21 7046   1.221   2.036   8.921 -0.2272 -1.0622  0.5885
   62CHL1  H21A 7047   1.331   2.033   8.937 -0.0802  1.5004  0.4097
   62CHL1  H21B 7048   1.195   2.142   8.945  2.1039  0.5181 -3.0389
   62CHL1  H21C 7049   1.208   2.026   8.811 -0.4103  0.6383  0.4230
   62CHL1   C22 7050   1.016   1.866   8.907  0.0160 -0.1076  0.2307
   62CHL1  H22A 7051   0.963   1.791   8.970  0.6902 -3.0697 -2.4603
   62CHL1  H22B 7052   0.946   1.948   8.881 -2.2996 -1.9130  0.4038
   62CHL1   C23 7053   1.053   1.790   8.779  0.3441  0.6611 -0.4545
   62CHL1  H23A 7054   1.116   1.860   8.721  2.7836 -1.0421 -0.0319
   62CHL1  H23B 7055   1.127   1.717   8.818  1.7095  2.8287  1.1469
   62CHL1   C24 7056   0.945   1.712   8.696 -0.0251  0.5542  0.4581
   62CHL1  H24A 7057   0.889   1.651   8.769  0.2842  0.0784  0.3024
   62CHL1  H24B 7058   0.874   1.789   8.659  0.7154  0.5352 -1.0967
   62CHL1   C25 7059   0.994   1.637   8.567 -0.1049 -0.0760 -0.4019
   62CHL1   H25 7060   1.074   1.573   8.610 -0.5948  1.0027  2.2731
   62CHL1   C26 7061   0.889   1.541   8.517  0.4233  0.5003  0.3580
   62CHL1  H26A 7062   0.812   1.575   8.445  0.4915 -1.4278 -0.6887
   62CHL1  H26B 7063   0.943   1.453   8.475 -1.9420 -1.5210  1.3327
   62CHL1  H26C 7064   0.842   1.499   8.609  0.1620  0.3302  0.1486
   62CHL1   C27 7065   1.044   1.730   8.455  0.2887  0.5900  0.0446
   62CHL1  H27A 7066   1.075   1.667   8.370 -1.1906  0.4920 -0.4508
   62CHL1  H27B 7067   0.955   1.788   8.423 -0.5098 -0.3124  0.5715
   62CHL1  H27C 7068   1.121   1.802   8.489 -0.0645  0.1788  1.8333
   63CHL1    C3 7069   1.929   3.471  10.166  0.4561 -0.3171 -0.2459
   63CHL1    H3 7070   1.904   3.572  10.204  2.9194  0.2234  0.1209
   63CHL1    O3 7071   1.985   3.402  10.280 -0.1663 -0.0584 -0.6642
   63CHL1   H3' 7072   2.033   3.323  10.253 -2.5453 -2.9809  2.8159
   63CHL1    C4 7073   1.786   3.419  10.110 -0.3391  0.4858 -0.7110
   63CHL1   H4A 7074   1.790   3.308  10.101 -0.4399  0.3891  0.3232
   63CHL1   H4B 7075   1.720   3.434  10.198 -3.4922 -1.7766 -2.4602
   63CHL1    C5 7076   1.738   3.490   9.985  0.2176  0.2970  0.0560
   63CHL1    C6 7077   1.621   3.554   9.978 -0.3261 -0.7385 -0.2514
   63CHL1    H6 7078   1.564   3.542  10.071  1.2236 -1.0678  0.7024
   63CHL1    C7 7079   1.555   3.619   9.862 -0.4162 -0.5294 -0.4559
   63CHL1   H7A 7080   1.451   3.583   9.846 -0.0010 -2.1674  0.3002
   63CHL1   H7B 7081   1.558   3.730   9.871  1.5976 -0.6910  1.8503
   63CHL1    C8 7082   1.637   3.589   9.737 -0.2767  0.6503  0.2238
   63CHL1    H8 7083   1.607   3.485   9.709 -2.5090  1.5002 -0.7602
   63CHL1   C14 7084   1.592   3.670   9.617  0.1018  0.0364 -0.1015
   63CHL1   H14 7085   1.623   3.774   9.640 -0.1742 -0.5556  3.3628
   63CHL1   C15 7086   1.444   3.682   9.584  0.0660 -0.6297 -0.4915
   63CHL1  H15A 7087   1.387   3.588   9.599 -0.5417 -0.5050 -1.8286
   63CHL1  H15B 7088   1.404   3.752   9.661 -0.0042  0.4866 -1.5109
   63CHL1   C16 7089   1.437   3.724   9.443  0.5965  0.0141 -0.2872
   63CHL1  H16A 7090   1.369   3.648   9.397  1.0207  0.1686 -1.2016
   63CHL1  H16B 7091   1.387   3.822   9.436 -0.0794 -0.3840 -1.2435
   63CHL1   C17 7092   1.581   3.725   9.392 -0.7109 -0.2821  0.5154
   63CHL1   H17 7093   1.610   3.830   9.417 -2.2932  0.4634 -0.6724
   63CHL1   C13 7094   1.662   3.625   9.490 -0.1815  0.2263  0.0150
   63CHL1   C18 7095   1.642   3.479   9.452  0.1108  0.5917 -0.0749
   63CHL1  H18A 7096   1.699   3.438   9.366 -1.5970 -1.4927 -0.3016
   63CHL1  H18B 7097   1.676   3.417   9.538  0.0523 -0.2007 -0.6162
   63CHL1  H18C 7098   1.537   3.455   9.426  0.3970 -0.8559  0.0085
   63CHL1   C12 7099   1.815   3.665   9.510  0.1639  0.4088  0.2616
   63CHL1  H12A 7100   1.881   3.647   9.422  0.9387  1.5105  0.5956
   63CHL1  H12B 7101   1.826   3.772   9.537 -0.8159  0.7612 -0.6740
   63CHL1   C11 7102   1.870   3.583   9.627  0.0287 -0.2056 -0.6482
   63CHL1  H11A 7103   1.869   3.474   9.604 -0.3048 -0.3668  0.0882
   63CHL1  H11B 7104   1.976   3.616   9.627  0.5568 -1.7484 -1.2383
   63CHL1    C9 7105   1.791   3.602   9.757 -0.2543  0.0359 -0.3292
   63CHL1    H9 7106   1.808   3.708   9.784  0.3399  0.2355 -1.4182
   63CHL1   C10 7107   1.836   3.499   9.872 -0.0591  0.3122 -0.3018
   63CHL1   C19 7108   1.849   3.355   9.814 -0.4138 -0.1560 -0.5743
   63CHL1  H19A 7109   1.942   3.346   9.753 -0.5292  3.0480 -1.4095
   63CHL1  H19B 7110   1.839   3.266   9.880 -1.4776  0.7965  0.6112
   63CHL1  H19C 7111   1.760   3.348   9.749 -0.6105  0.6675 -0.4090
   63CHL1    C1 7112   1.978   3.549   9.920  0.0941 -0.7585  0.2344
   63CHL1   H1A 7113   2.058   3.532   9.844  0.1450 -1.0853  0.3604
   63CHL1   H1B 7114   1.973   3.657   9.946  1.2832 -0.7601  0.5330
   63CHL1    C2 7115   2.038   3.483  10.053  0.0570 -0.2266 -0.0634
   63CHL1   H2A 7116   2.125   3.540  10.092 -0.6631 -0.8032  2.6330
   63CHL1   H2B 7117   2.075   3.383  10.021  2.3102  0.7991 -0.8373
   63CHL1   C20 7118   1.609   3.710   9.242  0.2443 -0.2203 -0.5545
   63CHL1   H20 7119   1.711   3.667   9.238 -0.0221 -1.1306  1.4686
   63CHL1   C21 7120   1.588   3.847   9.173 -0.0462 -0.2336 -0.3296
   63CHL1  H21A 7121   1.640   3.931   9.224 -1.2034 -0.5755  1.5153
   63CHL1  H21B 7122   1.481   3.875   9.180 -0.1517 -0.8613  0.6847
   63CHL1  H21C 7123   1.623   3.844   9.068  3.1470  0.1900  0.6210
   63CHL1   C22 7124   1.515   3.612   9.168 -0.2578  0.1262  0.7947
   63CHL1  H22A 7125   1.526   3.513   9.219  1.7320 -0.0138  0.1845
   63CHL1  H22B 7126   1.411   3.645   9.188  0.6074  1.8165  2.7880
   63CHL1   C23 7127   1.536   3.591   9.015 -0.0417 -0.4380 -0.5193
   63CHL1  H23A 7128   1.490   3.676   8.959 -1.0115 -0.3543  0.3677
   63CHL1  H23B 7129   1.645   3.585   8.996  0.2089 -0.6370  0.8839
   63CHL1   C24 7130   1.490   3.451   8.976  0.5686 -0.0272 -0.8674
   63CHL1  H24A 7131   1.543   3.361   9.013 -0.9727 -1.2549 -1.4949
   63CHL1  H24B 7132   1.393   3.444   9.030  1.5661 -0.5225  0.9156
   63CHL1   C25 7133   1.485   3.425   8.829 -0.5579 -1.1466 -0.2958
   63CHL1   H25 7134   1.463   3.524   8.785  2.2401 -2.0747 -4.3656
   63CHL1   C26 7135   1.626   3.389   8.776  0.7150  0.3376 -0.2579
   63CHL1  H26A 7136   1.688   3.481   8.771 -1.0210  1.5444 -0.3765
   63CHL1  H26B 7137   1.674   3.301   8.824 -2.3926 -2.1150 -1.3385
   63CHL1  H26C 7138   1.604   3.349   8.675 -2.4351  2.9363 -0.7720
   63CHL1   C27 7139   1.383   3.320   8.804  0.2660 -0.6413 -0.0152
   63CHL1  H27A 7140   1.280   3.355   8.825  0.3725 -1.4299  2.0603
   63CHL1  H27B 7141   1.394   3.289   8.698  0.5710 -0.1267 -0.1397
   63CHL1  H27C 7142   1.408   3.239   8.875  0.5799 -0.0129  0.6111
   64CHL1    C3 7143   1.629   3.044  10.201 -0.0418  0.1979  1.1427
   64CHL1    H3 7144   1.734   3.046  10.165 -0.1853 -0.2200  0.7023
   64CHL1    O3 7145   1.638   3.076  10.342  0.4558 -0.3268  0.5075
   64CHL1   H3' 7146   1.545   3.082  10.365  0.7419 -1.9340  2.3015
   64CHL1    C4 7147   1.536   3.148  10.131 -0.7119  0.5074  0.4540
   64CHL1   H4A 7148   1.444   3.141  10.192 -0.9562  1.8320  0.2630
   64CHL1   H4B 7149   1.568   3.254  10.144  0.5977 -0.1533  3.6679
   64CHL1    C5 7150   1.518   3.102   9.984  0.0508 -0.1186 -1.0929
   64CHL1    C6 7151   1.558   3.182   9.883 -0.0063  0.2203 -0.8193
   64CHL1    H6 7152   1.589   3.285   9.906 -0.9093  0.3820 -0.2943
   64CHL1    C7 7153   1.543   3.154   9.736 -0.4180 -0.0748  0.6398
   64CHL1   H7A 7154   1.473   3.223   9.684 -0.9586 -1.0240  0.0729
   64CHL1   H7B 7155   1.640   3.141   9.684  1.1223  0.9744  3.0768
   64CHL1    C8 7156   1.462   3.024   9.710 -0.2701 -0.0320  0.4211
   64CHL1    H8 7157   1.356   3.057   9.713 -1.2128 -2.7903  1.6098
   64CHL1   C14 7158   1.507   2.975   9.564 -0.3182  0.8281 -0.5703
   64CHL1   H14 7159   1.616   2.953   9.569 -0.2795  1.0632 -0.3666
   64CHL1   C15 7160   1.474   3.060   9.441  0.3845 -0.7913 -0.3487
   64CHL1  H15A 7161   1.367   3.087   9.453  0.7971  1.5309 -1.3692
   64CHL1  H15B 7162   1.530   3.156   9.453  0.7099 -1.2823  3.7183
   64CHL1   C16 7163   1.496   2.971   9.316 -0.3693  0.6060  0.2807
   64CHL1  H16A 7164   1.413   2.971   9.242 -0.4877  0.9994  0.4068
   64CHL1  H16B 7165   1.587   3.000   9.259 -1.6814 -0.3603 -2.4828
   64CHL1   C17 7166   1.505   2.822   9.375 -1.1131 -0.8914  0.1237
   64CHL1   H17 7167   1.613   2.797   9.382 -0.8795  0.2931  1.0294
   64CHL1   C13 7168   1.451   2.835   9.517  0.6473  0.0226 -0.4024
   64CHL1   C18 7169   1.299   2.836   9.506  0.3180  0.2587 -0.0390
   64CHL1  H18A 7170   1.270   2.917   9.435  1.8126  0.4340 -0.4870
   64CHL1  H18B 7171   1.256   2.734   9.494  0.2195  0.4599 -1.4980
   64CHL1  H18C 7172   1.258   2.883   9.598  1.3197  1.4895 -0.1871
   64CHL1   C12 7173   1.496   2.733   9.624 -0.2495 -0.1417  0.1406
   64CHL1  H12A 7174   1.476   2.626   9.600 -0.3281 -0.2474  0.6685
   64CHL1  H12B 7175   1.607   2.732   9.628 -0.2516 -2.2139  1.7531
   64CHL1   C11 7176   1.446   2.767   9.764 -0.6514 -0.9369  0.1471
   64CHL1  H11A 7177   1.336   2.757   9.768 -0.7323  0.1834  0.9537
   64CHL1  H11B 7178   1.473   2.694   9.843 -2.2138  0.3306  1.9402
   64CHL1    C9 7179   1.499   2.912   9.811  0.5891  0.4551 -0.1696
   64CHL1    H9 7180   1.609   2.900   9.801  0.3448 -1.1257 -1.3534
   64CHL1   C10 7181   1.475   2.951   9.960 -0.0043 -0.1516 -0.0685
   64CHL1   C19 7182   1.324   2.922   9.990  0.1418 -0.0180  0.3464
   64CHL1  H19A 7183   1.265   2.977   9.913  2.1622  0.2738 -1.0619
   64CHL1  H19B 7184   1.307   2.814   9.974  0.1009  0.0873 -0.3479
   64CHL1  H19C 7185   1.296   2.955  10.093 -1.1726 -0.0928  0.0302
   64CHL1    C1 7186   1.558   2.856  10.054  0.0747 -0.0897  0.6094
   64CHL1   H1A 7187   1.506   2.758  10.055 -1.1328  0.3843 -2.6886
   64CHL1   H1B 7188   1.658   2.849  10.005 -0.9616  2.3733 -2.1783
   64CHL1    C2 7189   1.574   2.899  10.201  0.3379 -0.2237  0.4762
   64CHL1   H2A 7190   1.636   2.824  10.255 -2.8049 -0.7219  3.7994
   64CHL1   H2B 7191   1.480   2.897  10.260  1.2384  3.0533  2.2848
   64CHL1   C20 7192   1.443   2.716   9.282  0.0250 -0.1368 -0.6684
   64CHL1   H20 7193   1.332   2.714   9.287  0.0232  1.0633  1.2218
   64CHL1   C21 7194   1.482   2.573   9.327  0.1676  0.4048 -0.6741
   64CHL1  H21A 7195   1.454   2.499   9.249  1.7765 -0.0998 -0.8229
   64CHL1  H21B 7196   1.433   2.536   9.420 -1.4076  1.9822 -0.8357
   64CHL1  H21C 7197   1.593   2.561   9.327  0.0248 -1.2633 -1.8309
   64CHL1   C22 7198   1.467   2.734   9.134 -0.7139  0.0882  0.5452
   64CHL1  H22A 7199   1.407   2.818   9.093 -1.8114 -1.2121 -0.6394
   64CHL1  H22B 7200   1.574   2.756   9.118 -0.9359 -0.6902 -2.5961
   64CHL1   C23 7201   1.432   2.623   9.028 -0.4134  0.5780 -0.0341
   64CHL1  H23A 7202   1.506   2.542   9.043  1.8135  2.2042 -1.6234
   64CHL1  H23B 7203   1.328   2.592   9.051  0.1327 -0.2371  1.5493
   64CHL1   C24 7204   1.441   2.668   8.887 -0.2183 -0.2539 -0.9292
   64CHL1  H24A 7205   1.358   2.742   8.882  0.0048 -0.0793 -4.2322
   64CHL1  H24B 7206   1.537   2.721   8.870 -0.0238  0.2645  1.4901
   64CHL1   C25 7207   1.433   2.564   8.772  0.6930 -0.0322 -0.2974
   64CHL1   H25 7208   1.412   2.621   8.679 -0.1816  1.9989  1.0793
   64CHL1   C26 7209   1.567   2.490   8.757 -0.3250  0.1799 -0.0024
   64CHL1  H26A 7210   1.568   2.418   8.673 -0.9303 -1.9870  1.7674
   64CHL1  H26B 7211   1.651   2.561   8.741  1.1224 -1.7986 -1.6305
   64CHL1  H26C 7212   1.588   2.425   8.844 -0.7027  0.4502  0.2951
   64CHL1   C27 7213   1.314   2.466   8.792  0.3803  0.8366  0.0376
   64CHL1  H27A 7214   1.313   2.411   8.888 -2.2012 -0.9602 -0.9300
   64CHL1  H27B 7215   1.222   2.528   8.792 -0.3553 -0.2387 -0.3106
   64CHL1  H27C 7216   1.309   2.392   8.710 -2.8840 -2.1017  2.6227
   65CHL1    C3 7217   1.917   6.628  10.140 -0.0512 -0.2457  0.1071
   65CHL1    H3 7218   1.998   6.704  10.138 -0.4665  0.2058  0.2863
   65CHL1    O3 7219   1.932   6.544  10.249 -0.0240  0.5565  0.0269
   65CHL1   H3' 7220   2.025   6.547  10.269 -0.0045  0.0586  0.0404
   65CHL1    C4 7221   1.775   6.690  10.138 -0.2631 -0.1101  0.0466
   65CHL1   H4A 7222   1.704   6.604  10.145 -0.4861  0.1325  0.8111
   65CHL1   H4B 7223   1.755   6.736  10.237 -0.4428  1.7044 -0.7890
   65CHL1    C5 7224   1.740   6.769  10.016  0.2412  0.5202 -0.0682
   65CHL1    C6 7225   1.699   6.896  10.017  0.5831 -0.0044 -0.4352
   65CHL1    H6 7226   1.668   6.941  10.112 -1.0281 -3.4579  0.8707
   65CHL1    C7 7227   1.663   6.971   9.894 -0.4205 -0.1241  0.0137
   65CHL1   H7A 7228   1.576   7.035   9.923 -0.2023 -0.1565  0.7774
   65CHL1   H7B 7229   1.745   7.039   9.861  0.1572 -0.1326  1.3680
   65CHL1    C8 7230   1.655   6.886   9.769 -0.2127 -1.0782  0.5703
   65CHL1    H8 7231   1.561   6.827   9.772 -0.6490 -0.3718  1.3246
   65CHL1   C14 7232   1.653   6.977   9.646 -0.8005  0.3055 -1.1830
   65CHL1   H14 7233   1.751   7.027   9.632 -0.8874  0.5077 -1.0737
   65CHL1   C15 7234   1.545   7.086   9.647 -0.4508 -0.1002 -0.4012
   65CHL1  H15A 7235   1.452   7.039   9.687 -1.6758  0.4997 -2.3985
   65CHL1  H15B 7236   1.577   7.164   9.719 -1.3105 -1.0392  1.0567
   65CHL1   C16 7237   1.543   7.127   9.493 -0.3762 -0.4380  0.1159
   65CHL1  H16A 7238   1.440   7.152   9.461 -0.8269 -3.3924 -1.1111
   65CHL1  H16B 7239   1.615   7.210   9.475  1.6756 -1.6793  2.0778
   65CHL1   C17 7240   1.607   7.012   9.414  1.0857  0.0018  0.2314
   65CHL1   H17 7241   1.710   7.043   9.386  1.1132 -1.6574 -1.7428
   65CHL1   C13 7242   1.627   6.900   9.519 -0.3905 -0.0854 -0.1434
   65CHL1   C18 7243   1.499   6.811   9.522  0.5531 -0.1611 -0.6682
   65CHL1  H18A 7244   1.502   6.725   9.592 -1.1434  2.2380  2.5556
   65CHL1  H18B 7245   1.421   6.882   9.555  2.8972  2.1013  0.3949
   65CHL1  H18C 7246   1.474   6.763   9.425 -0.4787 -1.3601  0.1623
   65CHL1   C12 7247   1.744   6.804   9.498  0.6215  0.5532 -0.4789
   65CHL1  H12A 7248   1.744   6.738   9.409  2.9214 -0.4267  0.1550
   65CHL1  H12B 7249   1.829   6.871   9.475  2.2189 -0.6579  1.5358
   65CHL1   C11 7250   1.769   6.717   9.621  0.2942 -0.6726  0.0453
   65CHL1  H11A 7251   1.699   6.631   9.630 -0.5737 -0.0859 -0.9355
   65CHL1  H11B 7252   1.867   6.672   9.593 -0.6197 -3.5443  1.1445
   65CHL1    C9 7253   1.774   6.791   9.758 -0.1477  0.6910 -0.6405
   65CHL1    H9 7254   1.870   6.847   9.762 -1.1540  2.4663  2.4620
   65CHL1   C10 7255   1.770   6.698   9.883  0.3965  0.8594 -0.5593
   65CHL1   C19 7256   1.665   6.586   9.873  0.0066  0.4083 -0.0242
   65CHL1  H19A 7257   1.693   6.507   9.800 -0.7274  0.1177  0.0053
   65CHL1  H19B 7258   1.649   6.531   9.968  1.4984 -1.4722 -0.7811
   65CHL1  H19C 7259   1.563   6.624   9.853 -0.5428  0.5469  2.6747
   65CHL1    C1 7260   1.910   6.630   9.891 -0.2968  0.3264  0.5968
   65CHL1   H1A 7261   1.918   6.579   9.793 -1.2721 -0.4094  0.8849
   65CHL1   H1B 7262   1.986   6.711   9.879 -0.6620  0.8074  1.4608
   65CHL1    C2 7263   1.939   6.546  10.016 -0.5330 -0.3497  0.5171
   65CHL1   H2A 7264   2.046   6.514  10.017 -0.9128 -1.7758 -0.6757
   65CHL1   H2B 7265   1.875   6.457  10.001 -2.1027  1.0118 -1.4492
   65CHL1   C20 7266   1.535   6.996   9.277 -0.2150 -0.3201  0.0914
   65CHL1   H20 7267   1.425   6.980   9.288 -0.9630  3.4548 -0.4438
   65CHL1   C21 7268   1.610   6.886   9.191  0.2618  0.3103 -0.7114
   65CHL1  H21A 7269   1.569   6.885   9.088 -0.6078  2.9930 -0.4862
   65CHL1  H21B 7270   1.624   6.785   9.234  1.5007  1.0992  0.8426
   65CHL1  H21C 7271   1.718   6.912   9.189  0.9069 -2.1926 -1.0375
   65CHL1   C22 7272   1.539   7.133   9.196  0.4062  0.0617 -0.2663
   65CHL1  H22A 7273   1.499   7.106   9.095 -0.8096  0.9342 -0.0350
   65CHL1  H22B 7274   1.459   7.190   9.247 -1.9528 -2.4383 -0.9139
   65CHL1   C23 7275   1.665   7.213   9.179 -0.1126  0.5115 -0.6196
   65CHL1  H23A 7276   1.710   7.247   9.275  2.9989 -1.4806 -1.2020
   65CHL1  H23B 7277   1.732   7.132   9.142  0.6845 -0.2866  2.2731
   65CHL1   C24 7278   1.636   7.328   9.076 -0.6271  0.0307 -0.1106
   65CHL1  H24A 7279   1.591   7.285   8.984 -0.9976 -0.9226  0.4996
   65CHL1  H24B 7280   1.558   7.398   9.113 -0.6939  0.1406 -0.4556
   65CHL1   C25 7281   1.763   7.402   9.023 -0.2475  0.8142 -0.2956
   65CHL1   H25 7282   1.813   7.432   9.117 -1.3792  0.6407  0.3790
   65CHL1   C26 7283   1.860   7.291   8.956  0.0159  0.1167  0.4916
   65CHL1  H26A 7284   1.818   7.252   8.861 -0.9078  0.4140  0.7685
   65CHL1  H26B 7285   1.958   7.337   8.930  0.7366 -1.6268 -0.0142
   65CHL1  H26C 7286   1.887   7.204   9.020  0.9159 -0.7592 -1.0222
   65CHL1   C27 7287   1.729   7.514   8.922  0.2015 -0.6845  0.8664
   65CHL1  H27A 7288   1.672   7.589   8.982 -0.3319  1.0160 -1.6257
   65CHL1  H27B 7289   1.813   7.571   8.878 -0.7880 -0.5735 -0.9835
   65CHL1  H27C 7290   1.666   7.485   8.835  2.0444 -2.1436 -0.0485
   66CHL1    C3 7291   1.253   5.812  10.514 -0.3255 -0.0766  0.0757
   66CHL1    H3 7292   1.149   5.852  10.507 -0.2144  0.8638  2.5952
   66CHL1    O3 7293   1.289   5.814  10.647  0.6816  0.2650  0.5962
   66CHL1   H3' 7294   1.356   5.744  10.651  1.3352  0.9132  3.2535
   66CHL1    C4 7295   1.247   5.661  10.469  0.6118  0.3868  0.6504
   66CHL1   H4A 7296   1.343   5.606  10.482  1.6808  1.3390 -2.4396
   66CHL1   H4B 7297   1.167   5.616  10.532 -0.4792  1.3900  0.0069
   66CHL1    C5 7298   1.212   5.650  10.322 -0.0894 -0.0912  0.5261
   66CHL1    C6 7299   1.110   5.570  10.281 -0.2732  0.2991  0.0588
   66CHL1    H6 7300   1.054   5.511  10.355 -0.4084  1.0828  0.5954
   66CHL1    C7 7301   1.073   5.545  10.138  0.8568 -0.3507  0.0095
   66CHL1   H7A 7302   1.060   5.440  10.103  1.1912 -0.4263  0.1067
   66CHL1   H7B 7303   0.973   5.591  10.127  1.0080 -0.1969 -0.8304
   66CHL1    C8 7304   1.178   5.603  10.036 -0.4257  0.9779 -0.2168
   66CHL1    H8 7305   1.264   5.533  10.043 -1.7365 -0.6743 -0.1444
   66CHL1   C14 7306   1.133   5.614   9.896 -0.3994 -0.5116  0.3386
   66CHL1   H14 7307   1.041   5.676   9.895  0.2453  0.5931 -3.3632
   66CHL1   C15 7308   1.089   5.479   9.833 -0.0013 -0.5125  0.7064
   66CHL1  H15A 7309   1.155   5.390   9.847  3.2587  1.4834 -0.8701
   66CHL1  H15B 7310   0.983   5.453   9.855 -0.3410 -0.9538 -1.2618
   66CHL1   C16 7311   1.091   5.515   9.683  0.1146 -0.5950 -0.7261
   66CHL1  H16A 7312   1.136   5.430   9.626  0.7011  0.6087 -2.1411
   66CHL1  H16B 7313   0.991   5.551   9.653  1.9200  4.4911 -1.7164
   66CHL1   C17 7314   1.178   5.648   9.665  1.2508  0.0955  0.1847
   66CHL1   H17 7315   1.093   5.719   9.652 -0.1262 -1.8580 -2.6059
   66CHL1   C13 7316   1.236   5.676   9.801 -0.5336 -0.6139  0.1574
   66CHL1   C18 7317   1.369   5.608   9.809 -0.1347  0.4505  0.4583
   66CHL1  H18A 7318   1.412   5.601   9.911  1.4758  2.1118 -0.0498
   66CHL1  H18B 7319   1.364   5.505   9.769  1.5307  0.6216 -0.2548
   66CHL1  H18C 7320   1.450   5.666   9.760  0.5365 -0.0017  1.0163
   66CHL1   C12 7321   1.257   5.821   9.840 -0.2811 -0.1454  0.8057
   66CHL1  H12A 7322   1.340   5.861   9.778 -1.2731 -0.0483 -0.5140
   66CHL1  H12B 7323   1.178   5.898   9.829  1.0286  1.3190  1.2717
   66CHL1   C11 7324   1.320   5.826   9.980 -0.3925  0.0579  0.5835
   66CHL1  H11A 7325   1.427   5.799   9.968  0.3381  2.7321  0.4091
   66CHL1  H11B 7326   1.330   5.932  10.010 -0.9932  0.8327 -1.7000
   66CHL1    C9 7327   1.234   5.743  10.081 -0.5203  0.4676 -0.2704
   66CHL1    H9 7328   1.140   5.802  10.095 -0.2700  0.6273  0.8361
   66CHL1   C10 7329   1.299   5.738  10.224 -0.0990  0.8098  0.1018
   66CHL1   C19 7330   1.426   5.653  10.216  0.2550 -0.0180 -0.1218
   66CHL1  H19A 7331   1.492   5.709  10.147 -0.3513  0.5667 -0.2428
   66CHL1  H19B 7332   1.484   5.652  10.310  1.6926  2.6985 -0.8753
   66CHL1  H19C 7333   1.400   5.548  10.189 -2.8829  0.6380 -0.1145
   66CHL1    C1 7334   1.317   5.885  10.287  0.5397  0.1898  0.3550
   66CHL1   H1A 7335   1.399   5.932  10.229 -1.0557 -0.7114 -2.8393
   66CHL1   H1B 7336   1.225   5.939  10.256  1.1619  0.7238 -0.6014
   66CHL1    C2 7337   1.352   5.898  10.434  0.2931 -0.4734  0.4019
   66CHL1   H2A 7338   1.352   6.005  10.466 -3.4413 -0.6742  1.5365
   66CHL1   H2B 7339   1.450   5.851  10.457  1.2646  1.3944  0.2819
   66CHL1   C20 7340   1.269   5.656   9.543 -0.0068  0.0450  0.6964
   66CHL1   H20 7341   1.356   5.589   9.560 -0.9243 -1.3589  0.0839
   66CHL1   C21 7342   1.319   5.800   9.523  0.7400  0.4967 -0.8615
   66CHL1  H21A 7343   1.230   5.863   9.543 -1.2764 -2.7647  1.6576
   66CHL1  H21B 7344   1.367   5.835   9.429  2.6860 -0.6298 -0.3546
   66CHL1  H21C 7345   1.400   5.824   9.596  0.8420 -1.3040 -0.3331
   66CHL1   C22 7346   1.195   5.610   9.409 -0.3906  0.2506 -1.0051
   66CHL1  H22A 7347   1.122   5.528   9.427  1.6287 -1.7407 -1.4413
   66CHL1  H22B 7348   1.131   5.695   9.377 -0.6729  0.0249 -1.0454
   66CHL1   C23 7349   1.294   5.578   9.294  0.2920 -0.3388 -0.1380
   66CHL1  H23A 7350   1.370   5.659   9.292 -1.1361  1.0289 -2.0668
   66CHL1  H23B 7351   1.354   5.487   9.316  0.2841 -0.7710 -1.7653
   66CHL1   C24 7352   1.235   5.581   9.155  0.2686 -0.3492  0.3060
   66CHL1  H24A 7353   1.151   5.509   9.144 -0.5653  0.3420  1.8213
   66CHL1  H24B 7354   1.199   5.684   9.134  2.8033  0.5706  0.1387
   66CHL1   C25 7355   1.341   5.561   9.044 -0.1355  0.5824 -0.3903
   66CHL1   H25 7356   1.415   5.644   9.045  1.0692 -0.4672  0.0888
   66CHL1   C26 7357   1.418   5.427   9.063 -0.2987  0.4227  0.6681
   66CHL1  H26A 7358   1.339   5.349   9.056 -1.8565  1.9007  0.9978
   66CHL1  H26B 7359   1.492   5.409   8.982  0.9240 -0.6770  1.9687
   66CHL1  H26C 7360   1.464   5.411   9.164 -0.4871 -0.7802  0.5770
   66CHL1   C27 7361   1.279   5.563   8.908 -0.3373 -0.5306  0.1631
   66CHL1  H27A 7362   1.233   5.662   8.888  0.0854 -0.7418 -2.1029
   66CHL1  H27B 7363   1.354   5.550   8.827 -2.3199 -1.8101 -1.5630
   66CHL1  H27C 7364   1.199   5.487   8.898  0.0062 -0.6860 -1.6323
   67CHL1    C3 7365   5.752   5.612  10.378  0.1418  0.2394  0.1531
   67CHL1    H3 7366   5.693   5.522  10.350 -1.9532  2.3672 -3.1089
   67CHL1    O3 7367   5.738   5.639  10.515 -0.1113 -0.2245  0.4009
   67CHL1   H3' 7368   5.788   5.720  10.532  0.6785 -0.0393 -2.2772
   67CHL1    C4 7369   5.898   5.577  10.341  0.2296  0.6509  1.3865
   67CHL1   H4A 7370   5.969   5.662  10.352  0.6561  0.4437  0.3191
   67CHL1   H4B 7371   5.934   5.496  10.408 -2.0987 -2.0970 -0.4889
   67CHL1    C5 7372   5.902   5.540  10.193 -0.8572 -0.4196 -0.4445
   67CHL1    C6 7373   5.965   5.420  10.159 -0.1774 -0.5522  0.4554
   67CHL1    H6 7374   6.005   5.355  10.239 -0.7794  0.0946  1.2966
   67CHL1    C7 7375   5.974   5.378  10.015 -0.3319 -0.0582  0.6240
   67CHL1   H7A 7376   6.076   5.352   9.980 -0.6937  0.4216 -0.8923
   67CHL1   H7B 7377   5.909   5.290   9.996  1.2224 -0.6083 -2.8460
   67CHL1    C8 7378   5.938   5.494   9.915 -0.1824 -0.7907 -0.0449
   67CHL1    H8 7379   6.032   5.551   9.898  2.7666 -4.5568  2.0979
   67CHL1   C14 7380   5.906   5.432   9.780  0.5710  0.7381  0.1219
   67CHL1   H14 7381   5.814   5.373   9.800  1.0578 -0.9407 -2.1839
   67CHL1   C15 7382   6.007   5.320   9.722  0.2683 -0.3522 -0.3479
   67CHL1  H15A 7383   6.115   5.344   9.729 -0.1769  2.0047 -0.7784
   67CHL1  H15B 7384   5.998   5.223   9.776  0.6408 -0.5343 -0.6086
   67CHL1   C16 7385   5.972   5.318   9.568  0.5033 -0.1605 -0.0935
   67CHL1  H16A 7386   6.065   5.343   9.513 -0.4775  0.5392 -1.5066
   67CHL1  H16B 7387   5.932   5.219   9.537 -1.5696  0.1372  1.4236
   67CHL1   C17 7388   5.860   5.433   9.547 -0.5947 -0.2256  0.3251
   67CHL1   H17 7389   5.762   5.382   9.541 -0.2605 -0.7414 -1.5152
   67CHL1   C13 7390   5.881   5.525   9.665  1.1360  0.2525  0.5634
   67CHL1   C18 7391   5.998   5.614   9.634  0.0489  0.3880  0.4789
   67CHL1  H18A 7392   6.091   5.566   9.596  0.4295  1.2561  0.2791
   67CHL1  H18B 7393   5.979   5.699   9.565 -1.3236  0.6113  1.1140
   67CHL1  H18C 7394   6.028   5.675   9.723 -0.0384  0.9829  0.1040
   67CHL1   C12 7395   5.752   5.602   9.700  0.0899  0.6786 -0.2977
   67CHL1  H12A 7396   5.717   5.664   9.615 -0.9435 -1.9808 -1.9515
   67CHL1  H12B 7397   5.665   5.533   9.705 -0.5325  1.3437 -1.5872
   67CHL1   C11 7398   5.765   5.665   9.841 -0.2767  0.6976 -0.0365
   67CHL1  H11A 7399   5.836   5.749   9.824  1.7734 -1.0446 -0.5127
   67CHL1  H11B 7400   5.665   5.703   9.869 -0.7165  0.7637 -1.5942
   67CHL1    C9 7401   5.813   5.575   9.957 -0.1088 -0.1689  0.2796
   67CHL1    H9 7402   5.739   5.497   9.983  0.7999  0.0225  3.9807
   67CHL1   C10 7403   5.837   5.635  10.091 -0.0108 -0.3735 -0.1716
   67CHL1   C19 7404   5.930   5.759  10.084  0.4227  0.0075 -0.1460
   67CHL1  H19A 7405   5.921   5.834  10.166 -0.8769 -0.8869  0.5531
   67CHL1  H19B 7406   6.035   5.723  10.073  0.6244  0.3150  0.7358
   67CHL1  H19C 7407   5.903   5.822   9.996  0.5727 -0.3523 -0.4542
   67CHL1    C1 7408   5.697   5.687  10.140  0.1490  0.2427 -1.3130
   67CHL1   H1A 7409   5.670   5.780  10.086  0.1376  2.6829  2.5284
   67CHL1   H1B 7410   5.623   5.608  10.113 -1.2071  0.6805  0.8727
   67CHL1    C2 7411   5.690   5.721  10.289 -0.3419 -0.3326  0.3843
   67CHL1   H2A 7412   5.585   5.747  10.317 -0.0493  1.2350  0.1116
   67CHL1   H2B 7413   5.749   5.814  10.307 -0.4157 -0.1499 -0.2849
   67CHL1   C20 7414   5.872   5.485   9.401 -0.3297  0.2918  0.0481
   67CHL1   H20 7415   5.978   5.512   9.388 -0.1843 -0.4266 -0.3482
   67CHL1   C21 7416   5.783   5.604   9.358  0.2315  0.2000 -0.0658
   67CHL1  H21A 7417   5.790   5.688   9.430  1.6321 -0.6519  0.8406
   67CHL1  H21B 7418   5.682   5.558   9.357  0.3656 -0.0965  0.1400
   67CHL1  H21C 7419   5.822   5.615   9.254 -0.8221 -2.1235 -0.7724
   67CHL1   C22 7420   5.835   5.371   9.305  0.5976 -0.0609  0.8274
   67CHL1  H22A 7421   5.877   5.277   9.347  2.6786  1.3101  1.9905
   67CHL1  H22B 7422   5.724   5.359   9.306  0.5619  0.2263  0.4572
   67CHL1   C23 7423   5.885   5.365   9.163  0.0405 -0.2217 -0.1127
   67CHL1  H23A 7424   5.822   5.433   9.102  0.1562  0.8025  0.8652
   67CHL1  H23B 7425   5.984   5.415   9.160 -0.2754  0.3686 -1.2069
   67CHL1   C24 7426   5.880   5.233   9.091  0.2631  0.3516 -1.0222
   67CHL1  H24A 7427   5.925   5.152   9.153  0.2545  1.9115  1.1385
   67CHL1  H24B 7428   5.772   5.207   9.082 -0.0777  0.2640  2.0446
   67CHL1   C25 7429   5.953   5.233   8.951  0.3980 -0.1951 -0.5620
   67CHL1   H25 7430   6.055   5.272   8.971 -0.0274  0.5210  0.2136
   67CHL1   C26 7431   5.954   5.093   8.889 -0.0071 -0.1000 -0.1393
   67CHL1  H26A 7432   5.851   5.056   8.865 -0.9756  1.5500  1.2902
   67CHL1  H26B 7433   6.022   5.086   8.801 -2.0849  0.7905 -1.9083
   67CHL1  H26C 7434   5.986   5.023   8.969 -2.7248  0.9265  1.9951
   67CHL1   C27 7435   5.887   5.338   8.855  1.0566 -0.2876  0.4872
   67CHL1  H27A 7436   5.887   5.438   8.902  0.3698 -1.2813  2.7272
   67CHL1  H27B 7437   5.963   5.357   8.776  0.1137  2.0075  0.0504
   67CHL1  H27C 7438   5.784   5.312   8.822  0.6915  1.5847  0.0684
   68CHL1    C3 7439   0.822   5.864  10.282 -0.3905 -0.0560  0.5213
   68CHL1    H3 7440   0.926   5.826  10.279 -0.5466 -0.5333  1.1069
   68CHL1    O3 7441   0.786   5.834  10.418  0.4415 -0.3440  0.2039
   68CHL1   H3' 7442   0.720   5.901  10.437  0.1191 -0.2471 -1.1756
   68CHL1    C4 7443   0.831   6.010  10.247 -0.0979 -0.5908  0.2472
   68CHL1   H4A 7444   0.729   6.051  10.264 -0.3205 -0.1794 -1.8387
   68CHL1   H4B 7445   0.895   6.064  10.320 -1.1732  0.4964  0.4321
   68CHL1    C5 7446   0.855   6.029  10.099  0.3120 -0.0132 -0.2515
   68CHL1    C6 7447   0.969   6.097  10.067  0.8932  0.1188 -0.3638
   68CHL1    H6 7448   1.037   6.136  10.143  2.9008 -1.2060 -1.3962
   68CHL1    C7 7449   1.009   6.121   9.924  0.0163  0.0214 -0.3310
   68CHL1   H7A 7450   1.032   6.230   9.919  1.7943 -0.2954  0.2056
   68CHL1   H7B 7451   1.101   6.063   9.902  0.3076  0.1630  0.4800
   68CHL1    C8 7452   0.898   6.090   9.819  0.8445 -0.4629 -0.1777
   68CHL1    H8 7453   0.825   6.173   9.805  2.4333  0.7573 -1.6367
   68CHL1   C14 7454   0.967   6.087   9.685  1.0137 -0.0484  0.6626
   68CHL1   H14 7455   1.048   6.012   9.694 -1.3158 -2.6879  0.8655
   68CHL1   C15 7456   1.032   6.221   9.634 -0.0796  0.4349  0.2043
   68CHL1  H15A 7457   0.970   6.304   9.674 -0.3669  0.6412 -0.6487
   68CHL1  H15B 7458   1.138   6.229   9.669 -0.3495 -1.4072  1.6134
   68CHL1   C16 7459   1.037   6.206   9.477 -0.4337 -0.2909  0.2820
   68CHL1  H16A 7460   0.982   6.287   9.424  1.1065  0.4742 -0.1964
   68CHL1  H16B 7461   1.138   6.196   9.433 -1.5394 -1.9418 -2.0704
   68CHL1   C17 7462   0.964   6.068   9.448  0.1659 -0.2811  0.1735
   68CHL1   H17 7463   1.047   5.995   9.454  0.7226  0.2012 -1.2448
   68CHL1   C13 7464   0.874   6.044   9.569  0.0387  0.3816 -0.3408
   68CHL1   C18 7465   0.749   6.140   9.538 -0.0670 -0.2077  0.4712
   68CHL1  H18A 7466   0.678   6.135   9.623 -0.1045 -1.5676  0.3821
   68CHL1  H18B 7467   0.778   6.243   9.509 -1.1674 -0.0844 -0.2321
   68CHL1  H18C 7468   0.682   6.105   9.457 -2.0783  2.5745  0.8201
   68CHL1   C12 7469   0.818   5.902   9.606 -0.4538  0.4023  0.5447
   68CHL1  H12A 7470   0.748   5.861   9.531  0.9893 -0.0090 -0.6265
   68CHL1  H12B 7471   0.900   5.827   9.601 -1.7244 -1.0772  1.0963
   68CHL1   C11 7472   0.744   5.902   9.737  0.2650 -0.0406  0.2015
   68CHL1  H11A 7473   0.649   5.958   9.723  0.1516 -0.2769  0.0336
   68CHL1  H11B 7474   0.723   5.797   9.766 -1.1103  0.3075  0.5241
   68CHL1    C9 7475   0.839   5.956   9.855  0.0381 -0.7203  0.2585
   68CHL1    H9 7476   0.918   5.877   9.858  0.7617 -0.0726 -0.9089
   68CHL1   C10 7477   0.777   5.953   9.995  0.2687  0.7475  0.9686
   68CHL1   C19 7478   0.649   6.034  10.000 -0.1980  0.4835 -0.1732
   68CHL1  H19A 7479   0.665   6.141   9.971 -1.5014  0.5555 -0.6829
   68CHL1  H19B 7480   0.581   5.987   9.926  0.7994  0.7912 -1.3232
   68CHL1  H19C 7481   0.597   6.035  10.098  0.3741 -2.0758  0.2275
   68CHL1    C1 7482   0.761   5.802  10.040  0.4234  0.1319  0.3005
   68CHL1   H1A 7483   0.673   5.766   9.984  1.2066  0.7332 -1.3826
   68CHL1   H1B 7484   0.858   5.757  10.008  0.5928  0.3129  0.5540
   68CHL1    C2 7485   0.725   5.790  10.188 -0.0001 -0.3299 -0.1713
   68CHL1   H2A 7486   0.729   5.682  10.215 -0.2181 -0.2156  0.3178
   68CHL1   H2B 7487   0.621   5.828  10.194 -0.0920 -0.1168 -2.2984
   68CHL1   C20 7488   0.905   6.047   9.303  0.2027  1.6715 -0.5523
   68CHL1   H20 7489   0.814   6.110   9.291  0.3716  2.0231 -0.0060
   68CHL1   C21 7490   0.865   5.894   9.286 -0.3848  0.7094  0.4355
   68CHL1  H21A 7491   0.941   5.827   9.332  1.0456  1.1700 -1.1717
   68CHL1  H21B 7492   0.844   5.871   9.180  1.4256  0.8119  0.0213
   68CHL1  H21C 7493   0.772   5.853   9.332  0.4577 -0.6329  1.0246
   68CHL1   C22 7494   1.001   6.085   9.187  0.2795  0.0649  0.1042
   68CHL1  H22A 7495   0.945   6.075   9.092  0.9395  0.0003 -0.2885
   68CHL1  H22B 7496   1.017   6.194   9.198 -2.6232  0.3274  3.5217
   68CHL1   C23 7497   1.138   6.015   9.175 -0.1091  0.1494 -0.4087
   68CHL1  H23A 7498   1.166   5.986   9.279  0.3480  1.8710 -0.0208
   68CHL1  H23B 7499   1.119   5.914   9.132 -3.1004  0.7359 -0.6520
   68CHL1   C24 7500   1.247   6.089   9.099 -0.2945 -0.5623  0.2593
   68CHL1  H24A 7501   1.234   6.195   9.132 -0.0853  0.1096 -1.6540
   68CHL1  H24B 7502   1.352   6.060   9.122  0.6638  1.5808 -0.9947
   68CHL1   C25 7503   1.219   6.093   8.948 -0.0756  0.2184  0.6287
   68CHL1   H25 7504   1.112   6.121   8.939 -0.0369  0.0893 -0.3280
   68CHL1   C26 7505   1.296   6.208   8.887 -0.7281 -0.1668  0.2668
   68CHL1  H26A 7506   1.286   6.303   8.944  0.2524  0.9151 -1.3071
   68CHL1  H26B 7507   1.404   6.183   8.888 -0.6269  0.2397 -0.3017
   68CHL1  H26C 7508   1.264   6.221   8.781  0.2105 -0.6001 -0.0744
   68CHL1   C27 7509   1.231   5.957   8.878 -0.3637  0.1448 -0.6885
   68CHL1  H27A 7510   1.204   5.874   8.948 -0.3007  1.1690  0.5857
   68CHL1  H27B 7511   1.177   5.955   8.781 -0.7951  0.9654 -0.4692
   68CHL1  H27C 7512   1.337   5.939   8.852 -0.8569 -1.1548 -1.9425
   69CHL1    C3 7513   3.388   2.072   6.498  0.1532  0.3031 -0.4732
   69CHL1    H3 7514   3.283   2.062   6.463  0.0693 -0.5878 -0.0102
   69CHL1    O3 7515   3.470   2.073   6.384  0.3057 -0.2750 -0.1462
   69CHL1   H3' 7516   3.473   1.985   6.347 -0.7318 -0.4559  0.1634
   69CHL1    C4 7517   3.395   2.201   6.581 -0.3592 -0.1829 -0.3165
   69CHL1   H4A 7518   3.496   2.210   6.625 -0.7913 -0.2249  0.7135
   69CHL1   H4B 7519   3.380   2.291   6.518  0.7770  0.7708  0.7327
   69CHL1    C5 7520   3.312   2.198   6.711 -0.3217  0.1961  0.7369
   69CHL1    C6 7521   3.214   2.285   6.735  0.0214  0.9717 -0.4624
   69CHL1    H6 7522   3.197   2.374   6.671 -3.9126  1.2284  0.6971
   69CHL1    C7 7523   3.120   2.284   6.848 -0.0254 -0.4626 -0.5810
   69CHL1   H7A 7524   3.110   2.382   6.897 -1.0058 -0.3200 -1.0417
   69CHL1   H7B 7525   3.016   2.264   6.814 -0.2745  1.2961 -0.9508
   69CHL1    C8 7526   3.178   2.204   6.966 -0.2273  0.2487  0.0682
   69CHL1    H8 7527   3.270   2.255   6.998  0.1205  1.1116 -2.1075
   69CHL1   C14 7528   3.078   2.196   7.076  0.2118  0.1417 -0.5420
   69CHL1   H14 7529   2.989   2.148   7.030 -1.7452  1.5752  1.4816
   69CHL1   C15 7530   3.018   2.317   7.139 -0.4242  0.2286 -0.6647
   69CHL1  H15A 7531   3.091   2.400   7.137  1.0603 -0.9270  1.3228
   69CHL1  H15B 7532   2.934   2.365   7.083 -2.1582 -1.1023  0.6543
   69CHL1   C16 7533   2.980   2.282   7.289 -0.1552  0.1492 -0.3836
   69CHL1  H16A 7534   3.051   2.332   7.359 -2.6848 -0.0536  2.5579
   69CHL1  H16B 7535   2.874   2.314   7.301 -1.2325 -1.5756 -4.0575
   69CHL1   C17 7536   3.003   2.122   7.290  0.0665  0.0657 -0.1875
   69CHL1   H17 7537   2.908   2.094   7.241  0.8891 -0.3775 -1.5901
   69CHL1   C13 7538   3.117   2.098   7.191  0.3746  0.7239  0.4495
   69CHL1   C18 7539   3.253   2.150   7.245  0.2847  0.2411  0.1701
   69CHL1  H18A 7540   3.237   2.257   7.268 -2.9375  0.3666 -2.0108
   69CHL1  H18B 7541   3.287   2.078   7.324  1.9833 -0.3085 -1.0148
   69CHL1  H18C 7542   3.327   2.145   7.163  0.2263 -0.0985  0.1331
   69CHL1   C12 7543   3.139   1.960   7.136 -0.8013 -0.1580  0.2094
   69CHL1  H12A 7544   3.182   1.887   7.207 -2.0010 -2.3694 -1.2195
   69CHL1  H12B 7545   3.036   1.926   7.109 -1.3014  0.2629  1.5232
   69CHL1   C11 7546   3.241   1.952   7.022  0.1916  0.1912 -0.1005
   69CHL1  H11A 7547   3.339   1.968   7.072  0.5278  1.6068 -1.1096
   69CHL1  H11B 7548   3.236   1.855   6.969 -0.3036  0.7568 -1.1259
   69CHL1    C9 7549   3.219   2.063   6.917 -0.3965  1.2163 -0.2069
   69CHL1    H9 7550   3.131   2.028   6.859  0.5687  0.9339 -1.5291
   69CHL1   C10 7551   3.328   2.077   6.806 -0.6538 -0.0407  0.2685
   69CHL1   C19 7552   3.466   2.091   6.876  0.8693 -0.3112 -0.2048
   69CHL1  H19A 7553   3.500   2.000   6.930  0.8720 -0.3232 -0.2268
   69CHL1  H19B 7554   3.543   2.118   6.801  0.4451 -2.2360 -1.3912
   69CHL1  H19C 7555   3.454   2.176   6.946  1.3401 -0.0593 -0.4261
   69CHL1    C1 7556   3.324   1.956   6.713 -0.0391  0.4618  0.7432
   69CHL1   H1A 7557   3.328   1.853   6.756  0.6339  0.1424 -0.0571
   69CHL1   H1B 7558   3.222   1.959   6.670  0.9388  0.8079 -1.7480
   69CHL1    C2 7559   3.424   1.952   6.595  0.4250 -0.4843  0.4607
   69CHL1   H2A 7560   3.415   1.853   6.546  1.1204  0.0620 -0.8153
   69CHL1   H2B 7561   3.528   1.958   6.633  0.5188  3.4547  0.0503
   69CHL1   C20 7562   3.013   2.061   7.429  0.1988  0.1595 -0.2949
   69CHL1   H20 7563   3.119   2.048   7.460  0.0340 -0.2912  0.0980
   69CHL1   C21 7564   2.972   1.904   7.433 -0.4074 -0.0678 -0.1363
   69CHL1  H21A 7565   3.015   1.858   7.341  1.3779  0.0000  0.6273
   69CHL1  H21B 7566   2.861   1.912   7.433 -0.3035  1.8048  0.5587
   69CHL1  H21C 7567   2.999   1.858   7.530  0.3415 -1.0249 -0.7789
   69CHL1   C22 7568   2.944   2.142   7.540  0.3403  0.7511  0.1805
   69CHL1  H22A 7569   2.997   2.240   7.546  0.6079  0.6291 -0.2145
   69CHL1  H22B 7570   2.834   2.142   7.521  0.3626  2.2821 -0.1236
   69CHL1   C23 7571   2.961   2.069   7.675  0.4429  0.0825 -0.5055
   69CHL1  H23A 7572   2.886   1.989   7.694  0.5021 -0.0759 -0.9305
   69CHL1  H23B 7573   3.063   2.027   7.683 -0.0427 -0.9043  1.1901
   69CHL1   C24 7574   2.923   2.166   7.786 -0.0335  0.4003 -0.4969
   69CHL1  H24A 7575   2.975   2.264   7.772 -0.2626  0.7276  0.7917
   69CHL1  H24B 7576   2.820   2.202   7.766  0.6753  1.2972 -2.8681
   69CHL1   C25 7577   2.935   2.117   7.938 -0.4463 -0.5405  0.1084
   69CHL1   H25 7578   3.041   2.096   7.960  0.8599  4.5604  0.0943
   69CHL1   C26 7579   2.900   2.225   8.047 -0.0008  0.6654 -0.1443
   69CHL1  H26A 7580   2.963   2.316   8.037  2.0488 -0.1674  3.3451
   69CHL1  H26B 7581   2.793   2.254   8.047 -0.2167 -0.1228 -0.3787
   69CHL1  H26C 7582   2.921   2.185   8.149  0.8986 -1.0245 -0.9587
   69CHL1   C27 7583   2.859   1.985   7.962 -0.2056 -0.4541  0.3033
   69CHL1  H27A 7584   2.751   2.001   7.941 -0.5939 -0.3446  2.2206
   69CHL1  H27B 7585   2.899   1.899   7.904 -1.8192 -0.0569 -1.4883
   69CHL1  H27C 7586   2.867   1.962   8.071  0.1986 -0.3009  0.3112
   70CHL1    C3 7587   2.013   5.093   6.923  0.5049 -0.2288 -1.5779
   70CHL1    H3 7588   2.050   4.989   6.933 -0.9890 -0.8113 -1.7692
   70CHL1    O3 7589   1.978   5.124   6.791 -0.4138 -0.3737  0.3901
   70CHL1   H3' 7590   1.933   5.208   6.801  2.0306  0.8822  1.8186
   70CHL1    C4 7591   1.883   5.099   7.003 -0.6595 -0.3260 -1.1590
   70CHL1   H4A 7592   1.834   5.199   7.001  2.2315  1.3874  2.2013
   70CHL1   H4B 7593   1.812   5.026   6.959 -2.7208  0.0062  1.3650
   70CHL1    C5 7594   1.894   5.084   7.157  0.6689  1.6219 -0.7535
   70CHL1    C6 7595   1.815   4.988   7.216 -0.3216 -0.8020 -0.4279
   70CHL1    H6 7596   1.738   4.936   7.158  0.2600 -0.5841 -1.4250
   70CHL1    C7 7597   1.823   4.964   7.361 -0.0581  0.2183  0.6919
   70CHL1   H7A 7598   1.718   4.956   7.397 -0.1069 -0.6805  0.3624
   70CHL1   H7B 7599   1.874   4.866   7.379  0.1171 -0.1354 -1.5307
   70CHL1    C8 7600   1.891   5.078   7.447 -0.7487 -0.4709 -0.3926
   70CHL1    H8 7601   1.820   5.163   7.447 -2.6604 -1.9885 -0.0991
   70CHL1   C14 7602   1.911   5.032   7.590  0.8175  0.4209  0.2562
   70CHL1   H14 7603   1.975   4.942   7.585 -1.1333 -1.0008 -0.3574
   70CHL1   C15 7604   1.792   4.976   7.674  0.3707  0.5106  0.6270
   70CHL1  H15A 7605   1.697   5.032   7.661 -2.2025 -3.3605  0.8635
   70CHL1  H15B 7606   1.758   4.874   7.645 -0.3594  0.4664  1.5785
   70CHL1   C16 7607   1.844   4.972   7.810 -0.0564  0.1889  0.5009
   70CHL1  H16A 7608   1.775   5.022   7.881 -1.3684  0.5764 -0.9730
   70CHL1  H16B 7609   1.866   4.872   7.853 -1.4793  0.1743  1.2437
   70CHL1   C17 7610   1.980   5.048   7.811 -0.7578 -0.1030 -0.2489
   70CHL1   H17 7611   2.055   4.966   7.802 -0.5060  0.2057 -1.0523
   70CHL1   C13 7612   1.987   5.129   7.678 -0.1126  0.1732  0.2015
   70CHL1   C18 7613   1.905   5.261   7.687 -0.5605 -0.2017 -0.0942
   70CHL1  H18A 7614   1.912   5.310   7.587  1.2614 -0.0469  0.0760
   70CHL1  H18B 7615   1.802   5.248   7.725  0.2198 -0.7614  1.9510
   70CHL1  H18C 7616   1.958   5.325   7.760  0.2512  1.5314 -2.0812
   70CHL1   C12 7617   2.132   5.145   7.614  0.4947 -0.8070 -0.1662
   70CHL1  H12A 7618   2.195   5.216   7.672 -1.0278  0.5986 -0.1421
   70CHL1  H12B 7619   2.182   5.046   7.610  1.4362 -0.4572  1.7543
   70CHL1   C11 7620   2.123   5.187   7.467 -0.0845  0.5897 -0.4204
   70CHL1  H11A 7621   2.101   5.296   7.459  0.4314  0.6146 -1.6289
   70CHL1  H11B 7622   2.230   5.178   7.438  0.0104  1.0043 -0.2059
   70CHL1    C9 7623   2.022   5.108   7.374  0.7399 -0.2191 -0.6753
   70CHL1    H9 7624   2.079   5.015   7.354 -0.9310 -1.3827 -0.2027
   70CHL1   C10 7625   1.998   5.163   7.226 -0.2049 -0.2071 -0.6298
   70CHL1   C19 7626   1.949   5.310   7.232 -0.3519 -0.0338  0.2398
   70CHL1  H19A 7627   1.944   5.350   7.129 -2.4350 -0.7593  0.0117
   70CHL1  H19B 7628   1.848   5.315   7.280  0.1385 -1.0109  1.4266
   70CHL1  H19C 7629   2.004   5.380   7.298  0.4200 -2.0461  1.8628
   70CHL1    C1 7630   2.133   5.150   7.143  0.1742  0.0177 -0.6026
   70CHL1   H1A 7631   2.213   5.216   7.182 -0.6649  0.7176 -0.0245
   70CHL1   H1B 7632   2.174   5.047   7.151 -0.3594 -0.2077 -0.7130
   70CHL1    C2 7633   2.125   5.173   6.991 -0.1566  0.3527 -0.4747
   70CHL1   H2A 7634   2.226   5.149   6.951  1.1344  1.1561  2.0665
   70CHL1   H2B 7635   2.111   5.282   6.978 -0.6411  0.3835  0.2446
   70CHL1   C20 7636   2.012   5.124   7.940  0.0108 -0.8569 -0.3921
   70CHL1   H20 7637   1.938   5.206   7.949  0.7607 -0.3498  2.1238
   70CHL1   C21 7638   2.160   5.174   7.940 -0.1802 -0.7782 -0.0989
   70CHL1  H21A 7639   2.174   5.262   7.873 -0.2452 -1.6768 -1.3243
   70CHL1  H21B 7640   2.223   5.088   7.910  1.9920  1.0748 -1.2131
   70CHL1  H21C 7641   2.192   5.217   8.038 -2.0428  1.3678 -0.3275
   70CHL1   C22 7642   1.987   5.032   8.066 -0.1490 -0.2829  0.0818
   70CHL1  H22A 7643   1.901   4.963   8.058  0.6644 -1.1212 -2.3096
   70CHL1  H22B 7644   2.081   4.974   8.080  0.5022  0.5713 -0.5827
   70CHL1   C23 7645   1.964   5.118   8.193 -0.7449 -0.1343  0.2235
   70CHL1  H23A 7646   2.061   5.170   8.208 -1.5448  1.5432 -0.1296
   70CHL1  H23B 7647   1.885   5.190   8.162 -2.3913 -2.2235 -0.7244
   70CHL1   C24 7648   1.928   5.033   8.320  0.5227 -0.1404  0.2288
   70CHL1  H24A 7649   1.840   4.978   8.280 -0.7478  0.1394  2.4933
   70CHL1  H24B 7650   1.998   4.954   8.354 -0.3491  0.3899  3.5744
   70CHL1   C25 7651   1.882   5.112   8.446 -0.5885 -0.1154 -0.6790
   70CHL1   H25 7652   1.826   5.202   8.414  1.7235  2.5753  2.1585
   70CHL1   C26 7653   1.776   5.038   8.524  0.0855  0.1939  0.3070
   70CHL1  H26A 7654   1.824   4.977   8.603  0.6144  1.4657  1.0101
   70CHL1  H26B 7655   1.720   5.112   8.585  1.2947  3.0204 -1.7461
   70CHL1  H26C 7656   1.702   4.982   8.463 -0.9240  0.3248  1.3744
   70CHL1   C27 7657   2.002   5.162   8.529 -0.6092  0.1125  0.6954
   70CHL1  H27A 7658   2.080   5.201   8.461 -3.1714  0.1331 -2.4512
   70CHL1  H27B 7659   1.976   5.244   8.599 -0.7213 -0.9169  1.9030
   70CHL1  H27C 7660   2.054   5.084   8.589 -0.3797  1.4549  2.3376
   71CHL1    C3 7661   2.081   1.396   6.825  0.3394  0.2623 -0.1487
   71CHL1    H3 7662   2.132   1.494   6.821  0.0206  0.5749  2.3731
   71CHL1    O3 7663   2.070   1.343   6.691 -0.7084 -0.1352  0.7035
   71CHL1   H3' 7664   2.054   1.249   6.696 -0.5010 -0.2675 -0.6413
   71CHL1    C4 7665   2.158   1.292   6.913  0.1655 -0.9408 -0.2726
   71CHL1   H4A 7666   2.121   1.189   6.893  1.9765 -1.4034 -1.5946
   71CHL1   H4B 7667   2.266   1.300   6.888  0.8129  1.6342  2.7309
   71CHL1    C5 7668   2.140   1.320   7.064  0.1161 -0.0021  0.0502
   71CHL1    C6 7669   2.247   1.321   7.146  0.1517 -0.2709 -0.2264
   71CHL1    H6 7670   2.336   1.282   7.095 -1.8032 -3.5959 -1.4172
   71CHL1    C7 7671   2.232   1.338   7.293  0.4697 -0.0933 -1.4875
   71CHL1   H7A 7672   2.300   1.271   7.349  0.3154  1.7044  1.0145
   71CHL1   H7B 7673   2.262   1.444   7.309  0.6539 -0.4337  0.7271
   71CHL1    C8 7674   2.089   1.332   7.358 -1.5256 -0.3781 -0.5120
   71CHL1    H8 7675   2.064   1.226   7.379  1.0832 -0.9106  0.3520
   71CHL1   C14 7676   2.096   1.415   7.490 -0.2764 -0.4551 -0.0358
   71CHL1   H14 7677   2.119   1.520   7.462 -3.0530  0.9819  2.4352
   71CHL1   C15 7678   2.191   1.375   7.601  0.3001  0.0095  0.1837
   71CHL1  H15A 7679   2.175   1.269   7.630  0.4862  0.6188  2.7270
   71CHL1  H15B 7680   2.298   1.392   7.579  0.1090  1.2512  0.1742
   71CHL1   C16 7681   2.141   1.455   7.720  0.2820  0.0588 -0.8789
   71CHL1  H16A 7682   2.123   1.387   7.806 -2.9503  1.1774 -0.5188
   71CHL1  H16B 7683   2.205   1.543   7.742  0.7466 -0.5069  0.0997
   71CHL1   C17 7684   1.995   1.509   7.685  0.1582 -0.4024  0.2638
   71CHL1   H17 7685   2.013   1.616   7.661  2.2636 -0.2727  2.0407
   71CHL1   C13 7686   1.964   1.428   7.556  0.0261 -0.2008 -0.1052
   71CHL1   C18 7687   1.908   1.283   7.594 -0.6418  0.0871  0.0080
   71CHL1  H18A 7688   1.984   1.222   7.647 -1.1066 -0.7942 -0.3035
   71CHL1  H18B 7689   1.817   1.287   7.658 -0.3256 -0.4251  0.4994
   71CHL1  H18C 7690   1.881   1.226   7.502  0.8105 -3.6417  1.6722
   71CHL1   C12 7691   1.863   1.496   7.455  0.4441 -0.4456  0.4170
   71CHL1  H12A 7692   1.757   1.503   7.490  0.5060  0.4872  0.4455
   71CHL1  H12B 7693   1.897   1.601   7.444  3.1739 -1.3693 -0.7382
   71CHL1   C11 7694   1.850   1.421   7.317 -0.1465  0.0109  0.4804
   71CHL1  H11A 7695   1.798   1.325   7.337  0.8246 -0.5703  0.3105
   71CHL1  H11B 7696   1.784   1.487   7.258 -0.1675  1.0945  1.6778
   71CHL1    C9 7697   1.994   1.399   7.258  0.2189 -0.5553 -0.7274
   71CHL1    H9 7698   2.032   1.503   7.249 -0.7506 -0.1464 -0.2073
   71CHL1   C10 7699   1.997   1.341   7.113 -0.0137 -0.6351 -0.0967
   71CHL1   C19 7700   1.934   1.200   7.114  0.3537 -0.3350  0.2437
   71CHL1  H19A 7701   1.911   1.148   7.019 -0.3893 -2.4478  1.5083
   71CHL1  H19B 7702   1.996   1.136   7.182 -0.8588  0.2232  1.9467
   71CHL1  H19C 7703   1.837   1.208   7.168  0.1595 -0.3494 -0.1023
   71CHL1    C1 7704   1.918   1.432   7.019  0.8551 -0.5689  0.0671
   71CHL1   H1A 7705   1.811   1.425   7.046 -0.0716  0.6317 -2.9657
   71CHL1   H1B 7706   1.944   1.537   7.044 -1.6448  0.4385 -1.2610
   71CHL1    C2 7707   1.930   1.411   6.867 -0.3833 -0.5178 -0.4744
   71CHL1   H2A 7708   1.884   1.493   6.808 -0.2696 -0.3479 -0.3293
   71CHL1   H2B 7709   1.884   1.311   6.860  1.7371 -1.6045  0.2685
   71CHL1   C20 7710   1.901   1.510   7.801  0.5501 -0.0120 -1.1063
   71CHL1   H20 7711   1.866   1.406   7.812  0.2593  0.1986  0.0074
   71CHL1   C21 7712   1.776   1.602   7.769 -0.2679 -0.1423 -0.0066
   71CHL1  H21A 7713   1.817   1.701   7.740  0.4090 -0.0549  1.1797
   71CHL1  H21B 7714   1.708   1.610   7.856  1.4175 -0.3776  1.3917
   71CHL1  H21C 7715   1.714   1.562   7.686 -0.8394 -0.7542  0.6954
   71CHL1   C22 7716   1.962   1.559   7.941 -0.0757 -0.3382 -0.0246
   71CHL1  H22A 7717   1.882   1.548   8.017 -0.5747 -4.9401 -0.9136
   71CHL1  H22B 7718   2.034   1.483   7.980 -1.2168 -1.2683  0.3226
   71CHL1   C23 7719   2.015   1.708   7.937 -0.6158  0.2571  0.0318
   71CHL1  H23A 7720   2.097   1.728   7.865  0.3592 -1.3913  0.6113
   71CHL1  H23B 7721   1.939   1.780   7.902 -1.8532 -1.1417 -0.2834
   71CHL1   C24 7722   2.075   1.762   8.071 -0.1266  0.2207  0.0874
   71CHL1  H24A 7723   2.036   1.690   8.146 -0.1049 -1.6999 -1.6415
   71CHL1  H24B 7724   2.185   1.749   8.084  0.0020  1.0264 -0.1164
   71CHL1   C25 7725   2.043   1.906   8.109 -0.5890 -0.2450  0.7218
   71CHL1   H25 7726   1.940   1.933   8.077 -0.0973  0.4004 -0.3607
   71CHL1   C26 7727   2.054   1.924   8.259  0.2946  0.1557  0.0849
   71CHL1  H26A 7728   2.027   2.029   8.284  1.2398  0.9165 -1.8429
   71CHL1  H26B 7729   1.990   1.852   8.315 -0.2211  0.0005 -0.6827
   71CHL1  H26C 7730   2.155   1.894   8.294  0.5626 -0.1256 -0.9028
   71CHL1   C27 7731   2.127   2.017   8.035  1.1228 -0.2653  0.7040
   71CHL1  H27A 7732   2.103   2.000   7.928 -0.4777 -1.8081  1.2489
   71CHL1  H27B 7733   2.091   2.116   8.070 -1.5904 -1.5243  1.7975
   71CHL1  H27C 7734   2.235   2.003   8.053  1.3262 -0.6527 -0.6611
   72CHL1    C3 7735   2.056   6.830   7.196 -1.1541  0.4501 -0.2109
   72CHL1    H3 7736   2.073   6.939   7.213  0.6102 -0.1247  2.2603
   72CHL1    O3 7737   2.081   6.799   7.060  0.1529  0.2083 -0.0364
   72CHL1   H3' 7738   2.124   6.713   7.057  0.0325  0.1456  0.0173
   72CHL1    C4 7739   2.149   6.748   7.292  0.0780  0.7124  0.0706
   72CHL1   H4A 7740   2.155   6.639   7.270  4.4735  0.7461  0.2895
   72CHL1   H4B 7741   2.250   6.781   7.261  0.3116 -1.7393 -2.0953
   72CHL1    C5 7742   2.123   6.770   7.436 -0.7485 -0.6794 -0.1909
   72CHL1    C6 7743   2.222   6.819   7.511 -0.2537  0.1215 -0.4807
   72CHL1    H6 7744   2.322   6.832   7.467 -0.1702  2.1505  0.1745
   72CHL1    C7 7745   2.196   6.850   7.657 -0.3099 -0.4335  0.0292
   72CHL1   H7A 7746   2.287   6.826   7.716 -0.0875 -0.6709 -0.4057
   72CHL1   H7B 7747   2.184   6.961   7.657  1.8259 -0.1648  0.4050
   72CHL1    C8 7748   2.061   6.799   7.720  0.4461 -0.0723 -0.1489
   72CHL1    H8 7749   2.059   6.689   7.735 -2.1503  0.2728  2.9919
   72CHL1   C14 7750   2.035   6.853   7.852  0.8459 -0.3537 -0.3494
   72CHL1   H14 7751   2.026   6.962   7.830  1.3015  0.0395  1.2991
   72CHL1   C15 7752   2.136   6.838   7.964  0.1264  0.6976 -0.2543
   72CHL1  H15A 7753   2.161   6.730   7.974  2.0697  1.2548  2.0421
   72CHL1  H15B 7754   2.232   6.892   7.948 -0.0850  2.0005  2.3472
   72CHL1   C16 7755   2.068   6.897   8.084  0.4397  0.1532 -0.0419
   72CHL1  H16A 7756   2.081   6.825   8.167  1.1450 -0.1496 -0.4114
   72CHL1  H16B 7757   2.110   6.997   8.108  1.0841  0.0099 -0.5574
   72CHL1   C17 7758   1.916   6.918   8.051 -0.5091 -0.6922 -0.3224
   72CHL1   H17 7759   1.900   7.025   8.027 -2.6749 -0.3668  2.1230
   72CHL1   C13 7760   1.897   6.827   7.917  0.7613 -0.1255 -0.3552
   72CHL1   C18 7761   1.877   6.678   7.961 -0.0948 -0.7025  0.1112
   72CHL1  H18A 7762   1.896   6.603   7.881  2.3359 -1.1682  1.0383
   72CHL1  H18B 7763   1.949   6.658   8.043 -1.2468  2.5516  2.1111
   72CHL1  H18C 7764   1.773   6.662   7.999 -0.3427  2.0760  0.7985
   72CHL1   C12 7765   1.787   6.872   7.820  0.1137  0.0843 -0.2246
   72CHL1  H12A 7766   1.687   6.851   7.864  1.4274 -1.5897  2.1795
   72CHL1  H12B 7767   1.803   6.981   7.804  1.7143  0.1205  1.2823
   72CHL1   C11 7768   1.791   6.797   7.686 -0.1880  0.2427  0.3457
   72CHL1  H11A 7769   1.784   6.687   7.699  1.5118  0.0285 -0.3020
   72CHL1  H11B 7770   1.710   6.827   7.615 -0.1359 -2.2684 -0.8811
   72CHL1    C9 7771   1.938   6.829   7.624  0.2077 -0.0768  0.1439
   72CHL1    H9 7772   1.943   6.940   7.619 -0.8155 -0.0034  0.6071
   72CHL1   C10 7773   1.974   6.766   7.481 -0.4981 -0.1312  0.2819
   72CHL1   C19 7774   1.948   6.612   7.487  0.6325  0.0404  0.6099
   72CHL1  H19A 7775   1.837   6.609   7.487  0.4699  2.9345 -1.2738
   72CHL1  H19B 7776   1.960   6.569   7.385  0.1485  2.2004 -0.3964
   72CHL1  H19C 7777   1.992   6.550   7.568  1.9273 -0.2055 -0.2532
   72CHL1    C1 7778   1.880   6.842   7.374 -0.3232  0.2035 -0.8368
   72CHL1   H1A 7779   1.773   6.838   7.403 -0.6388  1.4610 -1.7321
   72CHL1   H1B 7780   1.904   6.950   7.384 -2.3075  0.7476 -1.6577
   72CHL1    C2 7781   1.913   6.801   7.229 -0.0201 -0.4940 -0.4378
   72CHL1   H2A 7782   1.844   6.852   7.158  0.5672  0.3507 -0.4259
   72CHL1   H2B 7783   1.896   6.696   7.198  2.5818 -0.1303 -3.5671
   72CHL1   C20 7784   1.833   6.896   8.181 -0.6999 -0.3254  0.7146
   72CHL1   H20 7785   1.842   6.788   8.205 -3.0330 -0.8524 -0.4786
   72CHL1   C21 7786   1.680   6.914   8.155  0.6243  0.4074 -0.6060
   72CHL1  H21A 7787   1.636   7.012   8.129  0.3548  0.3523 -0.3592
   72CHL1  H21B 7788   1.634   6.886   8.252  1.6893  0.5096 -0.0559
   72CHL1  H21C 7789   1.652   6.828   8.089  1.9140 -1.1867  0.8181
   72CHL1   C22 7790   1.875   6.988   8.293  0.0355  0.2143 -0.1615
   72CHL1  H22A 7791   1.984   6.984   8.316 -0.1887 -0.7911  0.7797
   72CHL1  H22B 7792   1.846   7.093   8.271 -1.0685  0.0339  0.4017
   72CHL1   C23 7793   1.820   6.951   8.434  0.6416  0.7976 -0.6754
   72CHL1  H23A 7794   1.709   6.958   8.446  0.8768  0.8140  2.3737
   72CHL1  H23B 7795   1.828   6.843   8.460  1.0604  1.0099  0.1361
   72CHL1   C24 7796   1.873   7.038   8.545 -0.1274  0.5446  0.2629
   72CHL1  H24A 7797   1.981   7.065   8.533 -0.2774  1.2626  0.4448
   72CHL1  H24B 7798   1.824   7.138   8.541  0.9598  1.1381  0.9854
   72CHL1   C25 7799   1.860   6.975   8.682  0.3864 -0.3947  0.5389
   72CHL1   H25 7800   1.890   7.050   8.757 -0.7193  0.4468  0.1641
   72CHL1   C26 7801   1.716   6.951   8.733  0.6671 -0.1430  0.1314
   72CHL1  H26A 7802   1.715   6.926   8.842 -0.2984 -1.8797 -0.2361
   72CHL1  H26B 7803   1.659   7.045   8.719  0.3225 -0.0977  1.6185
   72CHL1  H26C 7804   1.670   6.869   8.675  1.3889  0.4150 -1.2740
   72CHL1   C27 7805   1.952   6.854   8.707 -0.0074 -0.2074 -0.1731
   72CHL1  H27A 7806   1.935   6.763   8.647  0.7523 -1.4530  1.4245
   72CHL1  H27B 7807   2.062   6.871   8.709  0.6532 -3.8767  0.1222
   72CHL1  H27C 7808   1.921   6.832   8.811 -0.8460  0.2981 -0.3093
   73CHL1    C3 7809   2.006   3.134   6.800  0.0777  0.0886 -0.4388
   73CHL1    H3 7810   2.038   3.236   6.831 -0.9437  0.1556  0.4807
   73CHL1    O3 7811   1.966   3.131   6.661  0.0386  0.4801  0.3877
   73CHL1   H3' 7812   1.946   3.038   6.652  1.0680  0.3568 -0.9062
   73CHL1    C4 7813   2.133   3.035   6.829 -0.1495 -0.6350  0.3555
   73CHL1   H4A 7814   2.087   2.939   6.795 -0.7497 -0.0674 -0.4627
   73CHL1   H4B 7815   2.217   3.063   6.762 -0.0240 -1.6125  0.0795
   73CHL1    C5 7816   2.177   3.035   6.973 -0.0212 -0.3135  0.6671
   73CHL1    C6 7817   2.302   3.061   7.007 -0.3312 -0.0508  0.3878
   73CHL1    H6 7818   2.370   3.083   6.923 -0.2513  0.1357  0.4988
   73CHL1    C7 7819   2.358   3.070   7.145  0.1083 -0.0497 -0.5104
   73CHL1   H7A 7820   2.466   3.042   7.153  0.2057  0.2167 -0.8586
   73CHL1   H7B 7821   2.365   3.180   7.158 -2.4072  0.0340  0.6906
   73CHL1    C8 7822   2.269   3.016   7.257  0.0158  0.8941 -0.0062
   73CHL1    H8 7823   2.280   2.906   7.248  0.7644  1.1245 -4.9747
   73CHL1   C14 7824   2.311   3.054   7.395 -0.6356 -0.0149  0.6456
   73CHL1   H14 7825   2.305   3.165   7.393 -1.8149 -0.0707 -1.3490
   73CHL1   C15 7826   2.459   3.031   7.442  0.2811  0.5544  0.3565
   73CHL1  H15A 7827   2.497   2.929   7.418  2.5977  1.5493 -0.5306
   73CHL1  H15B 7828   2.513   3.105   7.379  1.0374 -1.3270 -1.2911
   73CHL1   C16 7829   2.446   3.050   7.593 -0.1920  0.2851  0.6141
   73CHL1  H16A 7830   2.489   2.958   7.637  0.5581 -0.5161 -1.6369
   73CHL1  H16B 7831   2.501   3.134   7.641  1.7461 -1.0896  0.9180
   73CHL1   C17 7832   2.295   3.060   7.636  0.9403 -0.6705  0.2658
   73CHL1   H17 7833   2.275   3.170   7.640  1.1602 -0.6307  0.2882
   73CHL1   C13 7834   2.216   3.012   7.508 -1.0164  0.3521 -0.5038
   73CHL1   C18 7835   2.212   2.861   7.508  0.2646  0.0743  0.0834
   73CHL1  H18A 7836   2.143   2.829   7.588 -0.7413 -0.0004 -0.7995
   73CHL1  H18B 7837   2.180   2.816   7.411 -1.7766 -0.7946  1.1080
   73CHL1  H18C 7838   2.316   2.828   7.532 -0.0947 -0.4455  0.9602
   73CHL1   C12 7839   2.079   3.074   7.475  0.0823 -1.3776  0.0205
   73CHL1  H12A 7840   2.004   3.047   7.552 -0.5059 -1.1748 -0.4748
   73CHL1  H12B 7841   2.091   3.184   7.478 -1.9131 -1.1362  2.2654
   73CHL1   C11 7842   2.027   3.026   7.341  0.6086 -0.6086 -0.1937
   73CHL1  H11A 7843   2.014   2.917   7.352 -0.1035 -0.7109 -1.8027
   73CHL1  H11B 7844   1.929   3.078   7.330  1.3393  1.4574  2.0664
   73CHL1    C9 7845   2.115   3.063   7.226 -0.7064  0.1702 -0.3812
   73CHL1    H9 7846   2.128   3.174   7.226  1.8681 -0.0376  1.4533
   73CHL1   C10 7847   2.066   3.021   7.085  0.7582 -0.2405  0.3487
   73CHL1   C19 7848   2.033   2.868   7.083  0.3915 -0.1772 -0.2543
   73CHL1  H19A 7849   2.121   2.821   7.132  1.2683  1.2772 -0.3808
   73CHL1  H19B 7850   1.932   2.854   7.129 -0.3537 -0.8581 -1.9768
   73CHL1  H19C 7851   2.016   2.829   6.980 -0.0626  4.1942 -2.0402
   73CHL1    C1 7852   1.953   3.110   7.044  0.7317 -0.5484 -0.3847
   73CHL1   H1A 7853   1.869   3.105   7.117 -0.8150  2.3717 -1.7915
   73CHL1   H1B 7854   1.977   3.218   7.052  0.6053 -0.4860 -0.8431
   73CHL1    C2 7855   1.896   3.086   6.899  0.1008  0.3439  0.1570
   73CHL1   H2A 7856   1.810   3.155   6.881  0.0046  0.0169 -0.6452
   73CHL1   H2B 7857   1.875   2.978   6.884 -1.1525  0.7923 -1.5861
   73CHL1   C20 7858   2.259   2.993   7.772  0.3816 -0.0145  0.0085
   73CHL1   H20 7859   2.272   2.883   7.761  2.9153  0.0934  1.1000
   73CHL1   C21 7860   2.110   3.015   7.810  0.3356 -0.0410  0.1277
   73CHL1  H21A 7861   2.095   3.125   7.806 -0.6583 -0.1937 -0.8832
   73CHL1  H21B 7862   2.082   2.973   7.908  1.9982 -1.0041  0.2204
   73CHL1  H21C 7863   2.051   2.970   7.727 -0.4759  0.4383  0.4332
   73CHL1   C22 7864   2.353   3.046   7.877 -0.1118 -0.5469 -0.2458
   73CHL1  H22A 7865   2.458   3.042   7.844 -0.1654  1.7451 -0.8965
   73CHL1  H22B 7866   2.329   3.151   7.905  0.4038 -0.4325 -0.2374
   73CHL1   C23 7867   2.344   2.962   8.009  0.0492  0.2423 -1.2083
   73CHL1  H23A 7868   2.249   2.978   8.063  0.6621  1.6173 -0.4877
   73CHL1  H23B 7869   2.365   2.855   7.988  1.0883  0.5239 -1.6866
   73CHL1   C24 7870   2.460   3.010   8.102 -0.2290 -0.1235 -0.6450
   73CHL1  H24A 7871   2.552   2.991   8.042 -0.1007 -0.4920 -0.3376
   73CHL1  H24B 7872   2.465   3.119   8.123  1.7805 -0.4848  1.0794
   73CHL1   C25 7873   2.471   2.946   8.244 -0.0199  0.3874  0.2140
   73CHL1   H25 7874   2.480   2.836   8.237  2.9082  0.5343  0.4185
   73CHL1   C26 7875   2.591   2.982   8.337  0.1981  0.2212  0.6745
   73CHL1  H26A 7876   2.688   2.956   8.289 -0.1122  1.3250 -0.6030
   73CHL1  H26B 7877   2.597   3.092   8.344 -0.4650  0.5349 -2.2851
   73CHL1  H26C 7878   2.585   2.942   8.440  0.4781 -2.0106 -0.1156
   73CHL1   C27 7879   2.340   2.966   8.319 -0.1560  0.4515  0.1542
   73CHL1  H27A 7880   2.251   2.937   8.258  0.1606 -1.9084  0.6963
   73CHL1  H27B 7881   2.332   2.905   8.411 -0.7745 -0.2080 -0.3177
   73CHL1  H27C 7882   2.322   3.069   8.354 -1.2403  0.5365 -0.6066
   74CHL1    C3 7883   2.044   1.887   6.841  0.0170  0.5651 -0.2280
   74CHL1    H3 7884   2.133   1.945   6.874  1.6403 -0.8879 -1.8268
   74CHL1    O3 7885   2.065   1.828   6.718 -0.4621 -0.4282  0.6616
   74CHL1   H3' 7886   1.974   1.807   6.692  0.0439 -1.7802 -0.1535
   74CHL1    C4 7887   2.036   1.774   6.949 -0.0908  0.3237 -0.3174
   74CHL1   H4A 7888   1.944   1.719   6.917  1.3668 -0.6499 -3.2699
   74CHL1   H4B 7889   2.119   1.703   6.927 -0.2749  0.8863 -3.2039
   74CHL1    C5 7890   2.007   1.822   7.088 -0.6300 -1.0444 -0.0122
   74CHL1    C6 7891   2.091   1.796   7.189  0.1887  0.3830 -0.1952
   74CHL1    H6 7892   2.182   1.735   7.181  1.3899  1.3756  3.9456
   74CHL1    C7 7893   2.062   1.836   7.331  0.5240 -0.1152  0.4171
   74CHL1   H7A 7894   2.075   1.741   7.387 -1.7110 -0.8021 -0.1541
   74CHL1   H7B 7895   2.144   1.908   7.353  1.7258 -1.2578 -0.1319
   74CHL1    C8 7896   1.917   1.900   7.354  0.1278  0.0530 -0.5873
   74CHL1    H8 7897   1.846   1.815   7.362 -0.9154  0.8789 -0.8768
   74CHL1   C14 7898   1.919   1.981   7.481 -0.3341 -0.0105  0.2772
   74CHL1   H14 7899   1.991   2.063   7.461  0.1479  0.0014  1.8956
   74CHL1   C15 7900   1.960   1.911   7.610 -1.1282  0.8998  0.4174
   74CHL1  H15A 7901   1.894   1.823   7.623 -2.7979  1.7836 -1.5881
   74CHL1  H15B 7902   2.067   1.879   7.607 -0.8826  1.2875  2.7636
   74CHL1   C16 7903   1.922   2.013   7.720 -0.4290 -0.0006  0.0058
   74CHL1  H16A 7904   1.875   1.960   7.805  1.1666 -0.5322  0.5807
   74CHL1  H16B 7905   2.005   2.083   7.742 -1.4512  0.8080  1.4400
   74CHL1   C17 7906   1.813   2.109   7.654 -0.0423  0.0564 -0.1592
   74CHL1   H17 7907   1.864   2.204   7.626 -0.3795  0.8194  1.6618
   74CHL1   C13 7908   1.782   2.050   7.514  0.0921  0.6407  0.1047
   74CHL1   C18 7909   1.673   1.938   7.524  0.5651  0.2310  0.8611
   74CHL1  H18A 7910   1.682   1.864   7.442 -0.4298  0.5615  0.4452
   74CHL1  H18B 7911   1.694   1.868   7.608  1.7038 -2.1075 -1.2281
   74CHL1  H18C 7912   1.568   1.975   7.531  0.4071  0.0666 -0.4133
   74CHL1   C12 7913   1.748   2.150   7.394  0.6513  0.2574 -1.2124
   74CHL1  H12A 7914   1.653   2.206   7.400 -0.8410 -2.1237 -1.4069
   74CHL1  H12B 7915   1.831   2.224   7.391  1.1447 -0.2067  0.0786
   74CHL1   C11 7916   1.761   2.079   7.259  0.3632 -0.1658  0.3257
   74CHL1  H11A 7917   1.665   2.027   7.234  0.8037  0.1053 -2.1492
   74CHL1  H11B 7918   1.769   2.167   7.192 -0.1710 -0.0655  0.3864
   74CHL1    C9 7919   1.887   1.993   7.237  0.3713  0.3745  0.7142
   74CHL1    H9 7920   1.974   2.063   7.239  0.7694 -0.1167  2.2097
   74CHL1   C10 7921   1.887   1.917   7.104  0.1971  1.2325 -0.0892
   74CHL1   C19 7922   1.761   1.833   7.094  0.1167  0.1343  0.1066
   74CHL1  H19A 7923   1.758   1.797   6.989  1.2414 -0.4725  0.2712
   74CHL1  H19B 7924   1.760   1.751   7.168  1.4843  0.8693  0.9759
   74CHL1  H19C 7925   1.666   1.891   7.084  0.3447  0.3502 -1.0047
   74CHL1    C1 7926   1.894   2.027   6.995 -0.2159 -0.1263 -0.3864
   74CHL1   H1A 7927   1.798   2.084   6.990  1.1871  2.4094 -0.3130
   74CHL1   H1B 7928   1.974   2.099   7.023  0.1482  0.1930 -2.0924
   74CHL1    C2 7929   1.919   1.978   6.852  0.3646  0.2817 -0.4111
   74CHL1   H2A 7930   1.918   2.073   6.795  3.4845  1.2481  0.9446
   74CHL1   H2B 7931   1.837   1.911   6.818  0.4970 -0.9213  1.4897
   74CHL1   C20 7932   1.696   2.136   7.747  0.1005 -0.7733 -0.0660
   74CHL1   H20 7933   1.632   2.046   7.759  0.8203 -1.0400  2.2643
   74CHL1   C21 7934   1.599   2.248   7.694 -0.1669 -0.8974  0.6616
   74CHL1  H21A 7935   1.511   2.259   7.761  0.7869  0.3212  1.7699
   74CHL1  H21B 7936   1.552   2.229   7.596 -2.3504  2.4679  0.8999
   74CHL1  H21C 7937   1.662   2.340   7.692  0.5052 -1.3457 -1.4164
   74CHL1   C22 7938   1.746   2.180   7.889  1.0835  0.3216 -0.1407
   74CHL1  H22A 7939   1.771   2.078   7.925 -2.0049 -1.0899 -1.5309
   74CHL1  H22B 7940   1.831   2.250   7.876  1.6770 -0.7175 -2.5206
   74CHL1   C23 7941   1.636   2.245   7.977 -0.5020 -0.0713 -0.4625
   74CHL1  H23A 7942   1.619   2.347   7.937  0.9035  0.5606  0.4863
   74CHL1  H23B 7943   1.544   2.184   7.964 -1.4385  1.0969  0.3874
   74CHL1   C24 7944   1.677   2.254   8.127 -0.4150 -0.1235  0.1142
   74CHL1  H24A 7945   1.699   2.151   8.162  2.3133  0.3907  0.1604
   74CHL1  H24B 7946   1.769   2.311   8.153  0.2636 -0.8630 -0.5770
   74CHL1   C25 7947   1.568   2.319   8.217  0.7604 -0.2066  0.5597
   74CHL1   H25 7948   1.592   2.424   8.243 -0.1818 -0.3460  2.1475
   74CHL1   C26 7949   1.426   2.340   8.158  0.2689 -0.0528 -0.5088
   74CHL1  H26A 7950   1.386   2.246   8.112  2.2875 -0.3926 -1.7028
   74CHL1  H26B 7951   1.352   2.359   8.238 -0.2785 -2.2462 -0.4087
   74CHL1  H26C 7952   1.430   2.421   8.082  0.1873  1.0986  0.6920
   74CHL1   C27 7953   1.565   2.250   8.356 -0.1019 -0.5810 -0.3663
   74CHL1  H27A 7954   1.551   2.140   8.353  2.2143 -1.0169  1.8441
   74CHL1  H27B 7955   1.668   2.264   8.395 -0.3461  0.0219  0.0898
   74CHL1  H27C 7956   1.495   2.303   8.425  1.6217 -0.8459  1.6804
   75CHL1    C3 7957   4.345   3.617   6.696  0.5752 -0.3264  0.3394
   75CHL1    H3 7958   4.391   3.716   6.716 -1.0898  1.0127 -2.0006
   75CHL1    O3 7959   4.391   3.560   6.572  0.4095  0.0977 -0.5470
   75CHL1   H3' 7960   4.359   3.469   6.569 -1.9640  0.6428  2.9139
   75CHL1    C4 7961   4.389   3.526   6.811  0.4545  0.1302  0.5426
   75CHL1   H4A 7962   4.352   3.422   6.808 -0.0437  0.3183 -0.4274
   75CHL1   H4B 7963   4.498   3.529   6.787  0.3671 -1.8103 -0.2492
   75CHL1    C5 7964   4.355   3.583   6.943  0.2432  0.0872  0.5183
   75CHL1    C6 7965   4.448   3.603   7.031  0.1356 -0.0018  0.3869
   75CHL1    H6 7966   4.550   3.565   7.015 -0.9172 -2.6108 -0.6916
   75CHL1    C7 7967   4.429   3.656   7.174 -0.4007 -0.2961  0.3923
   75CHL1   H7A 7968   4.476   3.589   7.249 -2.1292 -0.4357  1.3947
   75CHL1   H7B 7969   4.485   3.752   7.183 -1.1323  0.2514 -0.6784
   75CHL1    C8 7970   4.286   3.680   7.199 -0.2510  0.3258 -0.4754
   75CHL1    H8 7971   4.238   3.585   7.231  1.0867  0.0723  0.9047
   75CHL1   C14 7972   4.266   3.773   7.323 -0.2569 -0.0222  0.4163
   75CHL1   H14 7973   4.297   3.869   7.277 -0.0552 -1.2723 -2.2592
   75CHL1   C15 7974   4.353   3.762   7.453  0.3449 -0.3900  0.8239
   75CHL1  H15A 7975   4.363   3.653   7.473 -1.1019 -0.7853 -0.4802
   75CHL1  H15B 7976   4.454   3.801   7.426  1.1608 -2.6718  0.3734
   75CHL1   C16 7977   4.269   3.833   7.552 -0.1107 -0.3559 -0.3077
   75CHL1  H16A 7978   4.240   3.767   7.637  1.4238 -0.4352  0.1800
   75CHL1  H16B 7979   4.335   3.906   7.604 -0.5506  0.2765 -0.6211
   75CHL1   C17 7980   4.133   3.887   7.488  0.3000 -0.4991  0.0722
   75CHL1   H17 7981   4.163   3.986   7.449 -0.7500 -0.0658  0.3224
   75CHL1   C13 7982   4.121   3.794   7.365 -0.0360  0.3933 -0.6088
   75CHL1   C18 7983   4.064   3.662   7.422  0.1946 -0.3185  0.7558
   75CHL1  H18A 7984   4.055   3.579   7.348 -1.9226 -0.1875  0.7957
   75CHL1  H18B 7985   4.119   3.624   7.511  2.2527 -0.3753 -0.4903
   75CHL1  H18C 7986   3.963   3.684   7.463  0.5357 -1.0938  2.0713
   75CHL1   C12 7987   4.045   3.844   7.245 -0.1255 -0.1647  0.3673
   75CHL1  H12A 7988   3.938   3.860   7.272 -0.8428 -4.4072  0.7814
   75CHL1  H12B 7989   4.084   3.943   7.212 -1.3505  1.5013  3.4910
   75CHL1   C11 7990   4.058   3.754   7.118 -0.0122  0.2575 -0.1005
   75CHL1  H11A 7991   3.992   3.666   7.134  1.2178 -0.7115 -0.2035
   75CHL1  H11B 7992   4.014   3.814   7.035 -2.3178 -0.7729  0.2834
   75CHL1    C9 7993   4.206   3.725   7.082 -0.3824 -0.1136 -0.2074
   75CHL1    H9 7994   4.253   3.821   7.051  0.5478  0.2067  2.0184
   75CHL1   C10 7995   4.210   3.633   6.960 -0.1618 -0.5813 -0.7197
   75CHL1   C19 7996   4.117   3.508   6.980  0.7379 -0.4675 -0.0992
   75CHL1  H19A 7997   4.146   3.438   6.899 -0.9463 -1.4006  0.0453
   75CHL1  H19B 7998   4.132   3.458   7.078  1.6426  1.9772  1.0818
   75CHL1  H19C 7999   4.008   3.524   6.967  1.1597  0.1703 -4.5734
   75CHL1    C1 8000   4.165   3.720   6.837 -0.4464  0.2642  0.7020
   75CHL1   H1A 8001   4.055   3.733   6.846 -0.8208 -0.4004 -1.9558
   75CHL1   H1B 8002   4.218   3.817   6.843 -2.7433  1.8912 -2.3267
   75CHL1    C2 8003   4.194   3.654   6.702 -0.2252  0.1623  0.6072
   75CHL1   H2A 8004   4.175   3.731   6.624 -0.7641  0.7055  1.2678
   75CHL1   H2B 8005   4.130   3.566   6.683  2.2356 -1.7083  0.3726
   75CHL1   C20 8006   4.011   3.916   7.585 -1.2760  0.2928  0.4643
   75CHL1   H20 8007   3.975   3.816   7.617  1.5642 -0.4804  1.5565
   75CHL1   C21 8008   3.897   3.990   7.516 -0.1405  1.0725 -0.1126
   75CHL1  H21A 8009   3.826   4.004   7.600 -0.3763  2.0734 -0.4563
   75CHL1  H21B 8010   3.832   3.937   7.444 -2.1730  1.7037  1.1774
   75CHL1  H21C 8011   3.940   4.087   7.481  0.5235  1.2148  1.0425
   75CHL1   C22 8012   4.066   3.996   7.703  0.0669 -0.1775 -0.6085
   75CHL1  H22A 8013   4.157   4.058   7.686  0.0629 -0.1191 -0.4196
   75CHL1  H22B 8014   3.984   4.071   7.711  0.6518  0.5729 -1.4555
   75CHL1   C23 8015   4.093   3.906   7.826  0.4276  0.1590 -0.1630
   75CHL1  H23A 8016   4.000   3.898   7.887  0.5343  1.1433  0.1483
   75CHL1  H23B 8017   4.109   3.797   7.809  1.8561  0.1726  0.9410
   75CHL1   C24 8018   4.226   3.950   7.907  0.6087  0.1116  0.3764
   75CHL1  H24A 8019   4.244   3.873   7.984  1.6816 -1.2636 -1.1907
   75CHL1  H24B 8020   4.309   3.948   7.833 -1.2343 -0.4031 -1.8176
   75CHL1   C25 8021   4.211   4.087   7.981 -0.0680 -0.1409 -0.1336
   75CHL1   H25 8022   4.174   4.163   7.909 -0.4232  1.5943  1.7545
   75CHL1   C26 8023   4.115   4.074   8.105  0.0022 -0.4385 -0.2331
   75CHL1  H26A 8024   4.151   4.011   8.189  0.8617  0.1855 -0.1273
   75CHL1  H26B 8025   4.094   4.173   8.150  1.5470 -0.5781  0.8467
   75CHL1  H26C 8026   4.017   4.035   8.067 -0.9766  0.8890  0.8333
   75CHL1   C27 8027   4.348   4.130   8.030 -0.4315  0.0955 -0.4706
   75CHL1  H27A 8028   4.393   4.056   8.100  1.7181  1.8053  0.0955
   75CHL1  H27B 8029   4.419   4.162   7.950  0.1583  1.1784  0.4535
   75CHL1  H27C 8030   4.328   4.223   8.088 -0.6154  0.4139 -1.0369
   76CHL1    C3 8031   6.665   5.386   7.288  0.7982  0.4877 -0.0256
   76CHL1    H3 8032   6.558   5.392   7.317  0.5189  0.7007 -1.0605
   76CHL1    O3 8033   6.677   5.349   7.150  0.2603 -0.4212  0.0234
   76CHL1   H3' 8034   6.764   5.308   7.141 -0.6107 -2.5542  0.6593
   76CHL1    C4 8035   6.739   5.519   7.312  0.2065 -1.0293  0.5169
   76CHL1   H4A 8036   6.841   5.516   7.267 -1.4571 -2.6454 -3.6518
   76CHL1   H4B 8037   6.687   5.592   7.247  1.5273  0.9726  1.6110
   76CHL1    C5 8038   6.739   5.551   7.458 -0.3225 -0.6394 -0.3831
   76CHL1    C6 8039   6.696   5.666   7.507  0.3536 -0.0466  0.1979
   76CHL1    H6 8040   6.657   5.747   7.444  1.9020  1.1966  0.7730
   76CHL1    C7 8041   6.683   5.701   7.649  0.2449 -0.4861  0.0407
   76CHL1   H7A 8042   6.704   5.809   7.662  1.2884 -0.4360 -1.7380
   76CHL1   H7B 8043   6.577   5.678   7.673  1.0112 -3.9343  0.6597
   76CHL1    C8 8044   6.770   5.610   7.737 -0.3421 -0.1568 -0.3190
   76CHL1    H8 8045   6.874   5.646   7.721 -0.6616  0.3960 -1.2424
   76CHL1   C14 8046   6.727   5.627   7.881  0.3946  0.7852  0.1105
   76CHL1   H14 8047   6.624   5.584   7.887  0.3838  0.9753  2.1951
   76CHL1   C15 8048   6.717   5.764   7.942  0.0033 -0.1706  0.8422
   76CHL1  H15A 8049   6.808   5.825   7.924 -0.4400 -0.0953 -1.3319
   76CHL1  H15B 8050   6.652   5.839   7.892  1.7370  0.9683  0.1995
   76CHL1   C16 8051   6.704   5.747   8.093 -0.0825  0.0876  0.8216
   76CHL1  H16A 8052   6.764   5.817   8.155  0.8305  0.3365 -0.3081
   76CHL1  H16B 8053   6.600   5.759   8.130 -0.9576 -2.3732 -0.6194
   76CHL1   C17 8054   6.741   5.596   8.113  0.2183 -0.2384 -0.3148
   76CHL1   H17 8055   6.640   5.550   8.120 -0.3501  1.1285  0.8673
   76CHL1   C13 8056   6.806   5.540   7.984 -0.4498  0.6191 -0.8842
   76CHL1   C18 8057   6.961   5.584   7.979 -0.2244 -0.6177  0.1263
   76CHL1  H18A 8058   7.001   5.567   7.877 -2.0249 -0.2004 -0.6882
   76CHL1  H18B 8059   6.975   5.692   7.998  0.8196 -0.5171 -1.0821
   76CHL1  H18C 8060   7.023   5.528   8.053  1.0314 -2.5850 -2.2503
   76CHL1   C12 8061   6.790   5.393   7.946  0.6054  0.5353  0.0516
   76CHL1  H12A 8062   6.848   5.326   8.013 -1.2031  1.1905  2.4087
   76CHL1  H12B 8063   6.683   5.363   7.940  0.5890  0.8638 -3.9301
   76CHL1   C11 8064   6.828   5.367   7.796 -0.1377 -0.6378 -0.4909
   76CHL1  H11A 8065   6.939   5.379   7.793 -0.2927  0.7744 -1.8255
   76CHL1  H11B 8066   6.815   5.259   7.773 -0.8077 -0.2718 -1.9619
   76CHL1    C9 8067   6.753   5.460   7.694  0.0174  0.5932  0.5831
   76CHL1    H9 8068   6.643   5.448   7.707 -0.2345  2.7224  0.8385
   76CHL1   C10 8069   6.796   5.431   7.549 -0.3862  0.1585  0.2856
   76CHL1   C19 8070   6.951   5.417   7.533  0.4358 -0.0315 -0.0918
   76CHL1  H19A 8071   6.981   5.445   7.430 -2.5893 -0.4031 -1.1598
   76CHL1  H19B 8072   6.999   5.483   7.609  0.9645 -0.1145 -0.3490
   76CHL1  H19C 8073   6.980   5.315   7.566 -0.0160  0.0709  0.6605
   76CHL1    C1 8074   6.731   5.294   7.508 -0.2192  0.3902 -0.4542
   76CHL1   H1A 8075   6.781   5.203   7.551  1.5324  1.2875 -0.4880
   76CHL1   H1B 8076   6.625   5.309   7.536  0.2282  1.4102  0.8022
   76CHL1    C2 8077   6.728   5.269   7.356 -0.0401  0.1767 -0.7066
   76CHL1   H2A 8078   6.680   5.173   7.327  2.0452 -0.2778 -3.0025
   76CHL1   H2B 8079   6.835   5.261   7.325 -0.5736 -0.4037 -2.4938
   76CHL1   C20 8080   6.816   5.572   8.250 -0.2691  0.3138 -0.4845
   76CHL1   H20 8081   6.918   5.614   8.247  0.6341 -1.6499  0.6192
   76CHL1   C21 8082   6.823   5.424   8.272 -0.4545 -0.1476  0.0004
   76CHL1  H21A 8083   6.890   5.378   8.196  0.6987  1.9990 -0.3626
   76CHL1  H21B 8084   6.723   5.376   8.279 -0.9731  0.4564 -2.2909
   76CHL1  H21C 8085   6.879   5.405   8.366  0.8824  1.3610 -0.4495
   76CHL1   C22 8086   6.748   5.633   8.373 -0.3184 -0.1655 -0.1309
   76CHL1  H22A 8087   6.704   5.731   8.345 -3.0927 -2.0898 -3.3001
   76CHL1  H22B 8088   6.669   5.564   8.409 -0.1343  0.5427  1.7556
   76CHL1   C23 8089   6.848   5.666   8.487 -0.3371 -0.7180  0.1166
   76CHL1  H23A 8090   6.898   5.573   8.523 -1.3012 -1.2278  0.1916
   76CHL1  H23B 8091   6.925   5.732   8.443 -1.8359  1.7144  0.9017
   76CHL1   C24 8092   6.790   5.750   8.596 -0.1873  0.4508  0.0428
   76CHL1  H24A 8093   6.766   5.839   8.534  0.2967 -0.5913 -1.7103
   76CHL1  H24B 8094   6.697   5.694   8.621  0.1433  1.2042  3.4496
   76CHL1   C25 8095   6.876   5.772   8.718  0.1293  0.1829  0.1006
   76CHL1   H25 8096   6.897   5.667   8.749 -0.6077 -0.1943 -0.6372
   76CHL1   C26 8097   6.997   5.853   8.683 -0.1843  0.3781 -0.3987
   76CHL1  H26A 8098   6.960   5.954   8.658 -0.5256  0.2983 -0.2204
   76CHL1  H26B 8099   7.053   5.860   8.778  0.5325 -2.6363 -0.4931
   76CHL1  H26C 8100   7.065   5.813   8.604  0.9638  0.0960  0.6977
   76CHL1   C27 8101   6.794   5.835   8.838 -0.8428 -1.1245 -0.4754
   76CHL1  H27A 8102   6.753   5.935   8.816  0.7613 -0.6299 -1.3660
   76CHL1  H27B 8103   6.718   5.761   8.873 -4.1166  0.9087 -2.7695
   76CHL1  H27C 8104   6.872   5.843   8.917  0.3058  1.0831 -1.7711
   77CHL1    C3 8105   1.288   3.011   6.766 -0.3981  0.1672 -0.3751
   77CHL1    H3 8106   1.334   2.910   6.766 -2.1435 -0.7434 -3.0000
   77CHL1    O3 8107   1.266   3.034   6.630  0.1890  0.2220 -0.0930
   77CHL1   H3' 8108   1.193   3.096   6.636 -1.4874 -1.6203 -0.4591
   77CHL1    C4 8109   1.159   3.005   6.850  0.7465  0.2425 -0.3626
   77CHL1   H4A 8110   1.084   3.084   6.826  0.0754 -0.5237 -0.8027
   77CHL1   H4B 8111   1.106   2.910   6.829 -2.2962  1.7323  0.0075
   77CHL1    C5 8112   1.197   3.001   6.998  0.2282 -0.4665 -0.5043
   77CHL1    C6 8113   1.147   2.910   7.084  0.8190 -0.2243 -0.1384
   77CHL1    H6 8114   1.088   2.829   7.039  1.0672  0.1755 -1.2218
   77CHL1    C7 8115   1.151   2.916   7.232  0.2606  0.3195 -0.1095
   77CHL1   H7A 8116   1.050   2.895   7.273  0.3262 -1.4501 -0.7581
   77CHL1   H7B 8117   1.211   2.827   7.261 -0.1039  0.8597  2.4875
   77CHL1    C8 8118   1.205   3.043   7.293 -0.1083  0.7620  0.5435
   77CHL1    H8 8119   1.122   3.116   7.280 -0.6734 -0.0864 -0.8526
   77CHL1   C14 8120   1.266   3.020   7.430 -0.6041 -0.0738 -0.5199
   77CHL1   H14 8121   1.354   2.953   7.420 -0.8778 -0.4589 -0.3808
   77CHL1   C15 8122   1.180   2.950   7.534  0.1782 -0.5601  0.2601
   77CHL1  H15A 8123   1.082   3.002   7.527  1.1905  1.8678  2.5965
   77CHL1  H15B 8124   1.166   2.842   7.513  2.4414 -0.9034  0.2123
   77CHL1   C16 8125   1.249   2.981   7.667  0.1034  0.6931  0.4534
   77CHL1  H16A 8126   1.163   3.021   7.725 -1.2366 -0.7471 -0.4613
   77CHL1  H16B 8127   1.269   2.892   7.729 -1.1690 -1.0309 -1.4931
   77CHL1   C17 8128   1.366   3.079   7.642 -0.1608  0.2296 -0.2077
   77CHL1   H17 8129   1.464   3.027   7.637  0.1248  0.1142  3.4328
   77CHL1   C13 8130   1.335   3.140   7.498  0.0066  0.1344  0.5181
   77CHL1   C18 8131   1.235   3.256   7.502 -0.2299 -0.6521  0.9268
   77CHL1  H18A 8132   1.285   3.347   7.543 -1.8817 -0.2343  2.1268
   77CHL1  H18B 8133   1.192   3.282   7.403  0.1010 -0.9135  0.7151
   77CHL1  H18C 8134   1.151   3.245   7.573 -1.7748  0.1810 -0.7037
   77CHL1   C12 8135   1.461   3.175   7.411  0.6410 -0.0917  0.2437
   77CHL1  H12A 8136   1.504   3.272   7.444 -0.0508  0.5196 -0.6101
   77CHL1  H12B 8137   1.539   3.097   7.424  1.6147  1.0482  1.5663
   77CHL1   C11 8138   1.406   3.203   7.269  0.5095 -0.0792 -0.3627
   77CHL1  H11A 8139   1.354   3.301   7.260  0.6912 -0.0747 -1.5697
   77CHL1  H11B 8140   1.497   3.216   7.207  0.6272  0.7331 -0.0302
   77CHL1    C9 8141   1.322   3.090   7.204  0.3360  0.5410  0.1362
   77CHL1    H9 8142   1.390   3.003   7.209 -0.1719  0.1390  0.0746
   77CHL1   C10 8143   1.285   3.110   7.053  0.5680  0.2156 -0.7990
   77CHL1   C19 8144   1.208   3.248   7.032  0.3332 -0.7241 -0.0697
   77CHL1  H19A 8145   1.263   3.333   7.076 -2.1757 -0.5608  3.0649
   77CHL1  H19B 8146   1.180   3.268   6.926 -2.2366 -2.0062  0.2813
   77CHL1  H19C 8147   1.109   3.248   7.082 -0.3107  0.8616 -1.2674
   77CHL1    C1 8148   1.407   3.100   6.966 -0.1747 -0.5767 -0.1266
   77CHL1   H1A 8149   1.465   3.190   6.994 -1.1784 -0.5941  2.2366
   77CHL1   H1B 8150   1.460   3.004   6.985  0.6206 -0.3270 -1.0348
   77CHL1    C2 8151   1.383   3.127   6.816 -0.1103 -0.4860 -1.0099
   77CHL1   H2A 8152   1.481   3.123   6.764  0.1051  0.4301 -0.6938
   77CHL1   H2B 8153   1.330   3.223   6.799 -0.3990 -0.4853 -0.1731
   77CHL1   C20 8154   1.383   3.172   7.763 -0.3745  0.0986  0.2696
   77CHL1   H20 8155   1.301   3.247   7.768  2.0275  2.8859  1.4384
   77CHL1   C21 8156   1.513   3.251   7.752 -0.1277  0.2532 -0.0255
   77CHL1  H21A 8157   1.584   3.168   7.771 -3.4140 -2.6212  0.6611
   77CHL1  H21B 8158   1.528   3.314   7.842  2.6146 -1.1580  0.6098
   77CHL1  H21C 8159   1.522   3.312   7.659 -0.3884 -0.2242 -0.3688
   77CHL1   C22 8160   1.381   3.093   7.898 -0.4603  0.3842  0.9058
   77CHL1  H22A 8161   1.282   3.044   7.897 -0.7848  1.0112  1.5090
   77CHL1  H22B 8162   1.465   3.020   7.904 -1.2660 -0.7334 -0.6048
   77CHL1   C23 8163   1.410   3.176   8.031  0.9498  0.5225  0.0309
   77CHL1  H23A 8164   1.515   3.212   8.034  0.4711  1.9555  0.5749
   77CHL1  H23B 8165   1.359   3.275   8.034  2.5759  1.3754  1.9720
   77CHL1   C24 8166   1.369   3.088   8.151 -0.9218  0.4983  0.2040
   77CHL1  H24A 8167   1.260   3.068   8.156 -0.5258 -1.6095  2.1695
   77CHL1  H24B 8168   1.422   2.991   8.149 -1.6298  0.0812  1.3222
   77CHL1   C25 8169   1.424   3.156   8.277  0.6923 -0.2761 -0.2632
   77CHL1   H25 8170   1.535   3.150   8.276  0.6853 -3.6095  2.3996
   77CHL1   C26 8171   1.397   3.311   8.284  0.0318 -0.2314 -0.8971
   77CHL1  H26A 8172   1.453   3.359   8.201  2.0657 -2.3213 -0.8512
   77CHL1  H26B 8173   1.289   3.323   8.261  0.1995  0.4785 -1.3518
   77CHL1  H26C 8174   1.433   3.356   8.378 -1.9057  0.2392 -0.3355
   77CHL1   C27 8175   1.388   3.078   8.401  0.0405  0.3416  0.0864
   77CHL1  H27A 8176   1.396   2.969   8.377  1.1101  0.2728  0.6940
   77CHL1  H27B 8177   1.460   3.102   8.482  1.2499 -0.9514 -0.5396
   77CHL1  H27C 8178   1.283   3.095   8.430  0.2173  0.2770  0.7700
   78CHL1    C3 8179   5.756   4.089   6.592 -0.0874  0.4147 -0.2475
   78CHL1    H3 8180   5.651   4.071   6.563 -0.1027 -1.8943  0.9844
   78CHL1    O3 8181   5.830   4.109   6.477  0.2591  0.4323  0.2573
   78CHL1   H3' 8182   5.916   4.139   6.509 -1.1157  2.2864  2.5247
   78CHL1    C4 8183   5.775   4.206   6.685 -0.4968 -0.2509 -0.9452
   78CHL1   H4A 8184   5.879   4.245   6.678  0.0170 -1.0194  1.5114
   78CHL1   H4B 8185   5.713   4.286   6.639  1.0776  1.3382 -0.4048
   78CHL1    C5 8186   5.730   4.177   6.827 -1.1822  0.5450 -0.1679
   78CHL1    C6 8187   5.645   4.257   6.892 -0.2398  0.2968  0.5245
   78CHL1    H6 8188   5.601   4.345   6.843  0.6428  1.7433  2.1943
   78CHL1    C7 8189   5.601   4.256   7.036 -0.1848  0.0355  0.4759
   78CHL1   H7A 8190   5.617   4.359   7.075  2.2993  0.0310 -0.4048
   78CHL1   H7B 8191   5.492   4.242   7.050 -0.1464  0.6277  1.4511
   78CHL1    C8 8192   5.677   4.145   7.106  0.0320 -0.4925  0.2833
   78CHL1    H8 8193   5.778   4.184   7.131  0.6049 -0.4462 -1.9377
   78CHL1   C14 8194   5.609   4.109   7.237  0.3411 -0.3987 -0.1688
   78CHL1   H14 8195   5.509   4.069   7.208 -0.0757 -0.3629  1.1425
   78CHL1   C15 8196   5.579   4.228   7.336 -0.0277  0.1462  0.9026
   78CHL1  H15A 8197   5.670   4.292   7.338  0.2468 -0.2100  0.1417
   78CHL1  H15B 8198   5.497   4.295   7.301  0.6496  1.1982  1.2685
   78CHL1   C16 8199   5.559   4.157   7.471  0.6030 -0.3862 -0.3691
   78CHL1  H16A 8200   5.622   4.189   7.556  0.4673 -2.0117  0.3719
   78CHL1  H16B 8201   5.454   4.172   7.506  0.6481  0.6077 -0.6114
   78CHL1   C17 8202   5.597   4.012   7.450 -0.3213 -0.0650 -0.4750
   78CHL1   H17 8203   5.499   3.965   7.428 -0.5289  1.4667 -3.4244
   78CHL1   C13 8204   5.683   4.005   7.323  0.2542 -1.3087 -0.5377
   78CHL1   C18 8205   5.823   4.049   7.356 -0.3572 -0.2630 -0.0047
   78CHL1  H18A 8206   5.887   3.970   7.399  0.8783  0.8390  0.2590
   78CHL1  H18B 8207   5.880   4.079   7.265 -1.3196 -1.0558 -0.8924
   78CHL1  H18C 8208   5.830   4.132   7.429  1.8727  1.1423 -1.6570
   78CHL1   C12 8209   5.676   3.878   7.239  0.3154 -0.2148  0.1693
   78CHL1  H12A 8210   5.721   3.785   7.279  1.2657  0.5998  1.0531
   78CHL1  H12B 8211   5.570   3.862   7.210 -0.0425  1.6008  0.3264
   78CHL1   C11 8212   5.754   3.904   7.102 -0.3694  0.3218 -0.6144
   78CHL1  H11A 8213   5.861   3.918   7.128 -0.8054  1.4021  0.7239
   78CHL1  H11B 8214   5.752   3.809   7.044  0.2747  0.3342 -0.6709
   78CHL1    C9 8215   5.704   4.020   7.020  0.4842 -1.6576 -0.2963
   78CHL1    H9 8216   5.600   3.988   6.998 -0.7764  0.6071  1.7802
   78CHL1   C10 8217   5.782   4.045   6.886  0.2158 -0.4449 -0.6742
   78CHL1   C19 8218   5.934   4.052   6.915 -0.2105 -0.4805  0.4650
   78CHL1  H19A 8219   5.944   4.107   7.011 -0.5633 -0.4711  0.4972
   78CHL1  H19B 8220   5.984   3.954   6.932 -0.7177 -0.4782  2.2262
   78CHL1  H19C 8221   5.980   4.103   6.828 -1.1569 -0.1070  0.1745
   78CHL1    C1 8222   5.759   3.923   6.793 -0.6587 -0.2976 -0.3109
   78CHL1   H1A 8223   5.794   3.834   6.849 -2.8254 -0.3429  1.0664
   78CHL1   H1B 8224   5.650   3.905   6.782 -0.6804 -2.4041  2.3522
   78CHL1    C2 8225   5.813   3.958   6.652  0.0210 -0.3767  0.3149
   78CHL1   H2A 8226   5.788   3.883   6.573  0.6643  0.8267 -1.0745
   78CHL1   H2B 8227   5.923   3.969   6.663  0.3124 -3.6858  2.2820
   78CHL1   C20 8228   5.646   3.940   7.573  0.0875 -0.5278 -0.5138
   78CHL1   H20 8229   5.739   3.989   7.609 -0.3697  1.2603 -1.6199
   78CHL1   C21 8230   5.679   3.792   7.552 -0.1736  0.2579  0.6171
   78CHL1  H21A 8231   5.757   3.785   7.473 -0.3056  0.4665  0.4698
   78CHL1  H21B 8232   5.591   3.732   7.522  0.6307  0.6410 -2.9443
   78CHL1  H21C 8233   5.724   3.752   7.646  0.5232 -0.4877 -0.0174
   78CHL1   C22 8234   5.550   3.953   7.703  0.4534  0.6668 -0.0560
   78CHL1  H22A 8235   5.600   3.933   7.800 -0.9607 -0.6548  0.4322
   78CHL1  H22B 8236   5.518   4.060   7.710 -0.4775  0.3700  0.3068
   78CHL1   C23 8237   5.432   3.863   7.700 -0.6505  0.0061 -0.7900
   78CHL1  H23A 8238   5.394   3.851   7.596 -1.3372 -2.3547 -0.3424
   78CHL1  H23B 8239   5.468   3.763   7.732 -0.1549 -0.5352 -2.8788
   78CHL1   C24 8240   5.317   3.908   7.798  0.4179  0.1608  0.5728
   78CHL1  H24A 8241   5.349   3.887   7.902 -0.8614  0.9115  1.1444
   78CHL1  H24B 8242   5.309   4.018   7.781 -0.1540 -0.2783 -2.6360
   78CHL1   C25 8243   5.181   3.848   7.782  0.4331 -0.2013  0.0182
   78CHL1   H25 8244   5.193   3.738   7.779 -1.3335 -0.4474  0.6721
   78CHL1   C26 8245   5.085   3.891   7.900 -0.0125  0.3173 -0.1847
   78CHL1  H26A 8246   4.979   3.866   7.879  0.1101  0.4323 -0.9642
   78CHL1  H26B 8247   5.119   3.841   7.993 -2.6857  0.2146  0.8416
   78CHL1  H26C 8248   5.089   4.000   7.921 -1.6183  0.8711 -2.3761
   78CHL1   C27 8249   5.118   3.890   7.651 -0.2393 -0.5197 -0.1734
   78CHL1  H27A 8250   5.049   3.975   7.672  0.4039 -0.2475  0.9791
   78CHL1  H27B 8251   5.198   3.920   7.581 -1.0635  1.5163 -0.3096
   78CHL1  H27C 8252   5.061   3.805   7.609 -0.6838 -0.0159 -0.6012
   79CHL1    C3 8253   1.677   4.429   7.151 -0.1820 -0.2540  0.0984
   79CHL1    H3 8254   1.729   4.331   7.147 -0.1600 -0.2350 -0.0617
   79CHL1    O3 8255   1.666   4.481   7.020  0.3108 -0.3612  0.2385
   79CHL1   H3' 8256   1.620   4.411   6.973  0.6911 -0.6304  0.2600
   79CHL1    C4 8257   1.533   4.424   7.204  0.6074 -0.1499  0.1021
   79CHL1   H4A 8258   1.486   4.524   7.189 -1.6325 -1.3011 -1.0474
   79CHL1   H4B 8259   1.476   4.357   7.137 -1.5416  0.7850  0.8903
   79CHL1    C5 8260   1.530   4.380   7.348  0.4453 -0.1519  0.0190
   79CHL1    C6 8261   1.464   4.268   7.386 -0.4685  0.6772 -0.3616
   79CHL1    H6 8262   1.395   4.218   7.317 -0.2680  0.2624 -0.2700
   79CHL1    C7 8263   1.455   4.220   7.525  0.1555  0.6700 -0.1551
   79CHL1   H7A 8264   1.353   4.192   7.561  1.7762 -4.2867  1.4536
   79CHL1   H7B 8265   1.513   4.128   7.548 -2.9667 -1.2178  0.7425
   79CHL1    C8 8266   1.498   4.328   7.630  0.8034 -0.0804 -0.3674
   79CHL1    H8 8267   1.416   4.402   7.623 -1.2991 -2.1121  1.3263
   79CHL1   C14 8268   1.492   4.267   7.768 -0.4249  0.3983  0.3681
   79CHL1   H14 8269   1.553   4.174   7.763  0.7763  1.2257 -1.8184
   79CHL1   C15 8270   1.363   4.217   7.827 -0.0014 -0.3587 -0.1821
   79CHL1  H15A 8271   1.277   4.283   7.801 -1.0068 -2.5228 -2.8631
   79CHL1  H15B 8272   1.333   4.116   7.793  1.1727 -0.3759 -1.2576
   79CHL1   C16 8273   1.383   4.215   7.978 -0.6012  0.4718 -0.0105
   79CHL1  H16A 8274   1.310   4.288   8.018 -1.8698 -0.0952 -1.2071
   79CHL1  H16B 8275   1.362   4.111   8.012 -2.0691  0.3135 -1.2861
   79CHL1   C17 8276   1.536   4.268   7.998  0.9648  0.0479  0.0876
   79CHL1   H17 8277   1.602   4.179   7.986 -0.4282 -1.1212  0.8425
   79CHL1   C13 8278   1.547   4.347   7.869 -0.5628 -0.1896 -0.8605
   79CHL1   C18 8279   1.466   4.479   7.881 -0.0694 -0.8708  0.0182
   79CHL1  H18A 8280   1.446   4.538   7.789  2.8856 -1.0972 -0.8951
   79CHL1  H18B 8281   1.367   4.464   7.928 -0.4823 -0.0942 -0.5761
   79CHL1  H18C 8282   1.517   4.547   7.953  0.9007 -0.5599 -0.9264
   79CHL1   C12 8283   1.695   4.376   7.835  0.8488 -0.0820  0.1410
   79CHL1  H12A 8284   1.754   4.434   7.909  2.6659  0.7251 -1.8194
   79CHL1  H12B 8285   1.744   4.278   7.816 -1.7529 -0.9814 -2.6231
   79CHL1   C11 8286   1.697   4.463   7.698 -0.8687 -0.2084  0.5223
   79CHL1  H11A 8287   1.654   4.560   7.729  1.6574  0.6607  1.5979
   79CHL1  H11B 8288   1.807   4.474   7.683 -1.1580  1.6218 -0.5682
   79CHL1    C9 8289   1.628   4.390   7.583 -0.6052  0.1661 -0.5007
   79CHL1    H9 8290   1.693   4.300   7.574 -0.0997  0.5334 -0.5714
   79CHL1   C10 8291   1.617   4.460   7.443  0.1587  0.4959 -0.1680
   79CHL1   C19 8292   1.556   4.603   7.472 -0.1773  0.4014  0.1041
   79CHL1  H19A 8293   1.632   4.672   7.513  0.4540  0.4990 -1.1735
   79CHL1  H19B 8294   1.509   4.643   7.379  0.0583 -0.4400 -0.3923
   79CHL1  H19C 8295   1.472   4.593   7.544  1.0896 -2.0426  1.3800
   79CHL1    C1 8296   1.754   4.493   7.382 -0.0626 -0.1105  0.2132
   79CHL1   H1A 8297   1.802   4.573   7.443 -0.7470 -0.5435  1.3422
   79CHL1   H1B 8298   1.806   4.395   7.385  2.2202  0.8928 -2.1271
   79CHL1    C2 8299   1.751   4.528   7.233 -0.1193  0.0129 -0.2124
   79CHL1   H2A 8300   1.854   4.516   7.195  0.8716 -0.1332  2.3212
   79CHL1   H2B 8301   1.711   4.631   7.222  0.5100  0.4657  1.4612
   79CHL1   C20 8302   1.565   4.334   8.130  0.2111  0.2640  0.1930
   79CHL1   H20 8303   1.640   4.413   8.104 -2.4983  2.9578  0.0119
   79CHL1   C21 8304   1.637   4.226   8.214 -0.7972  0.7016  0.1456
   79CHL1  H21A 8305   1.561   4.145   8.219 -0.1335 -0.0191 -0.9581
   79CHL1  H21B 8306   1.672   4.256   8.315  1.5492 -0.1791 -0.3504
   79CHL1  H21C 8307   1.722   4.185   8.156 -1.0038  0.6655 -0.1398
   79CHL1   C22 8308   1.452   4.387   8.222  0.2277 -0.5670 -0.3054
   79CHL1  H22A 8309   1.372   4.422   8.153 -2.1057 -1.8141  1.6144
   79CHL1  H22B 8310   1.389   4.320   8.285 -0.7929 -0.6116 -1.3266
   79CHL1   C23 8311   1.496   4.507   8.311  0.1917  0.0121 -0.1318
   79CHL1  H23A 8312   1.566   4.465   8.386  0.2544 -1.7053 -1.1089
   79CHL1  H23B 8313   1.553   4.580   8.250 -0.0291 -1.2497 -1.9238
   79CHL1   C24 8314   1.373   4.571   8.376 -0.9878  0.3754 -0.3541
   79CHL1  H24A 8315   1.305   4.591   8.291 -1.1437  2.0773  0.1455
   79CHL1  H24B 8316   1.329   4.497   8.447 -0.0124  1.2620  1.2267
   79CHL1   C25 8317   1.397   4.697   8.455 -0.4496 -0.7741 -0.0768
   79CHL1   H25 8318   1.431   4.782   8.392  1.5050  0.2818  2.2172
   79CHL1   C26 8319   1.268   4.734   8.528  0.0624  0.9807  0.7879
   79CHL1  H26A 8320   1.262   4.839   8.562  1.3530  1.6119 -0.7972
   79CHL1  H26B 8321   1.189   4.724   8.450  0.9866 -1.5077  0.0699
   79CHL1  H26C 8322   1.249   4.670   8.617 -2.0691 -1.4048 -1.1910
   79CHL1   C27 8323   1.513   4.692   8.560 -0.0171 -0.0480  0.0091
   79CHL1  H27A 8324   1.493   4.777   8.628  2.3730  0.0578  0.6554
   79CHL1  H27B 8325   1.521   4.605   8.629  0.5117  2.3110  3.1351
   79CHL1  H27C 8326   1.611   4.697   8.509  0.3500  0.2838  0.7316
   80CHL1    C3 8327   1.360   2.624   6.934 -0.1879  0.5737 -0.6708
   80CHL1    H3 8328   1.302   2.712   6.968  0.2258 -0.4237  3.0299
   80CHL1    O3 8329   1.319   2.594   6.796 -0.3615  0.6721  0.2937
   80CHL1   H3' 8330   1.371   2.519   6.766 -0.9572  0.7072 -0.8402
   80CHL1    C4 8331   1.518   2.648   6.939 -0.1946 -0.0815  0.6322
   80CHL1   H4A 8332   1.577   2.558   6.910  1.2982  0.6986  1.1111
   80CHL1   H4B 8333   1.536   2.735   6.872  0.1463 -1.2707 -0.8810
   80CHL1    C5 8334   1.561   2.686   7.082  0.3742  0.1592  0.5336
   80CHL1    C6 8335   1.627   2.803   7.114  0.4749 -0.2101  0.3559
   80CHL1    H6 8336   1.655   2.867   7.029  0.7438 -2.0410 -1.0026
   80CHL1    C7 8337   1.667   2.842   7.249 -0.0291  0.5973 -0.2816
   80CHL1   H7A 8338   1.768   2.888   7.245  0.8036 -1.1551 -0.6129
   80CHL1   H7B 8339   1.600   2.929   7.264 -0.8807  0.2957 -2.1026
   80CHL1    C8 8340   1.651   2.734   7.359  0.3325  0.3134 -0.2039
   80CHL1    H8 8341   1.737   2.664   7.352  1.3081  1.3463  0.9925
   80CHL1   C14 8342   1.659   2.799   7.497 -0.1200  1.0107 -0.1761
   80CHL1   H14 8343   1.582   2.879   7.494 -0.2305  0.9666  0.8181
   80CHL1   C15 8344   1.786   2.875   7.537 -0.1229 -0.5485 -0.1365
   80CHL1  H15A 8345   1.881   2.816   7.535  0.6357  0.5728  1.0019
   80CHL1  H15B 8346   1.792   2.968   7.477 -1.9893 -0.2563  0.0931
   80CHL1   C16 8347   1.754   2.904   7.685  0.3018 -0.1106  0.3384
   80CHL1  H16A 8348   1.846   2.917   7.745  0.9006 -2.4460  0.0251
   80CHL1  H16B 8349   1.695   2.998   7.691 -0.8000 -0.8035  0.8839
   80CHL1   C17 8350   1.647   2.798   7.729  0.1970 -0.1984  0.0121
   80CHL1   H17 8351   1.554   2.858   7.726  0.9891  1.0951  0.3557
   80CHL1   C13 8352   1.633   2.702   7.610 -0.6597  0.2337 -0.2778
   80CHL1   C18 8353   1.747   2.597   7.633 -0.2211 -0.2691 -0.1750
   80CHL1  H18A 8354   1.848   2.644   7.635 -0.7448  0.8973 -0.2499
   80CHL1  H18B 8355   1.727   2.546   7.730 -0.5182 -0.4562 -0.3313
   80CHL1  H18C 8356   1.747   2.522   7.551  2.6828 -2.3174  1.5100
   80CHL1   C12 8357   1.497   2.632   7.589  0.1900 -0.0329 -0.0777
   80CHL1  H12A 8358   1.488   2.556   7.670  0.1802 -1.2527 -1.1828
   80CHL1  H12B 8359   1.417   2.708   7.602  0.7865  0.4906  0.6445
   80CHL1   C11 8360   1.489   2.560   7.454 -0.4144 -0.5184  0.4400
   80CHL1  H11A 8361   1.564   2.478   7.451 -0.7467 -0.8050 -0.0005
   80CHL1  H11B 8362   1.389   2.515   7.437 -1.7736  2.6980 -0.7707
   80CHL1    C9 8363   1.522   2.658   7.334 -0.2476 -0.7873 -0.3492
   80CHL1    H9 8364   1.448   2.741   7.327  0.6725 -0.0748 -2.5423
   80CHL1   C10 8365   1.514   2.592   7.194 -0.1838  0.7642  0.0237
   80CHL1   C19 8366   1.601   2.468   7.178  0.2514 -0.6383  0.1013
   80CHL1  H19A 8367   1.570   2.401   7.261 -1.3508 -0.5833 -0.4097
   80CHL1  H19B 8368   1.584   2.415   7.082  0.0985  0.0369 -0.2509
   80CHL1  H19C 8369   1.707   2.500   7.185  0.1464 -0.0068 -0.9424
   80CHL1    C1 8370   1.367   2.554   7.169  0.3476 -0.3776 -0.1808
   80CHL1   H1A 8371   1.339   2.476   7.243 -1.4217 -0.6777 -1.1027
   80CHL1   H1B 8372   1.307   2.640   7.205  1.7404  0.6389 -0.2072
   80CHL1    C2 8373   1.325   2.510   7.023 -0.1325 -0.5045  0.0031
   80CHL1   H2A 8374   1.216   2.491   7.008 -0.1431  0.7237 -1.7189
   80CHL1   H2B 8375   1.377   2.417   6.992 -0.2702 -0.1234 -1.4065
   80CHL1   C20 8376   1.672   2.750   7.872  0.5070 -0.2494  0.0531
   80CHL1   H20 8377   1.767   2.692   7.874 -0.2000 -1.4372  0.0157
   80CHL1   C21 8378   1.561   2.651   7.927  0.0535  0.8069  0.3554
   80CHL1  H21A 8379   1.581   2.618   8.031 -0.4496  0.2931  0.2930
   80CHL1  H21B 8380   1.569   2.561   7.863 -0.1441  0.6943  0.4859
   80CHL1  H21C 8381   1.456   2.688   7.920 -0.5787 -0.6448  1.5561
   80CHL1   C22 8382   1.689   2.874   7.970  0.0793  0.6306 -0.0270
   80CHL1  H22A 8383   1.701   2.975   7.926  2.7839  0.9297  1.2405
   80CHL1  H22B 8384   1.592   2.875   8.024 -0.8117 -0.9197 -1.4695
   80CHL1   C23 8385   1.803   2.857   8.074 -0.0561 -0.3047 -0.0881
   80CHL1  H23A 8386   1.806   2.761   8.130  0.9591  0.2858  0.9358
   80CHL1  H23B 8387   1.895   2.859   8.013 -0.5592 -1.7513 -0.9512
   80CHL1   C24 8388   1.790   2.975   8.171  0.1405 -0.3811 -1.4966
   80CHL1  H24A 8389   1.823   3.073   8.131  0.1402  1.1899  1.9610
   80CHL1  H24B 8390   1.690   2.998   8.213  0.0963  2.4369 -2.9725
   80CHL1   C25 8391   1.887   2.956   8.294 -0.3400  0.5874  0.1311
   80CHL1   H25 8392   1.979   2.927   8.240 -1.4082 -0.3302 -1.2787
   80CHL1   C26 8393   1.904   3.090   8.364  0.1141 -0.8127 -0.7597
   80CHL1  H26A 8394   1.985   3.095   8.439  0.4813  0.5143 -1.2068
   80CHL1  H26B 8395   1.929   3.166   8.287 -0.3553 -0.8920 -0.9957
   80CHL1  H26C 8396   1.809   3.126   8.408 -0.1134 -2.0629 -0.2038
   80CHL1   C27 8397   1.855   2.840   8.394 -0.0644 -0.9263  0.4088
   80CHL1  H27A 8398   1.875   2.743   8.344  0.7114  0.4462 -2.1355
   80CHL1  H27B 8399   1.928   2.855   8.477 -1.5051  0.5353  1.4670
   80CHL1  H27C 8400   1.750   2.842   8.431 -0.0198 -1.3576  0.5728
   81CHL1    C3 8401   4.767   1.768   6.576  0.7529  0.5190 -0.3861
   81CHL1    H3 8402   4.662   1.762   6.610  0.8529  1.4077  0.0950
   81CHL1    O3 8403   4.776   1.782   6.439  0.3780  0.0810  0.3138
   81CHL1   H3' 8404   4.860   1.742   6.415  0.8223  0.5298  1.0782
   81CHL1    C4 8405   4.837   1.891   6.656  0.1059  1.0561 -0.1235
   81CHL1   H4A 8406   4.942   1.891   6.621  0.0323 -2.6489 -0.7611
   81CHL1   H4B 8407   4.787   1.978   6.609  0.0918  1.0561 -0.1084
   81CHL1    C5 8408   4.807   1.861   6.798 -0.1664  0.3190 -0.0660
   81CHL1    C6 8409   4.744   1.950   6.875  0.1557  0.0171  0.1957
   81CHL1    H6 8410   4.716   2.045   6.829 -2.2354 -1.3177 -1.3309
   81CHL1    C7 8411   4.719   1.926   7.019  0.0965 -0.0135  0.2431
   81CHL1   H7A 8412   4.717   2.018   7.082 -2.0630 -0.1979  0.5059
   81CHL1   H7B 8413   4.619   1.881   7.032  0.6330 -0.9724  1.2424
   81CHL1    C8 8414   4.807   1.814   7.086 -0.5566  0.0279  0.7326
   81CHL1    H8 8415   4.912   1.847   7.100  0.7045 -2.5977 -1.3705
   81CHL1   C14 8416   4.756   1.769   7.223  0.0136  0.9844 -0.5737
   81CHL1   H14 8417   4.652   1.734   7.207 -0.5513  0.1619  3.7134
   81CHL1   C15 8418   4.734   1.875   7.335 -1.3836 -0.4951  0.8946
   81CHL1  H15A 8419   4.816   1.949   7.346 -0.3842 -0.2463 -4.9817
   81CHL1  H15B 8420   4.638   1.930   7.324 -0.7680  0.7212  1.4484
   81CHL1   C16 8421   4.715   1.789   7.456  0.0000  0.3518 -0.4241
   81CHL1  H16A 8422   4.775   1.838   7.536  2.5918 -1.3369 -1.2243
   81CHL1  H16B 8423   4.608   1.800   7.486 -0.8996  2.2980 -3.7487
   81CHL1   C17 8424   4.751   1.646   7.418 -0.1684  0.2074  0.0063
   81CHL1   H17 8425   4.655   1.593   7.398 -0.5905  0.2815  1.6624
   81CHL1   C13 8426   4.829   1.655   7.285  0.5329 -0.2960  0.2210
   81CHL1   C18 8427   4.978   1.684   7.306 -0.2372 -0.5874  0.0168
   81CHL1  H18A 8428   4.992   1.755   7.391 -2.1900  0.6362 -0.5960
   81CHL1  H18B 8429   5.029   1.590   7.335 -0.0774 -0.7103 -0.6639
   81CHL1  H18C 8430   5.024   1.729   7.216  1.1939  0.6650  1.2983
   81CHL1   C12 8431   4.814   1.536   7.191 -0.5323  0.0934  0.5524
   81CHL1  H12A 8432   4.870   1.449   7.232  0.2144 -0.0723 -0.7840
   81CHL1  H12B 8433   4.706   1.507   7.196 -0.2401 -1.1409  0.1713
   81CHL1   C11 8434   4.865   1.556   7.049 -0.8745 -0.0623 -0.6586
   81CHL1  H11A 8435   4.974   1.535   7.044 -0.6084  0.8496  0.7167
   81CHL1  H11B 8436   4.823   1.473   6.990 -1.6161 -0.0407 -0.1646
   81CHL1    C9 8437   4.807   1.690   6.989  0.2111 -0.3938 -0.2988
   81CHL1    H9 8438   4.699   1.668   6.978 -0.0577  0.4926  0.4448
   81CHL1   C10 8439   4.850   1.725   6.846 -0.2728  0.2284 -0.2284
   81CHL1   C19 8440   5.005   1.735   6.852 -0.5011  0.2157  0.1115
   81CHL1  H19A 8441   5.045   1.645   6.904 -2.1076 -0.4987  0.1705
   81CHL1  H19B 8442   5.049   1.724   6.751  2.0599  2.0993  0.9205
   81CHL1  H19C 8443   5.043   1.824   6.906  1.5967 -0.7208  0.2767
   81CHL1    C1 8444   4.812   1.602   6.744  0.6478  0.9943  0.5236
   81CHL1   H1A 8445   4.872   1.511   6.766 -0.6852 -0.3233 -1.0662
   81CHL1   H1B 8446   4.705   1.575   6.752  0.6651 -0.4152 -2.5321
   81CHL1    C2 8447   4.829   1.633   6.598 -0.2264 -0.2821 -0.1564
   81CHL1   H2A 8448   4.792   1.553   6.530 -0.1591  1.9224 -2.9366
   81CHL1   H2B 8449   4.937   1.642   6.574  0.0656 -0.5223  0.9984
   81CHL1   C20 8450   4.818   1.566   7.537 -0.3553  0.3915  0.4130
   81CHL1   H20 8451   4.927   1.589   7.543 -0.5258  1.1424  0.6538
   81CHL1   C21 8452   4.797   1.420   7.506 -0.0768  0.2969  0.4335
   81CHL1  H21A 8453   4.795   1.398   7.398 -0.0919  0.1443  0.4643
   81CHL1  H21B 8454   4.694   1.387   7.531 -0.0170 -0.6197 -0.4996
   81CHL1  H21C 8455   4.868   1.358   7.565 -1.6041  0.1896  2.2525
   81CHL1   C22 8456   4.746   1.592   7.667 -0.0181 -0.5369 -0.3339
   81CHL1  H22A 8457   4.771   1.694   7.705 -1.3795 -0.9984  1.9477
   81CHL1  H22B 8458   4.639   1.588   7.638  0.2901 -1.6256 -1.4074
   81CHL1   C23 8459   4.764   1.497   7.783  0.8590  0.3157  0.3586
   81CHL1  H23A 8460   4.718   1.399   7.759  1.0275  0.4949 -0.7818
   81CHL1  H23B 8461   4.870   1.466   7.796  0.0789 -2.3080  1.1210
   81CHL1   C24 8462   4.708   1.549   7.911 -0.4947  0.6999  0.2843
   81CHL1  H24A 8463   4.755   1.643   7.949 -1.3045  1.8506 -1.4120
   81CHL1  H24B 8464   4.599   1.569   7.899 -1.1635 -3.6671 -3.3658
   81CHL1   C25 8465   4.722   1.437   8.017  0.0452 -0.2822  0.2548
   81CHL1   H25 8466   4.819   1.383   8.005  0.0491 -0.1136 -0.5003
   81CHL1   C26 8467   4.721   1.499   8.155  0.2288 -0.1793 -0.3747
   81CHL1  H26A 8468   4.727   1.423   8.235 -2.0440  1.7169  1.7729
   81CHL1  H26B 8469   4.798   1.579   8.164  1.1885 -1.2090  1.1760
   81CHL1  H26C 8470   4.623   1.541   8.187  1.0997  0.0783  2.1992
   81CHL1   C27 8471   4.609   1.335   7.987  0.4081 -0.0655  0.0524
   81CHL1  H27A 8472   4.648   1.271   7.905 -1.8585 -0.8124 -0.5307
   81CHL1  H27B 8473   4.581   1.270   8.073 -1.3389 -0.9046 -1.0856
   81CHL1  H27C 8474   4.520   1.393   7.954 -1.1493 -2.0710  0.5421
   82CHL1    C3 8475   6.426   2.127   6.931  0.2911  0.4922 -0.6457
   82CHL1    H3 8476   6.334   2.111   6.992  1.6862  1.3072  1.8405
   82CHL1    O3 8477   6.394   2.106   6.798  0.4547 -0.2188  0.5803
   82CHL1   H3' 8478   6.373   2.185   6.747  2.0087 -0.7795 -1.0096
   82CHL1    C4 8479   6.488   2.268   6.938  0.0963 -1.0452 -0.2632
   82CHL1   H4A 8480   6.568   2.269   6.861  1.2427  0.4239  0.9068
   82CHL1   H4B 8481   6.402   2.330   6.905 -0.2002 -2.8278 -3.3093
   82CHL1    C5 8482   6.543   2.292   7.080 -0.3987  0.0902  0.2261
   82CHL1    C6 8483   6.497   2.396   7.149  0.9400  0.2891  0.6418
   82CHL1    H6 8484   6.427   2.468   7.103  1.5469  0.7587  0.4438
   82CHL1    C7 8485   6.548   2.435   7.279 -0.1084 -0.4665  0.6266
   82CHL1   H7A 8486   6.574   2.543   7.282  2.5728 -0.9569 -1.3914
   82CHL1   H7B 8487   6.465   2.416   7.351  0.9646  0.7583  2.2585
   82CHL1    C8 8488   6.671   2.362   7.326  0.0752 -0.5046  0.0592
   82CHL1    H8 8489   6.761   2.388   7.267  0.4060 -1.5827  0.0646
   82CHL1   C14 8490   6.693   2.376   7.475 -0.0042  0.0880  0.5353
   82CHL1   H14 8491   6.604   2.332   7.524  0.4005 -0.4923  0.7632
   82CHL1   C15 8492   6.700   2.520   7.536 -0.0805  0.4982  0.7916
   82CHL1  H15A 8493   6.761   2.588   7.472 -0.0941  0.0389  0.2864
   82CHL1  H15B 8494   6.595   2.557   7.533  0.0905  1.0955 -2.8378
   82CHL1   C16 8495   6.774   2.495   7.664  1.0093 -0.1704  0.4815
   82CHL1  H16A 8496   6.865   2.558   7.675 -0.2329  1.8892 -0.3326
   82CHL1  H16B 8497   6.701   2.524   7.742  1.1234  1.5468 -0.0029
   82CHL1   C17 8498   6.804   2.342   7.678 -0.0978  0.0054  0.3926
   82CHL1   H17 8499   6.718   2.293   7.729  1.1262 -0.7977  1.7759
   82CHL1   C13 8500   6.817   2.297   7.530  0.5460 -1.5646  0.0072
   82CHL1   C18 8501   6.949   2.357   7.474 -0.1235 -0.3880 -0.0922
   82CHL1  H18A 8502   7.027   2.280   7.493  1.6507  1.7704  2.1866
   82CHL1  H18B 8503   6.937   2.369   7.365 -2.4599 -0.3520  0.1281
   82CHL1  H18C 8504   6.975   2.457   7.515 -2.0095 -0.1134  0.5117
   82CHL1   C12 8505   6.800   2.149   7.505 -0.5748  0.1593  0.1132
   82CHL1  H12A 8506   6.894   2.094   7.526  0.3410  1.0168 -1.5862
   82CHL1  H12B 8507   6.713   2.111   7.564  1.3233  0.7124  3.5474
   82CHL1   C11 8508   6.777   2.129   7.350 -0.5489  0.5876  0.4044
   82CHL1  H11A 8509   6.866   2.173   7.299 -0.3900  3.6936  3.0214
   82CHL1  H11B 8510   6.768   2.020   7.333 -2.8487  0.8076 -0.1707
   82CHL1    C9 8511   6.662   2.208   7.290 -0.4090 -0.6164 -0.6162
   82CHL1    H9 8512   6.566   2.172   7.333 -0.5281  0.7235  0.2917
   82CHL1   C10 8513   6.635   2.182   7.142 -0.2987 -0.4999  0.7618
   82CHL1   C19 8514   6.767   2.185   7.063 -0.0050 -0.0522  0.1529
   82CHL1  H19A 8515   6.828   2.276   7.084  0.2982 -0.6621  2.1057
   82CHL1  H19B 8516   6.836   2.101   7.084 -0.0076 -0.8333 -2.5706
   82CHL1  H19C 8517   6.748   2.173   6.955  1.0999 -2.8663  0.2008
   82CHL1    C1 8518   6.566   2.037   7.123  0.0990  0.1130  0.5490
   82CHL1   H1A 8519   6.629   1.952   7.159  1.2451 -0.8371 -3.2722
   82CHL1   H1B 8520   6.476   2.045   7.188 -0.1826 -1.3535  0.3817
   82CHL1    C2 8521   6.527   2.023   6.973 -0.0784  0.2698 -0.2754
   82CHL1   H2A 8522   6.477   1.924   6.960 -1.1676  0.5622  1.3649
   82CHL1   H2B 8523   6.619   2.024   6.911 -1.1918  0.9154 -2.0307
   82CHL1   C20 8524   6.928   2.328   7.767  0.0630  0.1318 -0.0164
   82CHL1   H20 8525   7.020   2.357   7.710 -0.6322 -0.3759 -1.4511
   82CHL1   C21 8526   6.936   2.188   7.821  0.3817 -0.0311  0.0245
   82CHL1  H21A 8527   6.844   2.170   7.881 -0.2972  0.3752 -0.8867
   82CHL1  H21B 8528   7.028   2.182   7.883  0.6974  0.2408 -0.4113
   82CHL1  H21C 8529   6.935   2.101   7.752 -2.3440  0.2417 -0.3777
   82CHL1   C22 8530   6.926   2.415   7.899  0.1903 -0.4364  0.6019
   82CHL1  H22A 8531   6.932   2.519   7.861 -1.3174 -0.9013 -1.0246
   82CHL1  H22B 8532   6.836   2.399   7.961 -0.5354 -0.6174 -0.4861
   82CHL1   C23 8533   7.046   2.407   7.996  0.7717 -0.0286  0.4470
   82CHL1  H23A 8534   7.041   2.319   8.064 -1.0216 -2.1029 -2.1625
   82CHL1  H23B 8535   7.131   2.382   7.929  0.0579 -2.3077  0.3064
   82CHL1   C24 8536   7.066   2.530   8.086 -0.3346 -0.4631  0.8181
   82CHL1  H24A 8537   7.174   2.530   8.111 -0.1398 -3.1900  0.2711
   82CHL1  H24B 8538   7.043   2.621   8.026 -0.1678 -0.2049  1.1431
   82CHL1   C25 8539   6.967   2.551   8.208  0.1260 -0.0570  0.5956
   82CHL1   H25 8540   6.864   2.543   8.166 -1.2896 -0.6279  3.9051
   82CHL1   C26 8541   6.972   2.432   8.306 -0.1779 -0.2839  0.0703
   82CHL1  H26A 8542   6.898   2.454   8.386 -0.6362 -1.3357 -0.0467
   82CHL1  H26B 8543   6.944   2.334   8.262  1.2052  0.1373 -1.8996
   82CHL1  H26C 8544   7.070   2.423   8.356  0.7305  0.1694 -1.5592
   82CHL1   C27 8545   7.003   2.682   8.279 -0.4410  0.2403 -0.4066
   82CHL1  H27A 8546   6.921   2.694   8.353  0.3037 -5.2452  1.7404
   82CHL1  H27B 8547   7.105   2.673   8.321 -1.1552 -0.2583  1.2853
   82CHL1  H27C 8548   7.010   2.765   8.205  2.6286  0.7286  0.2965
   83CHL1    C3 8549   2.238   3.480   6.739  0.0410 -0.3857  0.5985
   83CHL1    H3 8550   2.195   3.380   6.760 -4.0849  0.4434 -2.5726
   83CHL1    O3 8551   2.207   3.520   6.607  0.2858  0.7687 -0.2017
   83CHL1   H3' 8552   2.240   3.610   6.596 -0.5359  0.8749 -2.1493
   83CHL1    C4 8553   2.159   3.583   6.826 -0.2746  0.2729  0.4895
   83CHL1   H4A 8554   2.186   3.688   6.799 -0.1244 -0.2115 -1.3963
   83CHL1   H4B 8555   2.051   3.575   6.804  0.0447 -1.2696 -0.7268
   83CHL1    C5 8556   2.199   3.559   6.972 -0.3299 -0.2117 -0.0539
   83CHL1    C6 8557   2.103   3.508   7.053 -0.4092 -0.6956 -0.3390
   83CHL1    H6 8558   2.001   3.499   7.015 -0.3014  0.2073 -0.8500
   83CHL1    C7 8559   2.134   3.489   7.197  0.5855  0.1874 -0.0583
   83CHL1   H7A 8560   2.043   3.525   7.249 -1.0452 -0.4566 -2.3150
   83CHL1   H7B 8561   2.130   3.380   7.220 -4.2378  0.1616 -0.0324
   83CHL1    C8 8562   2.269   3.551   7.254  0.5718  0.4569  0.3726
   83CHL1    H8 8563   2.271   3.662   7.252  0.8314  0.4485 -0.8608
   83CHL1   C14 8564   2.294   3.491   7.387 -1.2846  0.0231 -0.8954
   83CHL1   H14 8565   2.308   3.382   7.379 -4.3309 -0.5900  0.5901
   83CHL1   C15 8566   2.182   3.503   7.495 -0.2546 -0.8313  0.6120
   83CHL1  H15A 8567   2.136   3.603   7.485  1.0072 -0.3996 -1.5695
   83CHL1  H15B 8568   2.099   3.431   7.481 -1.2327 -0.1795  2.6619
   83CHL1   C16 8569   2.257   3.477   7.627  0.1733 -0.1877  0.8357
   83CHL1  H16A 8570   2.249   3.569   7.687  1.4614  1.4192 -1.3111
   83CHL1  H16B 8571   2.228   3.381   7.676  2.2972 -1.0109  0.5754
   83CHL1   C17 8572   2.407   3.465   7.592 -0.1722 -0.1573  0.2780
   83CHL1   H17 8573   2.427   3.358   7.569 -1.7569 -0.3504 -0.2582
   83CHL1   C13 8574   2.419   3.538   7.455  0.3106  0.2169  0.4488
   83CHL1   C18 8575   2.412   3.687   7.480  0.6040 -0.1574 -0.4358
   83CHL1  H18A 8576   2.510   3.727   7.513  0.8432 -0.7605 -0.3937
   83CHL1  H18B 8577   2.389   3.740   7.386  0.3968  1.4178  0.4786
   83CHL1  H18C 8578   2.333   3.722   7.549  0.2568 -0.5710 -0.6179
   83CHL1   C12 8579   2.537   3.499   7.366 -0.5777  0.5676  0.2525
   83CHL1  H12A 8580   2.633   3.534   7.410  0.1186 -0.5755 -0.3027
   83CHL1  H12B 8581   2.537   3.388   7.362  2.9720  0.4846 -1.2575
   83CHL1   C11 8582   2.526   3.548   7.223  0.8362  0.6784  0.1376
   83CHL1  H11A 8583   2.546   3.657   7.217  2.3447  0.3867 -0.8037
   83CHL1  H11B 8584   2.599   3.507   7.150  1.3240 -0.8165  1.4224
   83CHL1    C9 8585   2.382   3.517   7.157 -0.6148  0.3683  0.4273
   83CHL1    H9 8586   2.381   3.406   7.149 -0.2997  0.4071 -0.2272
   83CHL1   C10 8587   2.348   3.563   7.008 -0.2309  0.2387  0.2129
   83CHL1   C19 8588   2.394   3.718   6.998  0.2400 -0.4760 -0.5779
   83CHL1  H19A 8589   2.360   3.767   6.904 -2.3265 -0.8253  0.0816
   83CHL1  H19B 8590   2.336   3.774   7.075  0.1137 -1.2726 -0.0847
   83CHL1  H19C 8591   2.498   3.749   7.018 -0.8823  2.8569  0.8963
   83CHL1    C1 8592   2.425   3.475   6.910  0.1859  0.5550  0.2068
   83CHL1   H1A 8593   2.530   3.508   6.921  0.2578  0.8157 -1.0599
   83CHL1   H1B 8594   2.408   3.369   6.937 -1.4464  0.5693 -0.6333
   83CHL1    C2 8595   2.395   3.498   6.759  0.5752  0.0119  0.1811
   83CHL1   H2A 8596   2.452   3.439   6.684 -1.3100 -0.7834 -0.6956
   83CHL1   H2B 8597   2.424   3.604   6.744 -0.7456  0.4403  0.5285
   83CHL1   C20 8598   2.501   3.508   7.710 -0.2611  0.3235 -0.5007
   83CHL1   H20 8599   2.467   3.608   7.743  0.5901  1.4369 -2.7516
   83CHL1   C21 8600   2.649   3.524   7.669  0.0722 -0.1889 -0.5325
   83CHL1  H21A 8601   2.722   3.539   7.751 -0.3379  1.2955 -0.3975
   83CHL1  H21B 8602   2.659   3.614   7.605 -0.4984  1.7779  1.9729
   83CHL1  H21C 8603   2.681   3.434   7.613  2.7600  0.7074 -0.5578
   83CHL1   C22 8604   2.484   3.406   7.816  0.0937  0.2742 -0.8717
   83CHL1  H22A 8605   2.380   3.381   7.844  0.5695  0.2283  0.9960
   83CHL1  H22B 8606   2.541   3.316   7.786  0.5480  0.2732 -0.0646
   83CHL1   C23 8607   2.538   3.439   7.958  0.1509 -0.3776  0.1833
   83CHL1  H23A 8608   2.544   3.350   8.025 -0.6135  0.1757  1.0075
   83CHL1  H23B 8609   2.645   3.468   7.946 -1.0031  4.9844  0.5284
   83CHL1   C24 8610   2.472   3.560   8.029  0.1558  0.4756 -0.2514
   83CHL1  H24A 8611   2.474   3.638   7.950  0.8765 -0.7814 -1.5177
   83CHL1  H24B 8612   2.366   3.543   8.058  0.0341 -2.0939 -1.9075
   83CHL1   C25 8613   2.541   3.613   8.160  0.3178 -0.4284 -0.3648
   83CHL1   H25 8614   2.648   3.633   8.138  0.1062  1.0270 -0.1885
   83CHL1   C26 8615   2.483   3.754   8.186 -0.0353 -0.1167 -0.0472
   83CHL1  H26A 8616   2.373   3.743   8.196  0.0880 -0.2223  1.3491
   83CHL1  H26B 8617   2.521   3.791   8.283  2.9334 -1.9515 -0.3592
   83CHL1  H26C 8618   2.524   3.824   8.110  2.0044 -0.8066  0.3343
   83CHL1   C27 8619   2.533   3.519   8.281 -0.4905  0.8079  0.2406
   83CHL1  H27A 8620   2.559   3.415   8.252  0.7493  0.6864  1.6875
   83CHL1  H27B 8621   2.607   3.546   8.359  0.9173 -2.2697  0.1427
   83CHL1  H27C 8622   2.435   3.509   8.333 -0.0106 -1.1779  0.8614
   84CHL1    C3 8623   3.888   1.339   6.965 -0.2762 -0.0467  0.4867
   84CHL1    H3 8624   3.840   1.437   6.944  1.4316  0.8828  0.7573
   84CHL1    O3 8625   3.941   1.290   6.840 -0.2158  0.4244 -0.3077
   84CHL1   H3' 8626   3.868   1.245   6.797  0.5182 -0.8471 -0.2413
   84CHL1    C4 8627   3.998   1.359   7.063 -0.7398  0.5790  0.4527
   84CHL1   H4A 8628   4.060   1.267   7.071 -2.3834 -0.6400 -0.1649
   84CHL1   H4B 8629   4.068   1.440   7.033  0.8513 -0.7231  0.4897
   84CHL1    C5 8630   3.937   1.392   7.199  0.2748  0.2349 -0.5475
   84CHL1    C6 8631   3.959   1.507   7.262  0.6132  0.7508  0.6602
   84CHL1    H6 8632   4.023   1.581   7.213 -1.3758  2.5665  0.6945
   84CHL1    C7 8633   3.900   1.538   7.399 -0.3449 -0.4166  0.5361
   84CHL1   H7A 8634   3.988   1.569   7.460 -0.8582  0.9542  0.6029
   84CHL1   H7B 8635   3.820   1.614   7.395  0.2532  0.1638 -1.2648
   84CHL1    C8 8636   3.866   1.414   7.478  0.3144 -0.3113 -0.3426
   84CHL1    H8 8637   3.963   1.361   7.493  0.2649 -0.0905  0.9022
   84CHL1   C14 8638   3.800   1.451   7.611 -0.2039 -0.4183 -0.8247
   84CHL1   H14 8639   3.701   1.499   7.594 -0.2177  0.3893  1.2049
   84CHL1   C15 8640   3.879   1.547   7.714 -0.4484  0.5153  0.4076
   84CHL1  H15A 8641   3.986   1.524   7.699 -0.1790  1.3484  1.0441
   84CHL1  H15B 8642   3.860   1.651   7.682 -0.9763 -0.5388 -3.1058
   84CHL1   C16 8643   3.839   1.510   7.852 -0.0812  0.4406  0.0982
   84CHL1  H16A 8644   3.922   1.481   7.919  0.5892  2.4799  0.2367
   84CHL1  H16B 8645   3.781   1.596   7.894 -0.8804  0.8770 -1.8037
   84CHL1   C17 8646   3.726   1.404   7.828  0.4710 -0.1343 -0.4453
   84CHL1   H17 8647   3.640   1.471   7.808 -0.6718 -0.3674  3.0632
   84CHL1   C13 8648   3.763   1.332   7.698  0.1620  0.5625  0.6940
   84CHL1   C18 8649   3.885   1.243   7.714  0.7972  0.3811 -0.3692
   84CHL1  H18A 8650   3.964   1.298   7.769  0.7999  1.8418 -1.7358
   84CHL1  H18B 8651   3.868   1.159   7.784  1.7929 -1.1430 -1.8446
   84CHL1  H18C 8652   3.936   1.196   7.626  2.1482  1.1187 -0.0139
   84CHL1   C12 8653   3.645   1.265   7.623 -0.0531 -0.2717  0.0426
   84CHL1  H12A 8654   3.593   1.183   7.678  0.8266 -1.5389 -0.9526
   84CHL1  H12B 8655   3.567   1.342   7.607 -1.3118 -1.3058  0.9427
   84CHL1   C11 8656   3.703   1.211   7.480  1.1812 -0.1177  0.0201
   84CHL1  H11A 8657   3.775   1.130   7.504  2.4773  1.2189  0.8050
   84CHL1  H11B 8658   3.632   1.158   7.413 -1.6217  2.4995  0.6828
   84CHL1    C9 8659   3.768   1.331   7.397  0.4260 -0.2558 -0.4219
   84CHL1    H9 8660   3.684   1.400   7.375 -0.1642 -1.3882 -1.9413
   84CHL1   C10 8661   3.840   1.294   7.259 -0.3646  0.8633  0.5022
   84CHL1   C19 8662   3.926   1.168   7.280 -1.0286  0.3027  0.1990
   84CHL1  H19A 8663   3.854   1.088   7.308 -1.4600  0.5404 -0.2282
   84CHL1  H19B 8664   3.992   1.125   7.202  1.2303  0.9814  1.6425
   84CHL1  H19C 8665   3.984   1.177   7.374 -0.3794 -0.3068 -0.1292
   84CHL1    C1 8666   3.728   1.275   7.152 -0.3799  0.4121 -0.5883
   84CHL1   H1A 8667   3.660   1.190   7.174 -1.1896  1.2241  0.0858
   84CHL1   H1B 8668   3.675   1.371   7.141 -0.3489  0.4783 -0.1687
   84CHL1    C2 8669   3.782   1.240   7.010  0.0441  0.2858 -0.6398
   84CHL1   H2A 8670   3.697   1.242   6.939 -3.0980  3.5432  2.7727
   84CHL1   H2B 8671   3.816   1.135   7.009 -1.1045 -0.1072 -2.2511
   84CHL1   C20 8672   3.684   1.330   7.948 -0.3863  0.6394 -0.2805
   84CHL1   H20 8673   3.627   1.243   7.908  0.9541 -0.2688 -0.2920
   84CHL1   C21 8674   3.590   1.418   8.028  0.4892  0.4054  1.1333
   84CHL1  H21A 8675   3.500   1.460   7.978  0.8016  0.4678  0.6237
   84CHL1  H21B 8676   3.649   1.493   8.086  1.1629  0.7095  0.0778
   84CHL1  H21C 8677   3.540   1.365   8.112 -0.4766 -0.2887  0.1473
   84CHL1   C22 8678   3.805   1.286   8.037  0.8026 -0.1301  0.9397
   84CHL1  H22A 8679   3.891   1.248   7.978 -0.5898 -2.6608  0.4033
   84CHL1  H22B 8680   3.831   1.375   8.098 -1.7213  1.2436  0.1712
   84CHL1   C23 8681   3.768   1.169   8.134 -0.5988  0.3035 -0.0385
   84CHL1  H23A 8682   3.713   1.200   8.226  2.4962  1.4263  1.5865
   84CHL1  H23B 8683   3.701   1.106   8.072 -1.6791 -1.2117  2.5128
   84CHL1   C24 8684   3.884   1.099   8.198 -0.1020 -0.4692  0.0351
   84CHL1  H24A 8685   3.962   1.079   8.121  2.0242  1.6402  1.4968
   84CHL1  H24B 8686   3.934   1.179   8.256 -2.0713  1.3592 -0.6868
   84CHL1   C25 8687   3.846   0.972   8.277  0.4067  0.2633 -0.1978
   84CHL1   H25 8688   3.755   0.996   8.336  0.5684  0.0524  0.1408
   84CHL1   C26 8689   3.790   0.872   8.175 -0.5301 -0.5570  0.3258
   84CHL1  H26A 8690   3.862   0.840   8.097 -3.8649 -2.9546 -2.0776
   84CHL1  H26B 8691   3.764   0.778   8.229  2.1237 -2.1607 -1.0065
   84CHL1  H26C 8692   3.695   0.915   8.136  0.5407  1.8303  0.1839
   84CHL1   C27 8693   3.948   0.913   8.375  0.0695 -0.5841 -0.2816
   84CHL1  H27A 8694   4.041   0.890   8.319  0.4844  2.6544 -1.1332
   84CHL1  H27B 8695   3.969   0.993   8.450 -0.5580 -0.0214 -0.6903
   84CHL1  H27C 8696   3.900   0.842   8.446 -3.2526  2.9997  1.4676
   85CHL1    C3 8697   4.903   5.602   6.682 -0.2351  0.8252  0.1524
   85CHL1    H3 8698   4.821   5.542   6.638  0.9475 -3.0605  2.7524
   85CHL1    O3 8699   4.986   5.660   6.585  0.5482 -0.3188  0.1320
   85CHL1   H3' 8700   4.925   5.703   6.525  0.8979 -0.5076 -0.3601
   85CHL1    C4 8701   4.826   5.708   6.760 -0.1899 -0.0876 -0.8003
   85CHL1   H4A 8702   4.906   5.782   6.780 -0.0051 -0.0024 -1.7755
   85CHL1   H4B 8703   4.763   5.768   6.691  0.6569  0.1481 -1.3902
   85CHL1    C5 8704   4.754   5.658   6.878  1.0859  0.5802  0.0536
   85CHL1    C6 8705   4.623   5.679   6.890 -0.4682 -0.9428  0.4696
   85CHL1    H6 8706   4.586   5.744   6.810  0.8907  0.5618  1.0248
   85CHL1    C7 8707   4.538   5.650   7.007 -0.0973 -0.4682 -0.6434
   85CHL1   H7A 8708   4.486   5.739   7.048 -0.1580 -0.4348 -0.7943
   85CHL1   H7B 8709   4.466   5.568   6.986 -0.4323 -0.1335 -0.8086
   85CHL1    C8 8710   4.629   5.588   7.126 -0.6374 -0.3389 -0.6656
   85CHL1    H8 8711   4.678   5.671   7.182 -1.6320 -0.6922  0.7576
   85CHL1   C14 8712   4.542   5.527   7.232  0.0514  0.6322 -0.2551
   85CHL1   H14 8713   4.505   5.436   7.180 -0.9394 -0.8471  2.7830
   85CHL1   C15 8714   4.408   5.598   7.274 -0.0884 -0.4321  0.5490
   85CHL1  H15A 8715   4.419   5.707   7.290 -0.8583 -0.4548  1.3026
   85CHL1  H15B 8716   4.329   5.570   7.201 -0.3912 -2.1556  1.4749
   85CHL1   C16 8717   4.369   5.522   7.406 -0.1834  0.0490  0.6332
   85CHL1  H16A 8718   4.368   5.612   7.472 -1.6959  0.1458  0.4968
   85CHL1  H16B 8719   4.277   5.460   7.409  0.6379 -1.2047  0.7004
   85CHL1   C17 8720   4.484   5.415   7.426  0.5484  0.3193 -1.1006
   85CHL1   H17 8721   4.460   5.323   7.369 -0.7846 -1.1126  1.5929
   85CHL1   C13 8722   4.611   5.475   7.363  0.1878 -0.4077  0.6277
   85CHL1   C18 8723   4.670   5.593   7.451 -0.0567  0.0361  0.4382
   85CHL1  H18A 8724   4.599   5.662   7.502  1.4498  2.1242 -0.1071
   85CHL1  H18B 8725   4.737   5.554   7.531 -0.3607  0.0563  0.7019
   85CHL1  H18C 8726   4.740   5.654   7.389  0.8151 -0.7472  0.6410
   85CHL1   C12 8727   4.720   5.380   7.316 -0.6937 -0.3603 -0.1293
   85CHL1  H12A 8728   4.791   5.363   7.399  0.5322  0.2883 -1.0025
   85CHL1  H12B 8729   4.685   5.288   7.266  1.7670 -0.8623 -1.1208
   85CHL1   C11 8730   4.809   5.436   7.211 -0.3179  0.1043  0.4265
   85CHL1  H11A 8731   4.865   5.521   7.256 -1.2111  1.0416 -0.1890
   85CHL1  H11B 8732   4.889   5.362   7.189  1.4245  1.8632  0.6131
   85CHL1    C9 8733   4.740   5.500   7.083  0.2106  0.6517  0.2238
   85CHL1    H9 8734   4.692   5.416   7.028 -1.0630  1.5310 -0.0713
   85CHL1   C10 8735   4.829   5.567   6.975  0.0972 -0.1544  0.0269
   85CHL1   C19 8736   4.927   5.670   7.041  0.0189 -0.7255  0.6236
   85CHL1  H19A 8737   4.873   5.733   7.115  0.7040 -1.5083  1.8188
   85CHL1  H19B 8738   4.999   5.611   7.101 -1.4720 -1.8669  1.3700
   85CHL1  H19C 8739   4.978   5.740   6.971 -0.3212 -1.2763 -0.1950
   85CHL1    C1 8740   4.900   5.458   6.883 -0.8192 -0.5617 -0.2135
   85CHL1   H1A 8741   4.963   5.394   6.949  0.5155  1.5301  0.6241
   85CHL1   H1B 8742   4.823   5.393   6.835 -1.2719  0.2489 -0.5986
   85CHL1    C2 8743   4.984   5.509   6.765 -0.7229  0.0898 -0.3221
   85CHL1   H2A 8744   5.023   5.427   6.700  2.6416  0.9961  0.3494
   85CHL1   H2B 8745   5.068   5.561   6.816  2.1462 -0.0723 -4.3888
   85CHL1   C20 8746   4.492   5.363   7.578  0.2412  0.3983  0.6617
   85CHL1   H20 8747   4.547   5.444   7.631  2.7296  1.1813 -2.7659
   85CHL1   C21 8748   4.573   5.231   7.573  0.2322 -0.0757  0.0012
   85CHL1  H21A 8749   4.502   5.145   7.565  0.3445 -0.2438  0.7063
   85CHL1  H21B 8750   4.618   5.222   7.674 -1.1077  1.0575  0.7307
   85CHL1  H21C 8751   4.661   5.220   7.506  0.8789  1.1285  0.6377
   85CHL1   C22 8752   4.353   5.325   7.637 -0.3953  1.0188  0.0420
   85CHL1  H22A 8753   4.287   5.414   7.642  1.2390  2.2086  3.6188
   85CHL1  H22B 8754   4.319   5.248   7.564  0.4219  2.0143 -1.4414
   85CHL1   C23 8755   4.365   5.269   7.777  0.3055  0.5744  0.2387
   85CHL1  H23A 8756   4.448   5.197   7.793 -0.1286  0.5411  2.6786
   85CHL1  H23B 8757   4.408   5.354   7.834  0.3948  1.1039 -0.5921
   85CHL1   C24 8758   4.234   5.195   7.831 -0.4244 -1.1135  0.3603
   85CHL1  H24A 8759   4.149   5.248   7.783  0.1286 -1.1902 -0.7247
   85CHL1  H24B 8760   4.226   5.096   7.782 -0.9618 -0.7649 -0.2710
   85CHL1   C25 8761   4.218   5.187   7.982  0.3897 -0.4893 -0.0458
   85CHL1   H25 8762   4.118   5.143   7.998  0.1380  0.7597  2.2724
   85CHL1   C26 8763   4.333   5.099   8.047  0.4346  1.0347  0.0816
   85CHL1  H26A 8764   4.419   5.168   8.039 -0.9591  2.7399 -1.1001
   85CHL1  H26B 8765   4.302   5.068   8.149 -0.4161 -1.9251 -0.9677
   85CHL1  H26C 8766   4.356   5.007   7.988 -1.1417  1.3577 -1.1279
   85CHL1   C27 8767   4.210   5.324   8.062 -0.6438 -0.5055 -0.0782
   85CHL1  H27A 8768   4.203   5.297   8.170  0.0419  0.9532  0.3517
   85CHL1  H27B 8769   4.308   5.373   8.046  0.3116 -1.9298  1.0930
   85CHL1  H27C 8770   4.120   5.382   8.031 -0.1620  0.1901 -0.1920
   86CHL1    C3 8771   5.544   1.013   6.854 -0.4247  0.1512 -0.0128
   86CHL1    H3 8772   5.444   1.045   6.891 -0.6046  0.1826 -0.5206
   86CHL1    O3 8773   5.548   1.007   6.714  0.4860  0.3527 -0.4495
   86CHL1   H3' 8774   5.639   0.996   6.687  0.5011 -2.5400  0.3630
   86CHL1    C4 8775   5.651   1.118   6.901 -0.8329 -0.6912 -0.2140
   86CHL1   H4A 8776   5.750   1.090   6.859  0.6126  1.1890  1.6870
   86CHL1   H4B 8777   5.609   1.208   6.850 -0.7166 -1.3518 -1.5203
   86CHL1    C5 8778   5.663   1.137   7.049  0.3496  0.7433 -0.0434
   86CHL1    C6 8779   5.652   1.260   7.094 -0.7368  0.3358 -0.8155
   86CHL1    H6 8780   5.644   1.345   7.025 -0.5528 -0.8860 -2.4145
   86CHL1    C7 8781   5.657   1.293   7.238 -0.4123  0.8658  0.2133
   86CHL1   H7A 8782   5.729   1.375   7.260  0.5517  0.5492 -1.6205
   86CHL1   H7B 8783   5.554   1.325   7.266 -0.5461 -0.4980  1.4180
   86CHL1    C8 8784   5.693   1.176   7.334  0.2748  0.3495 -0.0883
   86CHL1    H8 8785   5.804   1.176   7.342  0.2928  1.1868 -0.2324
   86CHL1   C14 8786   5.633   1.203   7.475 -0.3071  0.0362  0.1986
   86CHL1   H14 8787   5.524   1.219   7.471 -0.2442  0.2787 -0.7965
   86CHL1   C15 8788   5.682   1.331   7.549  0.7189 -0.0364 -0.2144
   86CHL1  H15A 8789   5.791   1.334   7.527  0.6762 -0.5526 -0.5173
   86CHL1  H15B 8790   5.624   1.418   7.512  0.6796 -0.9809 -2.5163
   86CHL1   C16 8791   5.664   1.307   7.703 -0.2962  0.0854  0.2526
   86CHL1  H16A 8792   5.770   1.320   7.734  0.2043  2.5159 -2.1041
   86CHL1  H16B 8793   5.596   1.385   7.743 -3.4829 -0.6470 -3.1412
   86CHL1   C17 8794   5.619   1.160   7.710 -0.2284  0.1480  0.3053
   86CHL1   H17 8795   5.509   1.170   7.700 -0.3701 -0.0578  1.5545
   86CHL1   C13 8796   5.667   1.091   7.574 -0.7510  0.4525  0.8429
   86CHL1   C18 8797   5.825   1.073   7.590 -0.8419 -0.5516 -0.0312
   86CHL1  H18A 8798   5.856   0.980   7.643 -1.2198 -0.5862  0.1288
   86CHL1  H18B 8799   5.873   1.063   7.490 -0.1468 -0.0983  0.2480
   86CHL1  H18C 8800   5.868   1.164   7.637 -0.7428 -0.7570  0.2816
   86CHL1   C12 8801   5.608   0.954   7.521 -0.1173 -0.3693  0.1793
   86CHL1  H12A 8802   5.641   0.873   7.589 -2.3711 -1.2266  0.3631
   86CHL1  H12B 8803   5.499   0.973   7.535  0.3384  1.1249  2.2690
   86CHL1   C11 8804   5.651   0.929   7.375  0.0885  0.6967  0.0131
   86CHL1  H11A 8805   5.756   0.893   7.384 -0.1476  0.2895  1.3146
   86CHL1  H11B 8806   5.582   0.846   7.348 -0.1662  0.0103  2.5105
   86CHL1    C9 8807   5.631   1.045   7.280  0.0515  0.7452  0.1173
   86CHL1    H9 8808   5.524   1.073   7.292  0.1552  0.6441  1.4200
   86CHL1   C10 8809   5.658   1.007   7.133 -0.0310 -0.0615 -0.7910
   86CHL1   C19 8810   5.799   0.946   7.122  0.4989 -0.4092  0.0802
   86CHL1  H19A 8811   5.794   0.839   7.149  4.6520 -0.3985  1.6237
   86CHL1  H19B 8812   5.836   0.949   7.018  1.6743  2.1069  0.4887
   86CHL1  H19C 8813   5.870   0.987   7.197 -1.0764 -3.5855  3.6857
   86CHL1    C1 8814   5.550   0.902   7.078  0.9517  0.1434  1.2093
   86CHL1   H1A 8815   5.556   0.800   7.121 -0.0269 -0.5723 -0.2469
   86CHL1   H1B 8816   5.445   0.930   7.100  0.3846 -0.9001 -0.0187
   86CHL1    C2 8817   5.552   0.879   6.925 -0.4353 -0.4575  0.6647
   86CHL1   H2A 8818   5.482   0.798   6.893 -0.8492  0.3603 -0.5629
   86CHL1   H2B 8819   5.657   0.847   6.908 -0.0404  0.8819  0.4956
   86CHL1   C20 8820   5.666   1.093   7.850  0.3682 -0.0632 -0.1917
   86CHL1   H20 8821   5.777   1.092   7.849  0.4236  0.5869  1.7591
   86CHL1   C21 8822   5.620   0.939   7.872  1.0019 -1.0075  0.2860
   86CHL1  H21A 8823   5.511   0.948   7.854  1.0219 -0.4337  0.4372
   86CHL1  H21B 8824   5.649   0.894   7.969 -0.1991 -0.4732  0.9181
   86CHL1  H21C 8825   5.676   0.879   7.797  1.8119 -0.8990  0.7837
   86CHL1   C22 8826   5.627   1.177   7.970  0.5370 -0.3808  0.4856
   86CHL1  H22A 8827   5.639   1.288   7.963 -1.0754 -0.0673  1.9748
   86CHL1  H22B 8828   5.520   1.156   7.991  0.4832 -0.3366  0.2615
   86CHL1   C23 8829   5.707   1.139   8.094 -0.3680  1.0782  0.8277
   86CHL1  H23A 8830   5.712   1.032   8.126  1.1353  1.2961  1.3916
   86CHL1  H23B 8831   5.811   1.162   8.063  1.5652 -1.8970  4.2265
   86CHL1   C24 8832   5.689   1.233   8.214  0.2658 -0.5176 -0.3654
   86CHL1  H24A 8833   5.692   1.336   8.171 -0.4472 -1.3282 -2.5141
   86CHL1  H24B 8834   5.586   1.218   8.253  0.9795  0.4176  2.0780
   86CHL1   C25 8835   5.792   1.211   8.328  0.0463  0.1441 -0.2682
   86CHL1   H25 8836   5.794   1.103   8.354 -0.3789  0.4684  1.1974
   86CHL1   C26 8837   5.927   1.255   8.272  0.0841 -0.2745  0.0271
   86CHL1  H26A 8838   5.945   1.176   8.196  0.4136 -0.8436  0.6858
   86CHL1  H26B 8839   5.926   1.355   8.224 -0.5493  0.7888  2.0952
   86CHL1  H26C 8840   5.998   1.245   8.357 -1.4974 -0.8354  1.3437
   86CHL1   C27 8841   5.745   1.277   8.452 -0.5785 -0.0522 -0.2583
   86CHL1  H27A 8842   5.640   1.246   8.473  0.8501 -5.3035  0.6605
   86CHL1  H27B 8843   5.794   1.240   8.545  2.2068 -0.3236 -1.7575
   86CHL1  H27C 8844   5.749   1.388   8.447 -1.3463  0.0224  0.3867
   87CHL1    C3 8845   5.730   0.118   6.941  0.5894  0.0785 -0.1746
   87CHL1    H3 8846   5.686   0.220   6.948  0.5264  0.0479 -0.1254
   87CHL1    O3 8847   5.781   0.103   6.806 -0.3616  0.3760 -0.0020
   87CHL1   H3' 8848   5.791   0.009   6.792  0.0184  0.6113 -1.4906
   87CHL1    C4 8849   5.851   0.105   7.039  0.1307 -0.3989  0.2841
   87CHL1   H4A 8850   5.900   0.014   6.999 -0.9700 -0.1108 -1.8887
   87CHL1   H4B 8851   5.925   0.187   7.032  0.3846 -0.7500 -1.5954
   87CHL1    C5 8852   5.804   0.090   7.181 -0.8339  0.7500 -0.6525
   87CHL1    C6 8853   5.875   0.156   7.280 -0.0785 -0.3655  0.7472
   87CHL1    H6 8854   5.960   0.219   7.249 -0.7728 -0.3704 -1.2565
   87CHL1    C7 8855   5.843   0.138   7.427 -0.2990 -0.5526  0.1370
   87CHL1   H7A 8856   5.938   0.107   7.476 -0.4627  2.1830  2.4447
   87CHL1   H7B 8857   5.820   0.238   7.468  1.9669 -0.6480  1.8391
   87CHL1    C8 8858   5.740   0.029   7.472  1.0778  0.1035  0.3675
   87CHL1    H8 8859   5.800  -0.065   7.475 -0.0813 -0.7697 -1.7043
   87CHL1   C14 8860   5.685   0.067   7.605  0.2389  0.0807  0.2926
   87CHL1   H14 8861   5.618   0.155   7.593  0.1029  0.0270  0.6373
   87CHL1   C15 8862   5.791   0.092   7.721 -0.1205 -0.1412 -0.4866
   87CHL1  H15A 8863   5.885   0.034   7.705 -0.6377 -1.4258  0.9350
   87CHL1  H15B 8864   5.820   0.198   7.736  0.5513 -0.2060 -1.2395
   87CHL1   C16 8865   5.721   0.056   7.852  0.2280 -0.5883 -0.7407
   87CHL1  H16A 8866   5.766  -0.038   7.890 -1.7074 -0.6999  1.4816
   87CHL1  H16B 8867   5.725   0.133   7.932  0.6936 -0.7213 -0.6324
   87CHL1   C17 8868   5.568   0.014   7.809  0.2044 -0.3903  0.0837
   87CHL1   H17 8869   5.518   0.112   7.795  2.2923  0.5414 -1.2959
   87CHL1   C13 8870   5.590  -0.045   7.660 -0.3048  0.8653  0.3226
   87CHL1   C18 8871   5.662  -0.184   7.675  0.2645 -0.0585 -0.1246
   87CHL1  H18A 8872   5.751  -0.175   7.741  1.8717 -1.3060 -2.0457
   87CHL1  H18B 8873   5.593  -0.256   7.725  1.4807 -2.9037 -2.3192
   87CHL1  H18C 8874   5.683  -0.234   7.579 -0.4826 -0.3619 -0.1422
   87CHL1   C12 8875   5.468  -0.051   7.563 -0.1295 -0.2885 -0.3966
   87CHL1  H12A 8876   5.393  -0.130   7.583  0.2959 -0.9903 -1.4977
   87CHL1  H12B 8877   5.415   0.047   7.561  0.7109  0.1806 -2.6777
   87CHL1   C11 8878   5.508  -0.082   7.413  0.0069  0.0660 -0.0960
   87CHL1  H11A 8879   5.544  -0.187   7.410  3.0931  0.8215  3.4606
   87CHL1  H11B 8880   5.426  -0.074   7.338 -0.4631  0.8339  0.4775
   87CHL1    C9 8881   5.626   0.017   7.371 -0.3267  0.4135  0.6493
   87CHL1    H9 8882   5.577   0.116   7.374 -0.7137  0.3873 -2.0594
   87CHL1   C10 8883   5.683  -0.003   7.230  0.2882  0.4312  0.6381
   87CHL1   C19 8884   5.740  -0.149   7.211 -0.0315  0.0541  0.2877
   87CHL1  H19A 8885   5.766  -0.149   7.103  0.2097  1.8827  0.3163
   87CHL1  H19B 8886   5.830  -0.159   7.275  0.7197 -2.7715 -1.0954
   87CHL1  H19C 8887   5.672  -0.234   7.235 -0.0898  0.4141  1.4567
   87CHL1    C1 8888   5.570   0.013   7.120 -0.5192 -0.4776  0.8422
   87CHL1   H1A 8889   5.498  -0.068   7.143  0.4429 -0.9685  2.2666
   87CHL1   H1B 8890   5.515   0.109   7.134 -0.7325  0.2005 -3.3444
   87CHL1    C2 8891   5.622   0.011   6.973 -0.3699 -0.2748 -0.4055
   87CHL1   H2A 8892   5.533   0.016   6.906 -0.5073  0.1392 -0.2006
   87CHL1   H2B 8893   5.659  -0.090   6.947  0.1244 -0.1678 -0.1224
   87CHL1   C20 8894   5.485  -0.070   7.906  0.2861  0.0937  0.0790
   87CHL1   H20 8895   5.497  -0.178   7.882 -2.1750  0.0025 -1.0623
   87CHL1   C21 8896   5.338  -0.050   7.878  0.4177  0.5940 -0.0451
   87CHL1  H21A 8897   5.314   0.056   7.901  3.8360  1.1575  1.4910
   87CHL1  H21B 8898   5.267  -0.110   7.939 -0.2648  0.0972 -1.2827
   87CHL1  H21C 8899   5.310  -0.079   7.774  0.0355  1.8499 -0.3106
   87CHL1   C22 8900   5.528  -0.059   8.056  0.3154  0.0376  0.3315
   87CHL1  H22A 8901   5.637  -0.076   8.056  0.1338 -2.0872  3.7105
   87CHL1  H22B 8902   5.509   0.048   8.078 -1.6198  0.1725 -1.5937
   87CHL1   C23 8903   5.462  -0.155   8.163 -0.9953 -0.7184  0.6401
   87CHL1  H23A 8904   5.352  -0.158   8.155 -1.1468  2.8888 -0.2779
   87CHL1  H23B 8905   5.504  -0.257   8.149  2.1873  0.6683 -1.4012
   87CHL1   C24 8906   5.501  -0.114   8.311 -0.1553 -0.4613  0.4337
   87CHL1  H24A 8907   5.608  -0.120   8.340 -0.6642  0.1780  2.7169
   87CHL1  H24B 8908   5.472  -0.008   8.329  0.7000  0.2470 -2.0277
   87CHL1   C25 8909   5.429  -0.191   8.425 -0.0585  0.5745 -0.1828
   87CHL1   H25 8910   5.476  -0.164   8.522  0.3003 -1.5924  0.3149
   87CHL1   C26 8911   5.284  -0.156   8.422  0.3177 -0.4811 -0.2323
   87CHL1  H26A 8912   5.237  -0.209   8.507  3.4337 -0.5916  1.5815
   87CHL1  H26B 8913   5.276  -0.046   8.436  2.7105 -0.1642 -0.9541
   87CHL1  H26C 8914   5.228  -0.175   8.328  0.3172 -1.4448 -0.0426
   87CHL1   C27 8915   5.439  -0.341   8.427  0.2554 -0.1054  1.0362
   87CHL1  H27A 8916   5.545  -0.374   8.426 -0.4911 -2.8276 -1.6198
   87CHL1  H27B 8917   5.397  -0.381   8.522 -0.5347 -0.3602  0.5861
   87CHL1  H27C 8918   5.374  -0.378   8.345 -0.6285 -0.0181  1.6795
   88CHL1    C3 8919   3.772   5.733   6.837 -0.2172  0.6824 -0.0026
   88CHL1    H3 8920   3.666   5.700   6.841 -0.4140  1.3898  1.1465
   88CHL1    O3 8921   3.785   5.795   6.708  0.0995 -1.2068 -0.5035
   88CHL1   H3' 8922   3.879   5.816   6.709  0.0221 -0.8224 -1.0951
   88CHL1    C4 8923   3.800   5.833   6.951  0.1606 -0.2366  0.2132
   88CHL1   H4A 8924   3.908   5.856   6.944 -0.0861  0.4047 -3.7162
   88CHL1   H4B 8925   3.743   5.926   6.931 -1.0108 -1.3120 -1.7756
   88CHL1    C5 8926   3.784   5.764   7.089 -0.0835  0.3028 -0.3098
   88CHL1    C6 8927   3.707   5.820   7.183  0.2756 -0.1521 -0.5848
   88CHL1    H6 8928   3.654   5.909   7.146  0.7502  0.3944  0.0517
   88CHL1    C7 8929   3.694   5.775   7.323 -0.7097 -0.5442  0.3866
   88CHL1   H7A 8930   3.718   5.866   7.382 -0.2905  0.2343 -0.9295
   88CHL1   H7B 8931   3.590   5.746   7.347 -0.9520 -0.6226 -0.7141
   88CHL1    C8 8932   3.788   5.659   7.349 -0.1832 -0.4246  0.1268
   88CHL1    H8 8933   3.890   5.699   7.365  0.0002 -0.6638 -0.4301
   88CHL1   C14 8934   3.755   5.589   7.477 -0.1748  0.0516 -0.0230
   88CHL1   H14 8935   3.652   5.550   7.460 -0.2302 -0.8000  1.9023
   88CHL1   C15 8936   3.743   5.676   7.603  0.0188 -0.7660  0.0875
   88CHL1  H15A 8937   3.833   5.741   7.612 -0.8164  0.4064  0.2271
   88CHL1  H15B 8938   3.651   5.737   7.590  0.8141  0.6443  0.8345
   88CHL1   C16 8939   3.739   5.575   7.714  0.3872  0.7077 -0.6117
   88CHL1  H16A 8940   3.800   5.596   7.805  0.3814 -0.4721 -0.3265
   88CHL1  H16B 8941   3.632   5.574   7.743  0.4230  0.5303 -0.4891
   88CHL1   C17 8942   3.758   5.433   7.650  0.4600  0.0976 -0.2477
   88CHL1   H17 8943   3.659   5.400   7.614  0.3639 -0.8062  0.7915
   88CHL1   C13 8944   3.830   5.463   7.516  0.1349  0.3282  0.3728
   88CHL1   C18 8945   3.981   5.500   7.549 -0.5325  0.3718 -0.4321
   88CHL1  H18A 8946   3.998   5.569   7.635  3.7439 -1.5205  0.4952
   88CHL1  H18B 8947   4.039   5.408   7.569  0.2128  0.8359 -0.4193
   88CHL1  H18C 8948   4.025   5.541   7.456 -0.5108 -1.0675 -1.0760
   88CHL1   C12 8949   3.809   5.362   7.400 -0.3397  0.1219 -0.7582
   88CHL1  H12A 8950   3.851   5.267   7.439  1.4620  1.9215  1.9863
   88CHL1  H12B 8951   3.703   5.339   7.375  0.1100 -0.2491 -2.4518
   88CHL1   C11 8952   3.860   5.422   7.270  0.2594 -0.3704 -0.7420
   88CHL1  H11A 8953   3.971   5.434   7.272  0.1083  1.5069 -1.6735
   88CHL1  H11B 8954   3.842   5.357   7.182  1.5911 -0.5788 -0.8864
   88CHL1    C9 8955   3.794   5.561   7.234 -0.0052 -0.4221 -0.3964
   88CHL1    H9 8956   3.689   5.533   7.212 -0.0589  0.0525 -0.7543
   88CHL1   C10 8957   3.849   5.630   7.110 -0.7762 -0.3393 -0.8196
   88CHL1   C19 8958   4.004   5.653   7.121  0.1271  0.2002  0.0430
   88CHL1  H19A 8959   4.041   5.681   7.020 -0.1929 -1.5949 -0.6233
   88CHL1  H19B 8960   4.030   5.725   7.201 -0.3093  0.2412  0.1504
   88CHL1  H19C 8961   4.052   5.559   7.158  0.4025  1.1120  2.1542
   88CHL1    C1 8962   3.825   5.542   6.984  0.1352 -0.7579 -0.1209
   88CHL1   H1A 8963   3.876   5.444   6.998  1.1279 -0.0127  1.8725
   88CHL1   H1B 8964   3.717   5.518   6.982 -0.1281 -0.0616  2.1463
   88CHL1    C2 8965   3.862   5.608   6.847  0.2371 -0.5012  0.7636
   88CHL1   H2A 8966   3.857   5.530   6.768  1.5837  0.7878 -0.6475
   88CHL1   H2B 8967   3.966   5.646   6.855 -0.4116  1.2360  1.4041
   88CHL1   C20 8968   3.808   5.328   7.746 -0.0649 -0.9843 -0.0194
   88CHL1   H20 8969   3.909   5.366   7.771 -0.8961  1.1692  0.3190
   88CHL1   C21 8970   3.839   5.198   7.683  0.6627  0.3273  0.1427
   88CHL1  H21A 8971   3.943   5.197   7.644  1.1406 -0.2264  1.3712
   88CHL1  H21B 8972   3.762   5.173   7.607  2.6615 -0.5511 -1.6754
   88CHL1  H21C 8973   3.843   5.112   7.753  0.0990 -0.4479 -0.7627
   88CHL1   C22 8974   3.731   5.311   7.879  0.2263  0.0214 -0.1703
   88CHL1  H22A 8975   3.794   5.230   7.921  1.7094  0.4804 -1.4100
   88CHL1  H22B 8976   3.746   5.399   7.946  0.2698 -0.7531  0.8672
   88CHL1   C23 8977   3.587   5.274   7.846  1.1317 -0.0323 -0.6695
   88CHL1  H23A 8978   3.541   5.359   7.791  1.7999 -1.4426 -3.5902
   88CHL1  H23B 8979   3.584   5.183   7.782  1.5267 -0.0686 -0.6348
   88CHL1   C24 8980   3.502   5.257   7.970 -0.4499 -0.6732 -0.3968
   88CHL1  H24A 8981   3.534   5.341   8.036  2.5570  0.0487 -2.5744
   88CHL1  H24B 8982   3.392   5.269   7.963 -0.6535 -0.4499  2.2623
   88CHL1   C25 8983   3.522   5.126   8.047  0.2876  0.5332  0.0345
   88CHL1   H25 8984   3.633   5.127   8.060  0.7026  1.0134 -2.8580
   88CHL1   C26 8985   3.454   5.138   8.183 -0.2665 -0.9144  0.2540
   88CHL1  H26A 8986   3.501   5.225   8.233 -1.3743 -0.5511  0.6798
   88CHL1  H26B 8987   3.347   5.161   8.163 -0.1429 -0.4431  0.1439
   88CHL1  H26C 8988   3.465   5.046   8.245 -0.8828 -1.0678  0.1417
   88CHL1   C27 8989   3.466   5.007   7.972 -0.3217 -0.8541 -0.2260
   88CHL1  H27A 8990   3.455   4.920   8.040 -0.2731  0.6085  1.7018
   88CHL1  H27B 8991   3.360   5.029   7.947 -0.0229  0.1509 -0.6457
   88CHL1  H27C 8992   3.524   4.985   7.879  0.5086  1.3368 -0.2897
   89CHL1    C3 8993   1.327   1.975   6.992  0.8734  0.0554 -0.2178
   89CHL1    H3 8994   1.379   1.891   7.043 -0.8834  0.2367  2.0089
   89CHL1    O3 8995   1.352   1.970   6.854 -0.3558 -0.3051  0.2290
   89CHL1   H3' 8996   1.280   2.019   6.813  1.1037  1.3285 -0.5312
   89CHL1    C4 8997   1.180   1.964   7.025  0.3190  0.4696 -0.0933
   89CHL1   H4A 8998   1.115   2.046   6.987  1.4729  2.3601  1.7427
   89CHL1   H4B 8999   1.138   1.870   6.983 -1.1797  0.3732  1.4998
   89CHL1    C5 9000   1.155   1.966   7.174  0.5215 -0.1580 -0.1258
   89CHL1    C6 9001   1.091   1.866   7.237 -0.1804 -0.1984 -0.1028
   89CHL1    H6 9002   1.041   1.794   7.171 -0.9342  0.5203 -0.3259
   89CHL1    C7 9003   1.055   1.865   7.391  0.2064  0.5474 -0.1327
   89CHL1   H7A 9004   0.946   1.840   7.389  0.5302 -0.9311 -0.1776
   89CHL1   H7B 9005   1.108   1.781   7.440  1.1735  1.7567  0.9681
   89CHL1    C8 9006   1.076   2.007   7.452 -0.0412 -0.3883 -0.2592
   89CHL1    H8 9007   0.989   2.071   7.425  1.8100  1.3823 -2.4025
   89CHL1   C14 9008   1.080   1.997   7.604 -0.4582  0.3334  0.4046
   89CHL1   H14 9009   1.171   1.936   7.623 -0.1959 -0.4099 -2.7511
   89CHL1   C15 9010   0.975   1.923   7.681 -0.1926 -0.2144  0.2604
   89CHL1  H15A 9011   0.871   1.953   7.657 -0.3242  0.1464  1.2369
   89CHL1  H15B 9012   0.989   1.815   7.657  0.4822  0.1370 -1.0670
   89CHL1   C16 9013   0.995   1.963   7.828  0.5206  0.1309 -0.5060
   89CHL1  H16A 9014   0.906   2.006   7.877  1.8272  0.3345  1.8379
   89CHL1  H16B 9015   1.029   1.876   7.889 -1.3791  0.4573  1.1110
   89CHL1   C17 9016   1.095   2.081   7.830 -0.1008  0.0982  0.3682
   89CHL1   H17 9017   1.198   2.044   7.849  0.8825  1.8596 -1.2082
   89CHL1   C13 9018   1.103   2.131   7.677 -0.1163  0.6602 -0.4537
   89CHL1   C18 9019   0.982   2.223   7.647  0.3613 -0.1849 -1.0068
   89CHL1  H18A 9020   0.959   2.245   7.540 -1.0954 -0.0355 -0.6831
   89CHL1  H18B 9021   0.894   2.181   7.699  0.8763 -0.3999 -0.2967
   89CHL1  H18C 9022   1.010   2.320   7.695  3.5673 -0.7528 -1.4662
   89CHL1   C12 9023   1.236   2.186   7.631 -0.3752 -0.6023 -0.3928
   89CHL1  H12A 9024   1.261   2.281   7.684 -2.0743 -0.9729  1.1434
   89CHL1  H12B 9025   1.311   2.105   7.645 -0.5031 -0.6881 -0.2025
   89CHL1   C11 9026   1.236   2.206   7.480 -0.0811  0.2258 -0.1102
   89CHL1  H11A 9027   1.151   2.274   7.458  0.3603 -0.1954 -3.7196
   89CHL1  H11B 9028   1.334   2.249   7.450  0.6679 -0.5456  1.1167
   89CHL1    C9 9029   1.207   2.073   7.404  0.0536 -0.1858 -0.2338
   89CHL1    H9 9030   1.286   1.999   7.428  2.2629  1.9603 -0.5167
   89CHL1   C10 9031   1.212   2.083   7.250 -0.8198 -0.2080  0.6512
   89CHL1   C19 9032   1.132   2.206   7.202  0.0402  0.1307  0.4382
   89CHL1  H19A 9033   1.023   2.195   7.223 -0.0968 -0.1192 -0.3765
   89CHL1  H19B 9034   1.165   2.305   7.238  4.5016 -0.7388 -0.6268
   89CHL1  H19C 9035   1.148   2.212   7.092  0.7071  3.1347  0.6238
   89CHL1    C1 9036   1.361   2.108   7.208  0.2895 -0.3026  0.3897
   89CHL1   H1A 9037   1.400   2.203   7.252 -2.3920  0.7873  0.5806
   89CHL1   H1B 9038   1.416   2.020   7.247 -0.7332 -0.8196  0.6826
   89CHL1    C2 9039   1.380   2.106   7.051 -0.6280 -1.1443 -0.7487
   89CHL1   H2A 9040   1.485   2.114   7.015 -0.7408  0.7820 -0.7340
   89CHL1   H2B 9041   1.328   2.194   7.007  0.6395  0.1736  0.2684
   89CHL1   C20 9042   1.061   2.183   7.942 -0.2937  0.3387  0.2936
   89CHL1   H20 9043   0.953   2.208   7.946  0.2018  2.5430  3.5794
   89CHL1   C21 9044   1.161   2.305   7.942 -0.3075  0.3963  0.1134
   89CHL1  H21A 9045   1.264   2.266   7.925 -0.4889  0.1432 -0.4222
   89CHL1  H21B 9046   1.167   2.353   8.042  0.5439  0.9264 -0.1750
   89CHL1  H21C 9047   1.131   2.378   7.865 -1.4057  0.2414  0.3825
   89CHL1   C22 9048   1.076   2.101   8.078 -0.8752 -1.3831 -0.2029
   89CHL1  H22A 9049   1.012   2.011   8.072 -1.4948 -0.9487 -0.2790
   89CHL1  H22B 9050   1.182   2.072   8.095 -0.5105 -1.4241 -2.3176
   89CHL1   C23 9051   1.009   2.179   8.194 -0.1493  0.0881  0.0380
   89CHL1  H23A 9052   1.065   2.274   8.204  1.9163 -1.3210  4.3352
   89CHL1  H23B 9053   0.899   2.194   8.186 -0.0733  0.4657 -0.3176
   89CHL1   C24 9054   1.033   2.103   8.325 -0.0740  0.0867  0.7172
   89CHL1  H24A 9055   0.974   2.010   8.324  1.7272 -1.1039  0.7946
   89CHL1  H24B 9056   1.138   2.068   8.329 -0.7038 -1.8029  1.8467
   89CHL1   C25 9057   0.996   2.189   8.443  0.6424 -0.4452 -0.4444
   89CHL1   H25 9058   0.892   2.218   8.417 -0.2958 -2.5651  0.7177
   89CHL1   C26 9059   1.004   2.106   8.578  0.7023  0.9674  0.3399
   89CHL1  H26A 9060   0.953   2.154   8.665  0.2270  2.2475 -0.6117
   89CHL1  H26B 9061   0.971   2.003   8.553  1.1395  1.0427 -0.6067
   89CHL1  H26C 9062   1.110   2.105   8.610  0.4161  0.4651  1.3186
   89CHL1   C27 9063   1.088   2.309   8.461 -0.0649 -0.2460  0.0172
   89CHL1  H27A 9064   1.054   2.354   8.557 -2.9962 -0.7489 -0.7017
   89CHL1  H27B 9065   1.188   2.263   8.479  0.0060  1.0131  3.7991
   89CHL1  H27C 9066   1.086   2.381   8.376  0.0215 -1.4245 -1.0017
   90CHL1    C3 9067   6.712   2.933   6.832  0.0314 -0.1813 -0.6046
   90CHL1    H3 9068   6.716   3.043   6.820  0.5377 -0.1850 -0.4705
   90CHL1    O3 9069   6.691   2.876   6.704  0.0038 -0.1136  0.3367
   90CHL1   H3' 9070   6.667   2.952   6.651 -1.7134  0.0761  1.3012
   90CHL1    C4 9071   6.850   2.887   6.885 -0.7192 -0.2188 -0.2754
   90CHL1   H4A 9072   6.863   2.776   6.893 -0.2996 -0.1764 -0.3240
   90CHL1   H4B 9073   6.927   2.927   6.816 -0.7983  1.1375  0.4014
   90CHL1    C5 9074   6.872   2.940   7.024 -0.3689  1.0753 -0.9102
   90CHL1    C6 9075   6.990   3.003   7.057  0.2399 -0.4630  0.8262
   90CHL1    H6 9076   7.071   3.007   6.983 -0.6305  1.3809 -0.1041
   90CHL1    C7 9077   7.027   3.060   7.189 -0.2818 -0.3790  0.1071
   90CHL1   H7A 9078   7.130   3.038   7.224 -0.3679  1.9462  2.0962
   90CHL1   H7B 9079   7.000   3.168   7.181 -0.3512 -0.3821  0.3057
   90CHL1    C8 9080   6.929   3.007   7.294 -0.4522  0.4718 -0.3347
   90CHL1    H8 9081   6.952   2.899   7.306  0.1727  0.6277 -0.0968
   90CHL1   C14 9082   6.945   3.085   7.431 -0.1438 -0.2078  0.1709
   90CHL1   H14 9083   6.931   3.189   7.393 -0.1187 -0.2740 -0.0154
   90CHL1   C15 9084   7.083   3.094   7.502 -0.3107 -0.0622 -0.0454
   90CHL1  H15A 9085   7.133   2.995   7.511  1.0552  0.6246  0.2581
   90CHL1  H15B 9086   7.147   3.168   7.450  0.7167  0.8207  2.3576
   90CHL1   C16 9087   7.055   3.155   7.644 -0.2728 -1.1804  0.3137
   90CHL1  H16A 9088   7.104   3.089   7.718 -0.7815  0.3777  2.1042
   90CHL1  H16B 9089   7.095   3.258   7.657 -0.4678 -1.1315  0.5341
   90CHL1   C17 9090   6.896   3.149   7.664 -0.3768  0.2460  0.6450
   90CHL1   H17 9091   6.858   3.250   7.640  1.5959  0.7939 -0.4059
   90CHL1   C13 9092   6.850   3.055   7.549 -0.1127 -0.6411  0.3675
   90CHL1   C18 9093   6.871   2.906   7.596  0.4747  0.5240 -0.2853
   90CHL1  H18A 9094   6.859   2.831   7.516  0.1357  1.4284 -1.1044
   90CHL1  H18B 9095   6.974   2.898   7.636  0.7345  0.9595 -0.8604
   90CHL1  H18C 9096   6.798   2.887   7.678  1.0642  0.1427  0.1610
   90CHL1   C12 9097   6.709   3.081   7.493  0.6268 -0.3214 -0.3865
   90CHL1  H12A 9098   6.633   3.048   7.567  0.3219 -0.8618 -0.9299
   90CHL1  H12B 9099   6.692   3.189   7.474  2.4681  0.0136 -0.3863
   90CHL1   C11 9100   6.684   3.000   7.360  0.4746 -0.1207  0.1960
   90CHL1  H11A 9101   6.660   2.895   7.387 -0.1311 -0.2207 -0.6886
   90CHL1  H11B 9102   6.585   3.041   7.331 -0.7257 -0.5204  3.3575
   90CHL1    C9 9103   6.786   3.023   7.246  0.2809  1.0130  0.3138
   90CHL1    H9 9104   6.771   3.128   7.214  0.5653  0.4863 -1.6424
   90CHL1   C10 9105   6.751   2.929   7.124  0.4786 -0.3144 -0.2092
   90CHL1   C19 9106   6.728   2.777   7.168  0.6166  0.4156 -0.0635
   90CHL1  H19A 9107   6.634   2.780   7.227  0.0957  4.9989 -0.7292
   90CHL1  H19B 9108   6.722   2.715   7.076  1.2959 -0.7348  0.6435
   90CHL1  H19C 9109   6.810   2.740   7.233  0.6986  0.4689 -0.1346
   90CHL1    C1 9110   6.613   2.980   7.059  0.1718  0.5661 -0.3626
   90CHL1   H1A 9111   6.524   2.957   7.121 -1.4348  1.8912 -2.0265
   90CHL1   H1B 9112   6.614   3.091   7.047  1.2469  0.2938 -4.5794
   90CHL1    C2 9113   6.593   2.906   6.932 -1.0162 -0.0995 -0.6202
   90CHL1   H2A 9114   6.500   2.944   6.884 -0.4592  0.1633 -1.5199
   90CHL1   H2B 9115   6.582   2.796   6.939 -0.2314 -0.1454  0.0640
   90CHL1   C20 9116   6.851   3.115   7.807  0.3935  0.5786  0.2236
   90CHL1   H20 9117   6.884   3.014   7.837 -1.7128 -0.5748 -1.1013
   90CHL1   C21 9118   6.697   3.128   7.811 -0.7696  0.3783 -0.0910
   90CHL1  H21A 9119   6.673   3.147   7.918  2.1582 -2.2859  1.1988
   90CHL1  H21B 9120   6.649   3.034   7.779  0.1297 -0.7098  1.6174
   90CHL1  H21C 9121   6.649   3.212   7.755  2.1054  1.3844 -1.2193
   90CHL1   C22 9122   6.922   3.214   7.906  0.2565 -0.0518 -0.2051
   90CHL1  H22A 9123   7.028   3.238   7.883  0.3347 -0.1831  0.0232
   90CHL1  H22B 9124   6.858   3.305   7.907  2.3027  1.4540 -0.4814
   90CHL1   C23 9125   6.928   3.159   8.046 -0.0920 -0.1464 -0.6718
   90CHL1  H23A 9126   6.833   3.108   8.071 -0.3619 -0.1856 -1.7193
   90CHL1  H23B 9127   7.006   3.082   8.061  0.0098  0.2863  1.1235
   90CHL1   C24 9128   6.955   3.265   8.156 -0.8357  0.6232  0.5163
   90CHL1  H24A 9129   7.064   3.285   8.154 -0.6185 -0.4971  0.5106
   90CHL1  H24B 9130   6.903   3.352   8.110  0.6656 -0.5383 -3.8176
   90CHL1   C25 9131   6.907   3.233   8.297 -0.1099 -0.7292 -0.0560
   90CHL1   H25 9132   6.802   3.199   8.305  0.0182 -0.8510  1.3249
   90CHL1   C26 9133   6.986   3.121   8.358 -0.3607 -0.1712  0.4135
   90CHL1  H26A 9134   6.976   3.028   8.298  0.2831 -0.4764  0.7685
   90CHL1  H26B 9135   7.091   3.156   8.366 -0.4366  0.6465 -1.6272
   90CHL1  H26C 9136   6.949   3.097   8.460  0.6643 -1.5665  0.4919
   90CHL1   C27 9137   6.918   3.356   8.389 -0.1172  0.5490  0.4547
   90CHL1  H27A 9138   7.022   3.392   8.396 -0.0147  0.1278  1.1526
   90CHL1  H27B 9139   6.841   3.432   8.363  1.0401  2.0521  1.2936
   90CHL1  H27C 9140   6.897   3.324   8.493  0.2176 -2.9109 -0.3988
   91CHL1    C3 9141   2.248   5.605   7.102 -0.2476  0.9675  0.0978
   91CHL1    H3 9142   2.157   5.541   7.107 -0.5265  1.1439 -1.9345
   91CHL1    O3 9143   2.290   5.616   6.971 -0.1840  0.0158  0.0206
   91CHL1   H3' 9144   2.385   5.608   6.988 -0.3349  0.0190  0.9495
   91CHL1    C4 9145   2.203   5.740   7.144  0.3560 -0.5761  0.2080
   91CHL1   H4A 9146   2.290   5.809   7.139  0.3194 -0.6046 -1.2724
   91CHL1   H4B 9147   2.134   5.796   7.077  2.5952  1.0851 -0.8501
   91CHL1    C5 9148   2.147   5.731   7.286  0.2007 -0.4457  0.3177
   91CHL1    C6 9149   2.018   5.762   7.314 -0.1641 -0.0922  0.3975
   91CHL1    H6 9150   1.949   5.800   7.238 -2.0415 -0.6365  1.7536
   91CHL1    C7 9151   1.959   5.758   7.452 -0.2765  0.4380  0.5322
   91CHL1   H7A 9152   1.903   5.852   7.468 -3.1041 -1.1036  0.3132
   91CHL1   H7B 9153   1.891   5.672   7.468 -0.0032 -0.3077 -1.9027
   91CHL1    C8 9154   2.060   5.744   7.566 -0.1782 -0.2539 -0.0400
   91CHL1    H8 9155   2.115   5.839   7.580  0.7398 -0.4068 -2.1339
   91CHL1   C14 9156   1.983   5.708   7.691  0.3087 -0.8753  0.7820
   91CHL1   H14 9157   1.923   5.617   7.668  1.6157 -2.2229  2.4319
   91CHL1   C15 9158   1.873   5.808   7.745 -0.6542 -0.6366  1.1061
   91CHL1  H15A 9159   1.901   5.915   7.730 -1.6008 -0.5402 -0.1749
   91CHL1  H15B 9160   1.777   5.807   7.689  0.4406  2.4130 -1.1846
   91CHL1   C16 9161   1.859   5.771   7.889 -0.3437 -0.4052 -1.1302
   91CHL1  H16A 9162   1.889   5.856   7.953 -1.0657 -0.9318 -0.0688
   91CHL1  H16B 9163   1.754   5.741   7.911  0.0563  0.0863  1.8438
   91CHL1   C17 9164   1.961   5.653   7.907 -0.1984 -0.4904 -0.8244
   91CHL1   H17 9165   1.901   5.566   7.872 -0.3948 -1.5364  1.9205
   91CHL1   C13 9166   2.076   5.675   7.809 -0.5494  0.1878 -0.3923
   91CHL1   C18 9167   2.164   5.799   7.861  0.7029 -0.3758  0.1033
   91CHL1  H18A 9168   2.094   5.877   7.899  1.3718  0.4942 -0.4108
   91CHL1  H18B 9169   2.224   5.755   7.943  2.5975  0.5895 -0.7238
   91CHL1  H18C 9170   2.230   5.841   7.782 -0.5391 -0.4890 -1.0365
   91CHL1   C12 9171   2.170   5.562   7.775 -0.3547 -0.0082  0.1995
   91CHL1  H12A 9172   2.241   5.560   7.860  1.6790  2.0110 -1.3228
   91CHL1  H12B 9173   2.108   5.474   7.746  1.0230 -1.0210  0.2197
   91CHL1   C11 9174   2.248   5.592   7.649  0.5057  0.5024 -0.2881
   91CHL1  H11A 9175   2.337   5.652   7.677  2.3214 -1.6820 -1.0201
   91CHL1  H11B 9176   2.294   5.497   7.612  0.0087  0.1520 -0.0120
   91CHL1    C9 9177   2.162   5.640   7.526 -0.1867 -0.5136 -0.8192
   91CHL1    H9 9178   2.101   5.553   7.495 -0.5588  0.1984 -2.1486
   91CHL1   C10 9179   2.237   5.669   7.390  0.1947 -0.5670  0.1259
   91CHL1   C19 9180   2.347   5.765   7.416 -0.9551  0.5578 -0.0788
   91CHL1  H19A 9181   2.403   5.792   7.324 -1.9587  0.5027 -0.7194
   91CHL1  H19B 9182   2.306   5.861   7.454  0.1721  1.5683 -1.3088
   91CHL1  H19C 9183   2.423   5.716   7.480 -0.6129 -1.4594 -1.9365
   91CHL1    C1 9184   2.303   5.538   7.343  0.6849  0.6671 -0.2813
   91CHL1   H1A 9185   2.386   5.504   7.410  1.8428 -1.6892 -2.7136
   91CHL1   H1B 9186   2.225   5.460   7.354  1.5572  0.0243  2.0117
   91CHL1    C2 9187   2.355   5.538   7.198 -0.5573 -0.2512  0.2410
   91CHL1   H2A 9188   2.377   5.432   7.171  0.9018 -0.0594  0.5790
   91CHL1   H2B 9189   2.442   5.607   7.195 -1.3752  0.9175  1.9324
   91CHL1   C20 9190   1.990   5.616   8.051  0.6448  0.2936  0.0650
   91CHL1   H20 9191   2.065   5.688   8.090 -0.6929  0.6399  2.2117
   91CHL1   C21 9192   2.033   5.469   8.066  0.3200  0.2368  0.7356
   91CHL1  H21A 9193   1.940   5.412   8.088 -0.0933  0.2238 -0.9624
   91CHL1  H21B 9194   2.100   5.474   8.155 -0.9067  2.0053  1.6216
   91CHL1  H21C 9195   2.075   5.425   7.973  0.7207 -0.2989  1.1634
   91CHL1   C22 9196   1.873   5.646   8.150  0.1444 -0.2270  0.4090
   91CHL1  H22A 9197   1.843   5.753   8.154 -0.1564 -0.0547 -3.4024
   91CHL1  H22B 9198   1.783   5.601   8.102 -0.5428  2.6958 -1.2759
   91CHL1   C23 9199   1.891   5.604   8.289  0.2449 -0.1046 -0.3203
   91CHL1  H23A 9200   1.883   5.493   8.299  1.0270 -0.0142  2.1877
   91CHL1  H23B 9201   1.990   5.637   8.329  0.5833 -2.0165  0.5413
   91CHL1   C24 9202   1.775   5.673   8.380 -0.2740  0.2719  0.9256
   91CHL1  H24A 9203   1.807   5.778   8.364  0.3396  0.5500  3.5169
   91CHL1  H24B 9204   1.677   5.660   8.330  0.6799 -1.0810 -0.6963
   91CHL1   C25 9205   1.770   5.656   8.528 -0.3199 -0.2514 -0.8097
   91CHL1   H25 9206   1.697   5.725   8.575  0.4264 -0.3314  0.4978
   91CHL1   C26 9207   1.716   5.514   8.563 -0.1025  0.2521  0.3711
   91CHL1  H26A 9208   1.795   5.442   8.533  0.3628  0.5359  0.9000
   91CHL1  H26B 9209   1.710   5.490   8.671  0.0103  1.1028  0.5776
   91CHL1  H26C 9210   1.616   5.490   8.522  0.3577  0.0278 -0.6442
   91CHL1   C27 9211   1.907   5.674   8.606 -0.5324  0.3496 -0.9177
   91CHL1  H27A 9212   1.899   5.678   8.716 -1.3264  1.4098 -0.9920
   91CHL1  H27B 9213   1.966   5.584   8.579  0.1554  1.3985 -3.2004
   91CHL1  H27C 9214   1.962   5.764   8.571  2.5426 -1.1361 -0.2004
   92CHL1    C3 9215   4.842   6.169   6.895  0.2337  0.6587 -0.0659
   92CHL1    H3 9216   4.917   6.094   6.928  1.2965  1.7418  0.0582
   92CHL1    O3 9217   4.860   6.184   6.751  0.9303  0.4467  0.3033
   92CHL1   H3' 9218   4.781   6.228   6.720  1.2836  1.2634  0.5314
   92CHL1    C4 9219   4.696   6.113   6.926  0.1836  0.1167  0.4322
   92CHL1   H4A 9220   4.612   6.175   6.889 -1.2598 -1.5317  0.7906
   92CHL1   H4B 9221   4.697   6.013   6.878 -0.1691  0.6050 -0.6299
   92CHL1    C5 9222   4.673   6.102   7.075  0.7674 -0.0733 -0.5358
   92CHL1    C6 9223   4.663   5.985   7.137  0.4373  0.0809 -1.0922
   92CHL1    H6 9224   4.664   5.896   7.071 -0.9588  0.6830 -1.9808
   92CHL1    C7 9225   4.633   5.967   7.283 -0.0685  0.0552  0.3123
   92CHL1   H7A 9226   4.545   5.900   7.297 -1.0640  0.8605 -1.6550
   92CHL1   H7B 9227   4.721   5.932   7.340  1.7622 -0.0673 -2.3837
   92CHL1    C8 9228   4.596   6.106   7.351 -0.3814  0.7495 -0.3082
   92CHL1    H8 9229   4.496   6.138   7.315  0.3674  1.3045 -1.9825
   92CHL1   C14 9230   4.602   6.092   7.502 -0.0421 -0.2686  0.2067
   92CHL1   H14 9231   4.712   6.077   7.513  0.4959  3.1622  0.5003
   92CHL1   C15 9232   4.530   5.973   7.571  0.1809 -0.1081  0.1665
   92CHL1  H15A 9233   4.438   5.952   7.513  0.2429 -1.3791  0.4940
   92CHL1  H15B 9234   4.587   5.879   7.564  0.8842  0.4173 -2.2111
   92CHL1   C16 9235   4.523   6.018   7.717 -0.5719 -0.0965  0.1770
   92CHL1  H16A 9236   4.416   6.030   7.745 -0.1224  0.6544  1.7254
   92CHL1  H16B 9237   4.579   5.960   7.794  1.9908  1.0524 -0.7003
   92CHL1   C17 9238   4.575   6.165   7.723  0.1778 -0.7359 -0.3400
   92CHL1   H17 9239   4.686   6.158   7.727  0.2595  0.4243 -0.0056
   92CHL1   C13 9240   4.558   6.221   7.581  0.4526  0.2264  0.2184
   92CHL1   C18 9241   4.405   6.260   7.548 -0.6194 -0.3231 -0.1658
   92CHL1  H18A 9242   4.399   6.266   7.438  1.6837  1.2397 -0.2935
   92CHL1  H18B 9243   4.332   6.183   7.580 -0.6720 -0.3024 -0.2374
   92CHL1  H18C 9244   4.386   6.362   7.588  0.1070  0.7391 -2.3774
   92CHL1   C12 9245   4.656   6.331   7.539 -1.0316 -0.5076  0.0592
   92CHL1  H12A 9246   4.652   6.432   7.585  1.4664 -0.8625  1.2704
   92CHL1  H12B 9247   4.759   6.300   7.569 -1.2818 -0.9995  0.4261
   92CHL1   C11 9248   4.661   6.352   7.382  0.4310 -0.9035  0.7553
   92CHL1  H11A 9249   4.553   6.378   7.368  0.2874 -2.1133 -0.6218
   92CHL1  H11B 9250   4.729   6.436   7.358  0.1632 -0.7028  0.6850
   92CHL1    C9 9251   4.689   6.221   7.308 -0.0014 -0.9193  0.0810
   92CHL1    H9 9252   4.790   6.180   7.329  0.8131  0.1791 -1.5193
   92CHL1   C10 9253   4.688   6.234   7.150  0.5828  0.0270 -1.1652
   92CHL1   C19 9254   4.572   6.332   7.105  0.2116 -0.2604 -0.1642
   92CHL1  H19A 9255   4.593   6.355   6.999  0.0807 -2.1656 -0.6386
   92CHL1  H19B 9256   4.475   6.279   7.091  0.2943 -0.0201 -1.8127
   92CHL1  H19C 9257   4.564   6.428   7.161 -4.3460  0.5718 -1.7264
   92CHL1    C1 9258   4.823   6.294   7.117  0.4416 -0.2846 -0.1769
   92CHL1   H1A 9259   4.826   6.395   7.163  2.1883 -0.0968 -0.6197
   92CHL1   H1B 9260   4.908   6.243   7.168  1.6585  1.6089 -0.1912
   92CHL1    C2 9261   4.848   6.301   6.966 -0.2841  0.0006 -0.1016
   92CHL1   H2A 9262   4.950   6.344   6.953  0.4123 -1.4066  0.4089
   92CHL1   H2B 9263   4.784   6.376   6.914 -0.5603  1.1429  1.8194
   92CHL1   C20 9264   4.523   6.251   7.841  0.0701  0.9645 -0.0540
   92CHL1   H20 9265   4.413   6.262   7.835  0.0717  0.8501 -0.3089
   92CHL1   C21 9266   4.587   6.394   7.838 -0.0527 -1.1288  0.0370
   92CHL1  H21A 9267   4.692   6.392   7.803  1.0259 -2.1030  2.9926
   92CHL1  H21B 9268   4.583   6.450   7.934  2.0959 -0.8574  0.0045
   92CHL1  H21C 9269   4.511   6.440   7.771 -1.1672 -1.5186  0.9929
   92CHL1   C22 9270   4.554   6.195   7.983 -0.3533 -0.4265 -0.0812
   92CHL1  H22A 9271   4.663   6.172   7.981  0.1111  1.4679  0.8037
   92CHL1  H22B 9272   4.555   6.282   8.052  0.9230  0.1436 -0.7670
   92CHL1   C23 9273   4.467   6.087   8.038 -0.0119  0.4351 -0.5147
   92CHL1  H23A 9274   4.367   6.105   7.993 -0.5598  0.6428  0.7388
   92CHL1  H23B 9275   4.501   5.985   8.010  0.6445  0.6077 -0.3437
   92CHL1   C24 9276   4.470   6.088   8.193 -0.1018  0.3599 -0.4207
   92CHL1  H24A 9277   4.576   6.073   8.224 -0.2533 -0.4449 -0.2715
   92CHL1  H24B 9278   4.430   6.189   8.214 -0.5353  0.1058  0.0012
   92CHL1   C25 9279   4.378   5.986   8.263 -0.2046  0.1668  0.0111
   92CHL1   H25 9280   4.274   6.017   8.242  0.5567  1.4371 -2.1103
   92CHL1   C26 9281   4.378   5.838   8.212 -0.4092 -0.7528 -0.2329
   92CHL1  H26A 9282   4.379   5.834   8.101  1.5072  0.0864 -0.2925
   92CHL1  H26B 9283   4.475   5.787   8.230 -0.4712 -1.3805 -1.5058
   92CHL1  H26C 9284   4.298   5.770   8.248 -0.4790 -1.2185 -1.2328
   92CHL1   C27 9285   4.399   5.978   8.415 -0.3255  0.0822 -0.1092
   92CHL1  H27A 9286   4.377   6.072   8.470  1.4302 -0.4187  1.5333
   92CHL1  H27B 9287   4.341   5.894   8.457 -1.2241  2.2852  3.4515
   92CHL1  H27C 9288   4.504   5.946   8.435 -0.0842  1.8599  1.7433
   93CHL1    C3 9289   1.920   3.985   6.846  0.7735  0.1227  0.6620
   93CHL1    H3 9290   1.897   3.878   6.867  0.3469  0.7645  4.0668
   93CHL1    O3 9291   1.891   4.001   6.711  0.0720 -0.0897 -0.1013
   93CHL1   H3' 9292   1.923   4.091   6.701 -0.3661 -0.0564 -1.2787
   93CHL1    C4 9293   1.825   4.065   6.932  0.3874  0.3605 -1.0172
   93CHL1   H4A 9294   1.824   4.173   6.906 -0.1907  0.6413  0.1257
   93CHL1   H4B 9295   1.721   4.048   6.895  0.2590  0.5792 -0.7593
   93CHL1    C5 9296   1.837   4.043   7.078 -0.0299 -0.5550 -0.0595
   93CHL1    C6 9297   1.730   4.011   7.148 -0.1776 -0.0555  0.2880
   93CHL1    H6 9298   1.635   3.999   7.093 -0.4293 -0.1899  0.7449
   93CHL1    C7 9299   1.730   3.989   7.300 -0.4276  0.9778 -0.3325
   93CHL1   H7A 9300   1.658   4.064   7.338 -0.9929  0.9574 -1.3304
   93CHL1   H7B 9301   1.698   3.888   7.337  2.2139  0.2770  0.2482
   93CHL1    C8 9302   1.863   4.034   7.369 -0.0748 -0.1547 -0.3829
   93CHL1    H8 9303   1.878   4.144   7.372  1.8731 -0.3731 -0.8272
   93CHL1   C14 9304   1.879   3.964   7.506  0.0025  0.3262  0.0483
   93CHL1   H14 9305   1.885   3.855   7.483  1.8403  0.2448  0.7108
   93CHL1   C15 9306   1.765   3.975   7.606  0.7614 -0.3209 -0.4727
   93CHL1  H15A 9307   1.747   4.084   7.616 -0.8274 -0.6192  0.2516
   93CHL1  H15B 9308   1.665   3.932   7.585  0.5586  0.3424 -0.8802
   93CHL1   C16 9309   1.833   3.931   7.742  0.0532 -0.1064  0.6267
   93CHL1  H16A 9310   1.814   4.004   7.824 -1.7434  0.3493 -0.1601
   93CHL1  H16B 9311   1.788   3.835   7.776 -0.7403  0.4539  1.1758
   93CHL1   C17 9312   1.991   3.917   7.711  0.2187 -0.7667 -0.3391
   93CHL1   H17 9313   2.002   3.807   7.700  1.7053 -0.8063  1.1460
   93CHL1   C13 9314   2.015   3.992   7.578  0.0857  0.4445  0.1652
   93CHL1   C18 9315   2.031   4.148   7.600  0.0300 -0.6644  0.3470
   93CHL1  H18A 9316   2.011   4.206   7.507  0.0941 -0.5564  0.4010
   93CHL1  H18B 9317   1.957   4.191   7.671 -0.8089  0.6628 -1.2540
   93CHL1  H18C 9318   2.131   4.177   7.639  0.1860 -1.6894  0.7264
   93CHL1   C12 9319   2.127   3.934   7.487 -0.4915  0.0105 -0.3047
   93CHL1  H12A 9320   2.232   3.945   7.522 -0.7935 -0.4934  0.7842
   93CHL1  H12B 9321   2.110   3.824   7.484  2.1717 -0.4536 -0.5979
   93CHL1   C11 9322   2.126   3.984   7.339  0.1423 -0.4343  0.2832
   93CHL1  H11A 9323   2.172   4.084   7.327  1.5774 -1.2106 -1.0112
   93CHL1  H11B 9324   2.195   3.916   7.284  2.2778  1.8144  0.0068
   93CHL1    C9 9325   1.987   3.986   7.273  0.5331 -0.2501 -0.3702
   93CHL1    H9 9326   1.974   3.880   7.244  2.4538 -0.5323 -0.3268
   93CHL1   C10 9327   1.985   4.050   7.135  0.2560 -0.1935 -0.9758
   93CHL1   C19 9328   2.033   4.201   7.140 -0.4926 -0.4968  0.5109
   93CHL1  H19A 9329   1.980   4.250   7.055  0.5659 -0.1255  0.0579
   93CHL1  H19B 9330   1.999   4.256   7.231 -0.2547  0.2427  0.1550
   93CHL1  H19C 9331   2.141   4.202   7.115 -1.2305 -2.2116 -3.4110
   93CHL1    C1 9332   2.077   3.960   7.036 -0.6343  0.0320  0.7174
   93CHL1   H1A 9333   2.184   3.966   7.066 -0.0910 -1.3121 -0.8006
   93CHL1   H1B 9334   2.033   3.858   7.032  1.1608 -0.8315  1.7220
   93CHL1    C2 9335   2.072   4.000   6.884  0.6213 -0.1636  0.0582
   93CHL1   H2A 9336   2.131   3.926   6.826 -0.5964 -0.1070 -1.3008
   93CHL1   H2B 9337   2.100   4.103   6.851 -2.3277  0.0861 -2.0373
   93CHL1   C20 9338   2.079   3.962   7.828 -0.5889  0.5401 -0.4567
   93CHL1   H20 9339   2.043   4.061   7.864 -0.7479  0.5179 -0.5506
   93CHL1   C21 9340   2.232   3.953   7.796 -0.5144 -0.0303  0.1365
   93CHL1  H21A 9341   2.257   3.854   7.753 -0.6868  0.9784 -2.5127
   93CHL1  H21B 9342   2.294   3.963   7.887  1.0262 -0.3202 -0.8522
   93CHL1  H21C 9343   2.265   4.033   7.725  3.0462 -1.6293 -0.2236
   93CHL1   C22 9344   2.058   3.870   7.953 -0.1248 -0.7330 -0.1732
   93CHL1  H22A 9345   1.953   3.835   7.962 -0.8218  1.0622 -0.9593
   93CHL1  H22B 9346   2.111   3.775   7.930 -0.3309 -1.0653  0.7019
   93CHL1   C23 9347   2.115   3.926   8.084 -0.9472  0.1919 -0.3445
   93CHL1  H23A 9348   2.223   3.909   8.102 -1.2631  0.2716  2.0210
   93CHL1  H23B 9349   2.114   4.037   8.084  0.4604  0.2209 -1.0166
   93CHL1   C24 9350   2.056   3.869   8.217 -0.4228 -0.4010  0.3933
   93CHL1  H24A 9351   1.946   3.887   8.221 -0.0592  1.9837  1.3639
   93CHL1  H24B 9352   2.073   3.760   8.208 -1.6773 -0.6338  0.6432
   93CHL1   C25 9353   2.124   3.908   8.355  0.4637  0.1255  0.4561
   93CHL1   H25 9354   2.226   3.863   8.356  1.0808  1.4471 -0.5348
   93CHL1   C26 9355   2.136   4.057   8.364  0.3020  0.2156 -0.1965
   93CHL1  H26A 9356   2.178   4.089   8.462 -1.7167  0.6983  0.5557
   93CHL1  H26B 9357   2.201   4.108   8.290  1.2229 -1.0086 -0.2738
   93CHL1  H26C 9358   2.033   4.099   8.368 -0.6990 -2.1485  2.7849
   93CHL1   C27 9359   2.046   3.862   8.479 -0.2651  0.0593  0.6047
   93CHL1  H27A 9360   2.106   3.885   8.569 -0.1701 -2.1672  1.1876
   93CHL1  H27B 9361   1.948   3.914   8.470 -1.6907 -2.4667  0.4845
   93CHL1  H27C 9362   2.029   3.752   8.476 -1.1092  0.1726  0.9356
   94CHL1    C3 9363   4.121   0.272   6.839  0.5657 -0.4658  0.9100
   94CHL1    H3 9364   4.039   0.346   6.825  0.2430 -0.9356  0.2833
   94CHL1    O3 9365   4.170   0.233   6.713  0.3684 -0.2712  0.3318
   94CHL1   H3' 9366   4.098   0.183   6.674 -0.4927  1.5947 -0.5973
   94CHL1    C4 9367   4.226   0.331   6.935 -0.3338 -0.4665  0.0072
   94CHL1   H4A 9368   4.311   0.260   6.933 -0.1810 -0.3016  0.3748
   94CHL1   H4B 9369   4.265   0.421   6.884  2.7901 -1.5676  0.2605
   94CHL1    C5 9370   4.168   0.368   7.070 -0.3625  0.1658  0.0130
   94CHL1    C6 9371   4.171   0.493   7.114  0.4744  0.3000  0.7861
   94CHL1    H6 9372   4.208   0.566   7.042  1.4842 -0.6957  0.2653
   94CHL1    C7 9373   4.141   0.536   7.259  1.1198  0.7365 -0.3269
   94CHL1   H7A 9374   4.223   0.607   7.285  0.6350  0.9688  0.6328
   94CHL1   H7B 9375   4.041   0.585   7.265  1.0411  0.5446 -0.0086
   94CHL1    C8 9376   4.130   0.417   7.350 -0.0545 -0.3117 -0.8026
   94CHL1    H8 9377   4.232   0.377   7.370 -0.5625 -0.8278  0.9502
   94CHL1   C14 9378   4.079   0.454   7.488  0.1648  0.3961 -0.5242
   94CHL1   H14 9379   3.977   0.494   7.469 -0.2183  0.6781  1.7731
   94CHL1   C15 9380   4.154   0.558   7.556 -0.1255  0.1355  0.2937
   94CHL1  H15A 9381   4.265   0.544   7.555  0.3458  3.1029 -1.2537
   94CHL1  H15B 9382   4.156   0.662   7.518  1.7220  1.6057  3.8858
   94CHL1   C16 9383   4.112   0.540   7.697  0.3425 -0.8237 -0.6316
   94CHL1  H16A 9384   4.193   0.554   7.772 -0.1563  0.8737 -0.3597
   94CHL1  H16B 9385   4.027   0.607   7.724  1.8734  1.6514 -1.6980
   94CHL1   C17 9386   4.026   0.401   7.711 -0.2902  0.6102 -0.4612
   94CHL1   H17 9387   3.919   0.428   7.709 -1.2184 -2.3810  1.3538
   94CHL1   C13 9388   4.066   0.332   7.576  1.3635  0.3047  0.3172
   94CHL1   C18 9389   4.198   0.265   7.590 -0.0927  0.1739 -1.2687
   94CHL1  H18A 9390   4.231   0.231   7.490  2.3383  0.0372 -0.4822
   94CHL1  H18B 9391   4.272   0.329   7.643  0.1806  0.7543 -2.3342
   94CHL1  H18C 9392   4.185   0.169   7.646 -0.6452  1.7708  1.5449
   94CHL1   C12 9393   3.956   0.237   7.519 -0.2580  0.1175 -0.1269
   94CHL1  H12A 9394   3.945   0.148   7.586 -0.1553  0.1466 -0.0695
   94CHL1  H12B 9395   3.859   0.290   7.529  0.7121  1.8559  0.5188
   94CHL1   C11 9396   3.991   0.191   7.380 -0.0411 -0.1159  0.6418
   94CHL1  H11A 9397   4.070   0.117   7.406  0.7665  0.4676 -0.1184
   94CHL1  H11B 9398   3.909   0.130   7.336  2.0964 -3.0654  0.3919
   94CHL1    C9 9399   4.045   0.304   7.285 -0.4681  0.4299 -0.2207
   94CHL1    H9 9400   3.951   0.354   7.254 -1.6689 -0.7052  1.3755
   94CHL1   C10 9401   4.113   0.252   7.156  0.2002 -0.3419 -0.4315
   94CHL1   C19 9402   4.230   0.158   7.200 -0.4684 -0.4709 -0.4553
   94CHL1  H19A 9403   4.301   0.211   7.268 -1.4608 -1.0776  1.0904
   94CHL1  H19B 9404   4.188   0.066   7.245 -1.9956  0.6584  0.5328
   94CHL1  H19C 9405   4.295   0.121   7.118  1.0427  2.1545 -0.5531
   94CHL1    C1 9406   4.018   0.181   7.061 -0.0680  0.1608 -0.0954
   94CHL1   H1A 9407   3.993   0.082   7.103 -1.4082 -0.0677 -1.3581
   94CHL1   H1B 9408   3.923   0.239   7.067 -0.1206  0.0977 -0.3087
   94CHL1    C2 9409   4.057   0.148   6.912  0.7187  0.1853 -0.2624
   94CHL1   H2A 9410   3.969   0.118   6.853  1.0519  0.7845 -1.0791
   94CHL1   H2B 9411   4.134   0.069   6.913 -0.2677 -0.9595 -3.4545
   94CHL1   C20 9412   4.050   0.327   7.845  0.3117 -0.7515 -0.4053
   94CHL1   H20 9413   4.155   0.290   7.846  0.2697 -0.8709 -0.3539
   94CHL1   C21 9414   3.964   0.199   7.851 -0.0062  0.1538  0.0286
   94CHL1  H21A 9415   3.958   0.147   7.949 -0.5210 -1.3928 -0.7963
   94CHL1  H21B 9416   4.006   0.124   7.780  0.4312 -0.2826  0.7256
   94CHL1  H21C 9417   3.861   0.225   7.820  0.1546  2.3620  1.1439
   94CHL1   C22 9418   4.016   0.423   7.963 -0.1421  0.1574 -0.1134
   94CHL1  H22A 9419   4.096   0.500   7.967  0.6030 -0.6511  1.2753
   94CHL1  H22B 9420   3.929   0.485   7.930  0.8731  1.9392  0.3964
   94CHL1   C23 9421   3.997   0.359   8.104 -0.2371  0.0364 -0.3098
   94CHL1  H23A 9422   3.907   0.294   8.104  1.0971 -1.9112 -1.2630
   94CHL1  H23B 9423   4.082   0.290   8.126 -1.2287 -1.2977 -0.5567
   94CHL1   C24 9424   3.978   0.454   8.216 -0.2321 -0.0233 -0.8178
   94CHL1  H24A 9425   4.070   0.515   8.229  0.7322 -1.5244 -0.3616
   94CHL1  H24B 9426   3.896   0.527   8.202 -0.0317  0.2110 -0.7881
   94CHL1   C25 9427   3.941   0.396   8.355  0.3335 -0.3078 -0.4535
   94CHL1   H25 9428   3.838   0.353   8.357 -0.4764  1.5849  0.6474
   94CHL1   C26 9429   4.031   0.275   8.401 -0.5781 -0.3966  0.2207
   94CHL1  H26A 9430   4.137   0.302   8.386 -1.2744  1.3954 -2.2095
   94CHL1  H26B 9431   4.010   0.244   8.506 -0.5333  0.1387  0.3954
   94CHL1  H26C 9432   4.012   0.190   8.333  0.7676 -0.4373 -0.1110
   94CHL1   C27 9433   3.950   0.504   8.465  0.5763  0.5003  0.1924
   94CHL1  H27A 9434   4.054   0.542   8.475  0.5582  0.4788  0.4603
   94CHL1  H27B 9435   3.900   0.597   8.429 -1.3147 -1.6462 -3.3595
   94CHL1  H27C 9436   3.913   0.469   8.564 -1.8698  1.0117 -0.4570
   95CHL1    C3 9437   3.063   6.167   6.710 -0.2028  0.3406  0.0514
   95CHL1    H3 9438   2.969   6.212   6.749 -0.4947 -0.1699 -0.0545
   95CHL1    O3 9439   3.060   6.191   6.572 -0.1548  0.4902  0.2934
   95CHL1   H3' 9440   3.153   6.199   6.549  0.4354  0.1362  2.3457
   95CHL1    C4 9441   3.176   6.247   6.788  0.6493  0.0445  0.3284
   95CHL1   H4A 9442   3.268   6.202   6.744 -0.7654 -0.4295 -2.3680
   95CHL1   H4B 9443   3.171   6.353   6.754  0.5212 -0.3903 -1.0597
   95CHL1    C5 9444   3.169   6.226   6.935 -0.3799 -0.5751 -0.4707
   95CHL1    C6 9445   3.170   6.327   7.015  0.1390  0.3999  0.2355
   95CHL1    H6 9446   3.173   6.429   6.973 -1.1129 -0.2516 -1.5799
   95CHL1    C7 9447   3.166   6.321   7.163 -0.8326 -0.0495 -0.6205
   95CHL1   H7A 9448   3.250   6.379   7.207 -0.5964 -0.1390 -0.9508
   95CHL1   H7B 9449   3.077   6.378   7.197  0.3618  0.7902  1.2869
   95CHL1    C8 9450   3.174   6.175   7.217  0.1525 -0.2620  0.3672
   95CHL1    H8 9451   3.282   6.146   7.221 -0.3814 -2.2399  2.0393
   95CHL1   C14 9452   3.123   6.173   7.353  0.0046 -0.0524  0.4277
   95CHL1   H14 9453   3.012   6.184   7.347 -0.0480 -0.1309  1.1080
   95CHL1   C15 9454   3.182   6.278   7.454 -0.5461  0.0034  0.4354
   95CHL1  H15A 9455   3.293   6.276   7.442 -0.3723 -3.5132  1.4367
   95CHL1  H15B 9456   3.151   6.382   7.431 -1.0901  0.1208  1.6394
   95CHL1   C16 9457   3.136   6.224   7.587  0.3588 -0.1546  0.8689
   95CHL1  H16A 9458   3.219   6.227   7.661 -1.2044  0.7968  2.6859
   95CHL1  H16B 9459   3.057   6.289   7.629  1.4040  0.4029  2.0525
   95CHL1   C17 9460   3.070   6.083   7.563 -0.3909 -0.4210 -0.3559
   95CHL1   H17 9461   2.961   6.101   7.546 -0.4373  1.0249  1.2115
   95CHL1   C13 9462   3.125   6.037   7.428 -0.4477  0.6812 -0.0646
   95CHL1   C18 9463   3.271   5.988   7.451 -0.4049  0.5211  0.3248
   95CHL1  H18A 9464   3.261   5.897   7.514  0.3640  0.9290  1.0576
   95CHL1  H18B 9465   3.334   5.962   7.362  1.8104 -0.5807  2.1035
   95CHL1  H18C 9466   3.335   6.059   7.506  0.0433  0.0680  0.3998
   95CHL1   C12 9467   3.046   5.936   7.343 -0.1972 -0.4650 -0.6171
   95CHL1  H12A 9468   3.060   5.834   7.384  2.2254 -0.5577 -1.4926
   95CHL1  H12B 9469   2.939   5.965   7.341 -0.4446 -1.3459 -0.3553
   95CHL1   C11 9470   3.106   5.934   7.197 -0.4167 -0.2429  0.5381
   95CHL1  H11A 9471   3.208   5.890   7.204 -1.1155 -2.1569 -0.4984
   95CHL1  H11B 9472   3.035   5.878   7.133  0.4133  0.8299 -1.3983
   95CHL1    C9 9473   3.100   6.072   7.133 -0.3488 -0.6724 -0.4946
   95CHL1    H9 9474   2.993   6.100   7.143 -0.3110  0.1414 -2.0605
   95CHL1   C10 9475   3.145   6.081   6.987  0.2755 -0.3437  0.3485
   95CHL1   C19 9476   3.279   6.002   6.976  0.3843  0.0511 -0.0137
   95CHL1  H19A 9477   3.367   6.046   7.027  2.3904 -1.1219 -2.2801
   95CHL1  H19B 9478   3.281   5.893   6.998 -1.4777  0.2786  1.6854
   95CHL1  H19C 9479   3.318   6.012   6.873 -0.7563  0.1553 -0.4491
   95CHL1    C1 9480   3.042   6.005   6.896  0.1788 -0.4510  0.1283
   95CHL1   H1A 9481   3.064   5.898   6.915  3.8124 -0.2252 -2.0162
   95CHL1   H1B 9482   2.941   6.035   6.933 -1.1464 -0.9205 -2.7695
   95CHL1    C2 9483   3.075   6.020   6.746  0.2063 -0.3598 -0.0178
   95CHL1   H2A 9484   3.007   5.957   6.685 -0.4418  1.7852 -1.6385
   95CHL1   H2B 9485   3.178   5.982   6.728  1.1043  0.8034  2.2972
   95CHL1   C20 9486   3.068   5.993   7.686  0.6593  0.5513 -0.4143
   95CHL1   H20 9487   3.170   5.956   7.709 -0.1537 -0.6702  1.4662
   95CHL1   C21 9488   2.970   5.872   7.665  0.2764  0.2803  0.5544
   95CHL1  H21A 9489   2.953   5.818   7.761 -0.2403  1.3515  1.0782
   95CHL1  H21B 9490   3.013   5.800   7.592 -0.1854  1.5255 -1.0076
   95CHL1  H21C 9491   2.872   5.910   7.628  0.9648 -1.4793 -3.6597
   95CHL1   C22 9492   3.013   6.068   7.813  0.0432  0.4332  0.0489
   95CHL1  H22A 9493   3.065   6.166   7.821 -1.1550  1.1209 -0.2838
   95CHL1  H22B 9494   2.905   6.093   7.806  0.3680  1.5736 -1.5448
   95CHL1   C23 9495   3.031   6.005   7.950  0.0823  0.1472  0.1736
   95CHL1  H23A 9496   2.971   5.913   7.966  0.5306 -0.5417 -1.8673
   95CHL1  H23B 9497   3.137   5.973   7.953 -0.8014 -3.5453 -1.7232
   95CHL1   C24 9498   3.006   6.095   8.070  0.0739 -0.6358 -0.1931
   95CHL1  H24A 9499   3.075   6.182   8.063  0.4404 -0.8079  1.0131
   95CHL1  H24B 9500   2.904   6.135   8.052  0.1310 -0.9640 -1.3303
   95CHL1   C25 9501   3.005   6.062   8.222  0.0492  0.6727  0.1317
   95CHL1   H25 9502   3.107   6.020   8.242  0.1312  1.3556  1.1868
   95CHL1   C26 9503   2.999   6.189   8.306 -0.1196 -0.4630 -0.4138
   95CHL1  H26A 9504   2.909   6.253   8.295  0.2388  0.3498  1.0317
   95CHL1  H26B 9505   3.010   6.159   8.412  1.0613  1.2346 -0.0147
   95CHL1  H26C 9506   3.084   6.255   8.278  0.1788 -1.2500 -1.4031
   95CHL1   C27 9507   2.884   5.969   8.249  0.3974 -1.0093 -0.9325
   95CHL1  H27A 9508   2.898   5.863   8.219  3.2409 -1.4456  1.4225
   95CHL1  H27B 9509   2.864   5.981   8.357  2.1587 -2.0958 -0.4313
   95CHL1  H27C 9510   2.796   6.008   8.194  0.1409 -2.4475 -1.5815
   96CHL1    C3 9511   3.857   0.665   6.736  0.0639 -0.2552 -0.0837
   96CHL1    H3 9512   3.939   0.597   6.767  1.1824 -0.1437 -2.6072
   96CHL1    O3 9513   3.865   0.673   6.594  0.5890 -0.5795 -0.1966
   96CHL1   H3' 9514   3.778   0.698   6.562  1.4147 -0.3443 -2.4346
   96CHL1    C4 9515   3.720   0.608   6.774 -0.5429 -0.7821 -0.3676
   96CHL1   H4A 9516   3.649   0.688   6.746 -0.3113  0.0851  1.3960
   96CHL1   H4B 9517   3.700   0.514   6.718 -1.0771  0.1723 -1.8337
   96CHL1    C5 9518   3.705   0.601   6.924  0.1074  0.5395  0.0319
   96CHL1    C6 9519   3.676   0.481   6.973 -0.0279 -0.1429 -0.5284
   96CHL1    H6 9520   3.659   0.396   6.905  0.5762 -1.0564  0.4309
   96CHL1    C7 9521   3.663   0.464   7.125 -0.4967  0.4598 -0.4437
   96CHL1   H7A 9522   3.580   0.395   7.152 -0.1118 -0.5457 -1.7672
   96CHL1   H7B 9523   3.762   0.422   7.151 -1.0402 -1.2946 -1.0684
   96CHL1    C8 9524   3.650   0.597   7.208  0.3920 -0.0028  0.7899
   96CHL1    H8 9525   3.546   0.621   7.178  0.6696 -0.4872 -0.6536
   96CHL1   C14 9526   3.674   0.579   7.356  1.3158 -0.3748 -0.4397
   96CHL1   H14 9527   3.784   0.568   7.359  1.5564  1.7787  0.2098
   96CHL1   C15 9528   3.609   0.463   7.431 -0.2475  0.2582 -0.0821
   96CHL1  H15A 9529   3.504   0.460   7.395 -0.5264 -1.4496  0.7335
   96CHL1  H15B 9530   3.660   0.365   7.420 -2.4920 -0.8475 -1.3022
   96CHL1   C16 9531   3.610   0.516   7.574  0.2541  0.0656 -0.5346
   96CHL1  H16A 9532   3.504   0.532   7.605  0.6582 -1.3189  1.8219
   96CHL1  H16B 9533   3.657   0.440   7.639  1.7705  2.2580  1.0606
   96CHL1   C17 9534   3.662   0.661   7.573 -0.2816 -0.3963  0.1679
   96CHL1   H17 9535   3.772   0.646   7.579  0.2071  1.5300 -2.3043
   96CHL1   C13 9536   3.634   0.707   7.432 -0.3269 -0.2311  0.5749
   96CHL1   C18 9537   3.485   0.745   7.420  0.8200 -0.7282  0.4657
   96CHL1  H18A 9538   3.455   0.824   7.493  0.1287 -1.7950  1.3550
   96CHL1  H18B 9539   3.456   0.781   7.319 -1.0485 -1.2730  0.7797
   96CHL1  H18C 9540   3.430   0.654   7.449  0.9350 -0.5683  1.2081
   96CHL1   C12 9541   3.728   0.824   7.382 -0.4017 -0.4275 -0.7752
   96CHL1  H12A 9542   3.701   0.923   7.425 -1.1446 -0.7377 -0.5066
   96CHL1  H12B 9543   3.828   0.798   7.423 -0.0507  2.0179  0.0624
   96CHL1   C11 9544   3.734   0.840   7.231 -0.2233  0.0297  0.3385
   96CHL1  H11A 9545   3.632   0.883   7.220 -0.0261  0.1327 -1.4576
   96CHL1  H11B 9546   3.814   0.912   7.202 -2.1222  1.9356 -0.4952
   96CHL1    C9 9547   3.742   0.712   7.148 -0.2764  1.3749 -0.7781
   96CHL1    H9 9548   3.844   0.669   7.160 -1.3998 -2.3234 -3.0423
   96CHL1   C10 9549   3.724   0.734   6.999 -0.6089  0.4020  0.4030
   96CHL1   C19 9550   3.601   0.824   6.962  0.2405 -0.1746  0.5004
   96CHL1  H19A 9551   3.506   0.793   7.010 -0.0461  0.6565  0.4826
   96CHL1  H19B 9552   3.608   0.932   6.985 -0.2351  0.1749 -0.8634
   96CHL1  H19C 9553   3.578   0.822   6.853  0.3308  0.1950  0.4724
   96CHL1    C1 9554   3.861   0.793   6.948  0.0428 -0.9424 -0.2185
   96CHL1   H1A 9555   3.879   0.891   6.998  2.7053 -0.6142 -1.6892
   96CHL1   H1B 9556   3.937   0.720   6.982  0.1589 -1.2021 -1.0170
   96CHL1    C2 9557   3.879   0.801   6.794  0.7753  0.2130 -0.2917
   96CHL1   H2A 9558   3.982   0.834   6.768  1.2116 -1.0875 -0.2912
   96CHL1   H2B 9559   3.807   0.868   6.742  1.4651  0.9322 -0.3461
   96CHL1   C20 9560   3.623   0.740   7.700 -0.3219 -0.0133  0.6299
   96CHL1   H20 9561   3.517   0.771   7.686 -0.2572  0.2430  0.6877
   96CHL1   C21 9562   3.698   0.879   7.711 -0.9741 -0.0884  0.2346
   96CHL1  H21A 9563   3.806   0.860   7.693 -0.7052  1.6167 -0.1156
   96CHL1  H21B 9564   3.668   0.927   7.807 -0.7396 -0.5414  0.5405
   96CHL1  H21C 9565   3.660   0.946   7.631  1.3189  0.7958 -0.1829
   96CHL1   C22 9566   3.656   0.655   7.826 -0.1893 -0.1366  0.2804
   96CHL1  H22A 9567   3.643   0.547   7.806 -1.4139 -0.0691  0.6258
   96CHL1  H22B 9568   3.757   0.677   7.866  0.6367 -0.1627 -1.7108
   96CHL1   C23 9569   3.564   0.688   7.945 -0.5450 -0.3123 -0.1113
   96CHL1  H23A 9570   3.589   0.787   7.989 -0.2167 -0.1889 -0.5724
   96CHL1  H23B 9571   3.461   0.692   7.903  0.2989  1.6968 -2.1858
   96CHL1   C24 9572   3.581   0.583   8.061 -0.3019 -0.8243  0.2963
   96CHL1  H24A 9573   3.572   0.490   8.000  1.7495  0.3831 -2.0526
   96CHL1  H24B 9574   3.683   0.606   8.100 -0.3245  0.6804 -0.4340
   96CHL1   C25 9575   3.462   0.599   8.160  0.2439  0.1645 -0.5614
   96CHL1   H25 9576   3.369   0.606   8.100  0.5327 -1.4179 -1.2309
   96CHL1   C26 9577   3.451   0.475   8.255  0.4397  0.5021  0.3502
   96CHL1  H26A 9578   3.352   0.468   8.304 -0.7044  3.1803 -1.3094
   96CHL1  H26B 9579   3.472   0.384   8.195 -0.7286 -0.7779  1.8304
   96CHL1  H26C 9580   3.532   0.479   8.331  1.6207  2.4315 -0.9265
   96CHL1   C27 9581   3.466   0.729   8.237 -0.6863 -0.0906 -0.1853
   96CHL1  H27A 9582   3.479   0.808   8.161  0.4766 -2.2114 -2.3167
   96CHL1  H27B 9583   3.383   0.737   8.311  0.2379  1.5375  0.7296
   96CHL1  H27C 9584   3.552   0.724   8.307  0.6637 -0.3804 -1.8221
   97OSM      N 9585   1.928   1.840  10.963 -0.5098 -0.1934 -0.7072
   97OSM    C15 9586   1.809   1.923  10.942  0.4303 -0.2422 -0.1179
   97OSM   H15A 9587   1.748   1.881  10.863  0.1317 -1.8284  0.9185
   97OSM   H15B 9588   1.833   2.027  10.929 -2.4114  0.5379  0.1908
   97OSM   H15C 9589   1.745   1.912  11.028 -1.2526  1.6545 -1.0425
   97OSM    C14 9590   2.010   1.845  10.832  0.4809  0.0131 -0.6108
   97OSM   H14A 9591   2.047   1.945  10.812 -0.2772  0.3661 -0.2973
   97OSM   H14B 9592   1.939   1.823  10.754 -0.6270 -0.4009  0.4644
   97OSM   H14C 9593   2.090   1.773  10.833 -0.5461 -1.1540 -1.1851
   97OSM    C13 9594   2.012   1.900  11.075  0.5393  0.2096  0.3951
   97OSM   H13A 9595   2.025   2.006  11.057 -3.2633  0.9541  1.0097
   97OSM   H13B 9596   2.103   1.843  11.080  1.9147  2.1003 -1.2651
   97OSM   H13C 9597   1.956   1.899  11.167 -0.4090 -0.5360 -0.1694
   97OSM    C12 9598   1.886   1.701  10.995  0.5367  0.9297  0.0582
   97OSM   H12A 9599   1.815   1.697  11.076  0.4134 -0.4737 -0.0819
   97OSM   H12B 9600   1.970   1.648  11.039 -1.5438 -1.3330  1.5508
   97OSM    C11 9601   1.822   1.612  10.877  0.2295 -0.2600  0.0483
   97OSM   H11A 9602   1.831   1.503  10.894  0.6677 -0.0438  1.3170
   97OSM   H11B 9603   1.878   1.630  10.783 -1.6129 -2.9684 -1.7366
   97OSM      P 9604   1.577   1.591  10.953  0.1727  0.4723  0.2520
   97OSM    O13 9605   1.637   1.594  11.087  0.3903 -0.1694  0.3300
   97OSM    O14 9606   1.453   1.667  10.927 -0.0924 -0.6780 -0.4377
   97OSM    O11 9607   1.564   1.446  10.911  0.0452  0.4323  0.4181
   97OSM    O12 9608   1.683   1.647  10.852 -0.0798  0.1788  0.2425
   97OSM    C1S 9609   1.507   1.404  10.787 -0.4509  0.3664  0.2119
   97OSM    H1S 9610   1.424   1.469  10.751 -0.2794  1.3119  1.4918
   97OSM    H1T 9611   1.471   1.300  10.805  1.8364 -0.8105 -1.4553
   97OSM     NF 9612   1.543   1.364  10.544 -0.2784  0.3016  0.2129
   97OSM    HNF 9613   1.555   1.285  10.485 -1.1639  0.4915 -0.2443
   97OSM    C2S 9614   1.612   1.392  10.672  0.0526 -0.2479 -1.0007
   97OSM    H2S 9615   1.661   1.491  10.658 -0.2642 -0.0559 -0.7668
   97OSM    C3S 9616   1.723   1.285  10.704  0.7081  0.6984 -0.2625
   97OSM    H3S 9617   1.676   1.184  10.695 -1.0055  1.3161  1.0652
   97OSM     O3 9618   1.779   1.285  10.842  0.1860 -0.6267  0.4250
   97OSM    HO3 9619   1.722   1.343  10.894  1.3627  0.9619  0.0088
   97OSM    C4S 9620   1.828   1.308  10.604  0.6143  0.5225  0.1861
   97OSM    H4S 9621   1.826   1.231  10.525  0.0390  2.8846 -2.2350
   97OSM    C5S 9622   1.921   1.396  10.591 -0.5183 -0.2673 -0.0866
   97OSM    H5S 9623   1.936   1.459  10.680  1.3201  1.7174 -1.6949
   97OSM    C6S 9624   2.023   1.401  10.478 -1.0414  0.0141  0.0634
   97OSM    H6S 9625   2.118   1.365  10.524  0.0510  0.0856 -2.0047
   97OSM    H6T 9626   2.042   1.509  10.455 -1.0159 -0.1861 -0.9138
   97OSM    C7S 9627   2.002   1.325  10.345  0.2661 -0.4960  0.2407
   97OSM    H7S 9628   1.985   1.222  10.383 -0.3632 -0.6183 -0.3505
   97OSM    H7T 9629   2.087   1.329  10.274  0.6572 -1.7809  0.6181
   97OSM    C8S 9630   1.867   1.371  10.276  0.0258 -0.7408 -0.1510
   97OSM    H8S 9631   1.804   1.445  10.331  0.7426  0.1760 -0.5262
   97OSM    H8T 9632   1.813   1.274  10.282  0.6229 -0.9791  2.7459
   97OSM    C9S 9633   1.875   1.420  10.128 -0.2317  0.1722 -0.2856
   97OSM    H9S 9634   1.914   1.524  10.113  0.0081  0.2915  1.0365
   97OSM    H9T 9635   1.767   1.433  10.110  0.1126  3.3409 -0.7836
   97OSM   C10S 9636   1.929   1.313  10.032 -0.3943 -0.4572 -0.7683
   97OSM   H10S 9637   1.877   1.217  10.051 -0.6273 -0.1558  0.1442
   97OSM   H10T 9638   2.035   1.298  10.062 -1.1078  0.3170  2.4651
   97OSM   C11S 9639   1.906   1.357   9.884 -0.5064  0.1130  0.0878
   97OSM   H11S 9640   1.967   1.449   9.875  2.5915 -1.7315  0.5857
   97OSM   H11T 9641   1.797   1.375   9.875 -0.9408 -1.5967  1.3321
   97OSM   C12S 9642   1.960   1.258   9.785 -0.7248  0.6849 -0.8656
   97OSM   H12S 9643   1.875   1.199   9.744  0.7900 -2.3899  0.1632
   97OSM   H12T 9644   2.032   1.183   9.824 -1.2330 -0.6838 -2.4552
   97OSM   C13S 9645   2.025   1.339   9.669  0.2969  0.7266 -0.7975
   97OSM   H13S 9646   2.101   1.409   9.712 -0.2536  1.5827 -1.1964
   97OSM   H13T 9647   1.937   1.394   9.630 -1.3799 -1.0809  0.2375
   97OSM   C14S 9648   2.079   1.241   9.568 -0.2482  0.2141 -0.2548
   97OSM   H14S 9649   2.001   1.164   9.546  0.2658 -0.8709  1.4960
   97OSM   H14T 9650   2.161   1.178   9.609 -1.4887 -1.1556  0.2092
   97OSM   C15S 9651   2.121   1.306   9.439  0.4469 -0.4298  0.5061
   97OSM   H15S 9652   2.199   1.383   9.456  1.0829 -0.9686  0.0624
   97OSM   H15T 9653   2.042   1.364   9.387  0.3041 -0.5653  0.5689
   97OSM   C16S 9654   2.173   1.202   9.335 -0.2939 -0.6679 -1.0069
   97OSM   H16S 9655   2.103   1.117   9.327  0.0634 -1.1125  0.2995
   97OSM   H16T 9656   2.266   1.169   9.388  0.4834  2.4737 -0.2188
   97OSM   C17S 9657   2.221   1.259   9.200 -0.1311 -0.7967  0.3085
   97OSM   H17S 9658   2.318   1.308   9.225 -1.0715  0.8000  0.9713
   97OSM   H17T 9659   2.138   1.319   9.159 -1.6790 -2.2260  1.2334
   97OSM   C18S 9660   2.244   1.145   9.097  0.2478  0.6020 -0.3749
   97OSM   H18S 9661   2.310   1.069   9.146 -1.3095 -0.3149  0.3795
   97OSM   H18T 9662   2.312   1.185   9.019  0.4050 -0.7590 -0.9757
   97OSM   H18U 9663   2.148   1.103   9.060  0.2128 -0.1039  0.4779
   97OSM    C1F 9664   1.475   1.458  10.481 -0.4670 -0.1859 -0.1075
   97OSM     OF 9665   1.473   1.575  10.528 -0.3414 -0.3266  0.4461
   97OSM    C2F 9666   1.390   1.430  10.359 -0.8079  0.9678  0.4524
   97OSM    H2F 9667   1.320   1.515  10.347 -1.1337  0.6300 -0.0723
   97OSM    H2G 9668   1.339   1.333  10.378 -3.3205  1.9188 -1.0533
   97OSM    C3F 9669   1.486   1.418  10.250 -0.3156  0.3772  0.0349
   97OSM    H3F 9670   1.536   1.319  10.263 -0.4624  0.5649  2.4698
   97OSM    H3G 9671   1.567   1.494  10.245  1.2297 -1.2015  0.0444
   97OSM    C4F 9672   1.412   1.420  10.107 -0.4549  0.0190 -0.5496
   97OSM    H4F 9673   1.347   1.330  10.096  0.3401 -0.5853 -0.3614
   97OSM    H4G 9674   1.483   1.412  10.022 -0.6017  2.9069 -1.0416
   97OSM    C5F 9675   1.327   1.541  10.065 -0.4148  0.7597 -0.4964
   97OSM    H5F 9676   1.392   1.629  10.078 -0.7702  0.7673  1.5936
   97OSM    H5G 9677   1.239   1.551  10.132 -2.3938  0.1210 -2.8529
   97OSM    C6F 9678   1.266   1.544   9.919 -0.4741  0.2529  0.3897
   97OSM    H6F 9679   1.188   1.465   9.910 -0.9135  0.7057  0.1413
   97OSM    H6G 9680   1.326   1.497   9.838 -4.2696 -2.7830 -1.0251
   97OSM    C7F 9681   1.197   1.676   9.885 -0.0117  0.4516 -0.1254
   97OSM    H7F 9682   1.272   1.758   9.891 -0.3180  0.8485 -1.3465
   97OSM    H7G 9683   1.116   1.703   9.957  0.2930  1.5600 -0.1702
   97OSM    C8F 9684   1.154   1.687   9.742  0.1006  0.7589  0.0302
   97OSM    H8F 9685   1.094   1.781   9.744  2.0572  2.0502  0.1232
   97OSM    H8G 9686   1.086   1.607   9.703  0.7602  0.8089 -1.2870
   97OSM    C9F 9687   1.270   1.707   9.644 -0.2853 -0.1095  0.1697
   97OSM    H9F 9688   1.337   1.788   9.677 -0.2873  0.3192 -0.8423
   97OSM   C10F 9689   1.292   1.638   9.530 -0.1957  0.0171  0.7454
   97OSM   H10F 9690   1.371   1.672   9.462  0.4073  1.1563  1.9775
   97OSM   C11F 9691   1.204   1.530   9.481  0.0870 -0.3879  0.5022
   97OSM   H11F 9692   1.121   1.559   9.414 -0.1447  0.8970  1.3089
   97OSM   H11G 9693   1.157   1.468   9.560  0.3380 -0.8664  0.2852
   97OSM   C12F 9694   1.294   1.429   9.405  0.4598  0.7471 -0.0991
   97OSM   H12F 9695   1.345   1.476   9.317 -0.1912 -0.9352 -1.4277
   97OSM   H12G 9696   1.230   1.350   9.360  1.2180  0.6477 -1.0541
   97OSM   C13F 9697   1.400   1.357   9.491  0.5947 -0.2428  0.3927
   97OSM   H13F 9698   1.472   1.433   9.528 -0.9980  0.3496  2.4457
   97OSM   H13G 9699   1.465   1.289   9.431 -0.5704 -1.6160  0.6313
   97OSM   C14F 9700   1.343   1.284   9.615  0.1290  0.1480 -0.0279
   97OSM   H14F 9701   1.300   1.183   9.595 -0.2143 -0.0163  1.4555
   97OSM   H14G 9702   1.266   1.342   9.671 -2.1395  0.4367 -3.1422
   97OSM   C15F 9703   1.458   1.264   9.701  0.4115 -0.2051 -0.1920
   97OSM   H15F 9704   1.514   1.355   9.730 -0.8236 -0.1524  2.3327
   97OSM   H15G 9705   1.530   1.206   9.639 -0.8218 -0.7580 -1.1380
   97OSM   C16F 9706   1.434   1.177   9.828 -0.2464 -0.9871  0.3043
   97OSM   H16F 9707   1.387   1.077   9.816 -0.1861 -1.2586  2.0272
   97OSM   H16G 9708   1.364   1.236   9.892 -1.5510  0.5183 -2.3167
   97OSM   C17F 9709   1.565   1.155   9.912 -0.1804 -0.0487 -1.1965
   97OSM   H17F 9710   1.527   1.140  10.015  2.4139 -1.4955 -0.3493
   97OSM   H17G 9711   1.635   1.241   9.916 -0.1231 -0.1095  2.0643
   97OSM   C18F 9712   1.643   1.025   9.885 -0.3681  0.4255 -0.0571
   97OSM   H18F 9713   1.683   1.027   9.781  1.7847 -0.2747  0.7066
   97OSM   H18G 9714   1.568   0.942   9.891 -0.0699  0.1495 -0.1186
   97OSM   H18H 9715   1.730   1.007   9.952  0.9676  0.6365 -1.6853
   98OSM      N 9716   1.408   1.114  11.052 -0.0430  0.3968  0.5448
   98OSM    C15 9717   1.398   1.035  11.166  0.4525  0.2713  0.2543
   98OSM   H15A 9718   1.484   1.041  11.231  0.7692  0.6046 -0.1910
   98OSM   H15B 9719   1.357   0.936  11.149  1.7044 -0.3871  0.8733
   98OSM   H15C 9720   1.317   1.054  11.235  0.5603 -1.9849  1.0894
   98OSM    C14 9721   1.406   1.255  11.086 -0.1389 -0.0868 -0.2275
   98OSM   H14A 9722   1.313   1.288  11.131 -0.3868  1.4793 -1.7717
   98OSM   H14B 9723   1.428   1.312  10.997  2.3594  1.0992  1.0338
   98OSM   H14C 9724   1.479   1.276  11.163 -0.5102 -0.4903  0.2404
   98OSM    C13 9725   1.537   1.083  10.987 -0.5430 -0.0390  0.0435
   98OSM   H13A 9726   1.618   1.056  11.051  0.3849 -1.6817 -1.7218
   98OSM   H13B 9727   1.559   1.159  10.913  0.8159 -0.5269 -0.0818
   98OSM   H13C 9728   1.531   0.991  10.930  3.1419 -0.8653  0.7421
   98OSM    C12 9729   1.296   1.089  10.957  0.4911  0.6078  0.4550
   98OSM   H12A 9730   1.310   1.154  10.872  1.0539 -0.7985 -0.5651
   98OSM   H12B 9731   1.205   1.123  11.003 -1.3230 -2.1777 -0.8088
   98OSM    C11 9732   1.283   0.936  10.909 -0.4798 -0.3992  0.2471
   98OSM   H11A 9733   1.187   0.911  10.860  0.4129 -1.2303 -1.1323
   98OSM   H11B 9734   1.282   0.876  11.003 -1.4756  0.6810  0.9610
   98OSM      P 9735   1.413   0.733  10.804  0.6915  0.2186 -0.1155
   98OSM    O13 9736   1.542   0.707  10.733  0.3476  0.1801 -0.5865
   98OSM    O14 9737   1.395   0.667  10.934  0.1599  0.3737 -0.4257
   98OSM    O11 9738   1.287   0.688  10.715  0.2129 -1.1618 -1.1233
   98OSM    O12 9739   1.387   0.892  10.824 -0.5679  0.0149 -0.0893
   98OSM    C1S 9740   1.262   0.754  10.594  0.4491 -0.7286 -0.1738
   98OSM    H1S 9741   1.335   0.836  10.576  1.3996 -1.2160  1.2395
   98OSM    H1T 9742   1.154   0.779  10.583  0.5572 -0.3392 -0.3584
   98OSM     NF 9743   1.238   0.739  10.341 -0.0427  0.3052 -0.2143
   98OSM    HNF 9744   1.145   0.732  10.306 -0.2048  0.7102  0.1151
   98OSM    C2S 9745   1.263   0.662  10.464  0.1809 -0.1490 -0.5055
   98OSM    H2S 9746   1.369   0.628  10.469 -0.4145 -1.9582  2.8339
   98OSM    C3S 9747   1.179   0.535  10.472  0.0846 -0.1875 -0.5176
   98OSM    H3S 9748   1.068   0.548  10.475  0.2036  0.9673 -0.8102
   98OSM     O3 9749   1.214   0.452  10.590  0.2656 -0.2555  0.8611
   98OSM    HO3 9750   1.263   0.514  10.644  2.2418 -0.9855  0.0129
   98OSM    C4S 9751   1.203   0.450  10.348  0.3965 -1.2486 -0.3051
   98OSM    H4S 9752   1.309   0.430  10.328  0.5801  0.8962 -1.8035
   98OSM    C5S 9753   1.113   0.401  10.259  0.7282 -0.2530 -0.0230
   98OSM    H5S 9754   1.007   0.426  10.274  0.4514 -0.7543 -1.0138
   98OSM    C6S 9755   1.140   0.306  10.149 -0.0930  0.1973 -0.1387
   98OSM    H6S 9756   1.059   0.231  10.156  0.4211 -0.3998 -0.4543
   98OSM    H6T 9757   1.233   0.249  10.168 -0.5514  0.2762  2.6489
   98OSM    C7S 9758   1.129   0.381  10.020 -0.2638 -0.4655 -0.1541
   98OSM    H7S 9759   1.225   0.435  10.004  0.4116 -0.8584  2.2805
   98OSM    H7T 9760   1.044   0.453  10.031 -0.1812 -0.4414  0.3279
   98OSM    C8S 9761   1.103   0.292   9.899  0.4419 -0.2161  0.4036
   98OSM    H8S 9762   1.001   0.249   9.905  0.4864 -0.1590  2.5030
   98OSM    H8T 9763   1.181   0.213   9.907  2.2725  1.4486 -0.1224
   98OSM    C9S 9764   1.111   0.351   9.764  0.0283 -0.2382 -0.4595
   98OSM    H9S 9765   1.204   0.411   9.759 -0.7519  1.0409 -0.0584
   98OSM    H9T 9766   1.033   0.428   9.744  0.6354  0.6782  0.6095
   98OSM   C10S 9767   1.103   0.249   9.654 -0.4097  0.5766  1.2761
   98OSM   H10S 9768   1.011   0.187   9.651  0.8245 -1.3475  0.8316
   98OSM   H10T 9769   1.190   0.180   9.655 -1.0824 -0.4515 -1.2016
   98OSM   C11S 9770   1.103   0.305   9.502  0.2303  0.3833  0.3894
   98OSM   H11S 9771   1.190   0.372   9.488  0.4437 -0.2382 -1.7002
   98OSM   H11T 9772   1.005   0.355   9.491  0.1380  0.1157 -0.0724
   98OSM   C12S 9773   1.126   0.185   9.405 -0.8190  0.2346 -0.3731
   98OSM   H12S 9774   1.051   0.103   9.406  0.1019 -0.6811 -2.2584
   98OSM   H12T 9775   1.221   0.158   9.456 -1.8944 -1.3124  0.8857
   98OSM   C13S 9776   1.150   0.227   9.256  0.1763 -0.3409 -0.1226
   98OSM   H13S 9777   1.241   0.290   9.245 -0.7202  1.0765  0.4101
   98OSM   H13T 9778   1.057   0.274   9.219 -0.2361 -1.9489 -1.2496
   98OSM   C14S 9779   1.152   0.108   9.160  0.6594  0.1440  0.4398
   98OSM   H14S 9780   1.054   0.056   9.163  0.9605 -0.3863  1.5925
   98OSM   H14T 9781   1.232   0.035   9.182 -0.0980 -0.2605  2.0663
   98OSM   C15S 9782   1.175   0.146   9.015  0.1533  0.0102 -0.0316
   98OSM   H15S 9783   1.282   0.158   8.990  0.7223 -1.9555  1.2516
   98OSM   H15T 9784   1.139   0.250   9.004  1.1908  0.2197 -1.7470
   98OSM   C16S 9785   1.096   0.056   8.911 -0.2845  0.4354  0.6132
   98OSM   H16S 9786   0.993   0.054   8.951  0.3891 -0.3791  2.4153
   98OSM   H16T 9787   1.141  -0.046   8.916  2.0202  1.3463 -0.1458
   98OSM   C17S 9788   1.088   0.123   8.764  0.0834 -0.4212 -0.5107
   98OSM   H17S 9789   1.195   0.133   8.738  1.1280 -1.5387  2.7752
   98OSM   H17T 9790   1.038   0.222   8.771 -1.9840 -1.4623  0.0935
   98OSM   C18S 9791   1.027   0.044   8.654  0.3784  0.7367 -0.5135
   98OSM   H18S 9792   1.006   0.095   8.557 -0.1449  2.1115  0.2890
   98OSM   H18T 9793   0.932  -0.009   8.680  1.2932 -0.2508  0.9658
   98OSM   H18U 9794   1.098  -0.037   8.628 -0.6631 -0.1581 -0.6543
   98OSM    C1F 9795   1.319   0.830  10.302 -0.1635 -0.0779 -0.4644
   98OSM     OF 9796   1.427   0.849  10.361 -0.1387 -0.3213  0.0463
   98OSM    C2F 9797   1.271   0.930  10.205 -0.1498  0.5699  0.2085
   98OSM    H2F 9798   1.336   1.020  10.210 -1.5775  1.6695 -0.3087
   98OSM    H2G 9799   1.167   0.962  10.227  0.0806  0.3958  1.6566
   98OSM    C3F 9800   1.282   0.889  10.057  0.5113  0.5607  0.1489
   98OSM    H3F 9801   1.385   0.863  10.023  0.2230  0.7411 -0.9107
   98OSM    H3G 9802   1.245   0.981  10.007  0.7980 -0.0789 -1.2980
   98OSM    C4F 9803   1.184   0.769  10.018  0.5140 -0.5275  0.2852
   98OSM    H4F 9804   1.079   0.800  10.038  1.0046 -0.1784  2.6907
   98OSM    H4G 9805   1.202   0.678  10.080 -3.2343 -1.2265  0.6174
   98OSM    C5F 9806   1.210   0.718   9.874  0.0881 -0.3066 -0.1682
   98OSM    H5F 9807   1.148   0.626   9.861  1.1586 -0.9969 -0.5599
   98OSM    H5G 9808   1.315   0.683   9.869 -0.0369 -0.6191 -0.8501
   98OSM    C6F 9809   1.192   0.825   9.764 -0.3953  0.2484  0.6790
   98OSM    H6F 9810   1.258   0.914   9.778 -0.0972 -0.2610  2.8955
   98OSM    H6G 9811   1.089   0.866   9.771  0.0991  1.6044  0.2765
   98OSM    C7F 9812   1.199   0.753   9.622 -0.3055 -0.3470  0.2689
   98OSM    H7F 9813   1.123   0.673   9.628 -1.3123  0.5011 -0.8143
   98OSM    H7G 9814   1.295   0.699   9.605  0.7020  1.6173 -0.6842
   98OSM    C8F 9815   1.183   0.862   9.504 -0.2107 -0.3135 -0.6085
   98OSM    H8F 9816   1.285   0.906   9.490 -0.2028 -0.6837 -1.8409
   98OSM    H8G 9817   1.107   0.942   9.518  0.2100  0.0765 -0.5175
   98OSM    C9F 9818   1.152   0.787   9.377  0.1457 -0.2207 -0.5897
   98OSM    H9F 9819   1.093   0.695   9.388  0.1586 -0.1004  0.7564
   98OSM   C10F 9820   1.193   0.812   9.255 -0.1637  0.4201 -0.0968
   98OSM   H10F 9821   1.139   0.767   9.171  0.9963  1.1503 -1.2742
   98OSM   C11F 9822   1.290   0.927   9.224  0.1024  0.2363 -0.1850
   98OSM   H11F 9823   1.393   0.885   9.228  0.0490 -0.2271 -2.4357
   98OSM   H11G 9824   1.274   1.005   9.302  3.7638 -0.4434  1.4578
   98OSM   C12F 9825   1.281   0.991   9.086  0.2131  0.1109 -0.4453
   98OSM   H12F 9826   1.331   1.090   9.083  0.4776 -0.0401 -1.2778
   98OSM   H12G 9827   1.177   1.014   9.057 -0.2372 -1.4589 -0.2003
   98OSM   C13F 9828   1.341   0.893   8.981  0.1549 -0.1833  0.0677
   98OSM   H13F 9829   1.308   0.790   9.005 -0.3871 -0.1946 -0.6977
   98OSM   H13G 9830   1.452   0.885   8.986  0.0209 -2.1101  1.2014
   98OSM   C14F 9831   1.280   0.926   8.840  0.3023  0.5885  0.0283
   98OSM   H14F 9832   1.291   1.036   8.842 -0.9101  0.7388 -0.8155
   98OSM   H14G 9833   1.170   0.910   8.836  0.4342 -0.2465 -0.5535
   98OSM   C15F 9834   1.362   0.874   8.724  0.1884 -0.2652  0.6964
   98OSM   H15F 9835   1.324   0.775   8.693 -1.3294  0.1336  1.2215
   98OSM   H15G 9836   1.463   0.862   8.769  0.7637  2.4054  0.3116
   98OSM   C16F 9837   1.382   0.978   8.611 -0.2365 -0.0190  0.0553
   98OSM   H16F 9838   1.429   1.067   8.658  1.1049  0.3062 -1.7793
   98OSM   H16G 9839   1.279   0.997   8.575  0.2555 -0.6226 -1.7655
   98OSM   C17F 9840   1.466   0.928   8.500  0.1907 -0.2995  0.1237
   98OSM   H17F 9841   1.568   0.897   8.531 -0.0847  0.0266  1.4132
   98OSM   H17G 9842   1.474   1.014   8.430  1.6460  0.6022  1.3222
   98OSM   C18F 9843   1.401   0.807   8.421 -0.3286 -0.0053  0.2968
   98OSM   H18F 9844   1.317   0.839   8.356  0.7318 -0.3362 -1.3035
   98OSM   H18G 9845   1.370   0.727   8.491 -0.8326 -0.4124 -0.3819
   98OSM   H18H 9846   1.470   0.755   8.350  0.4431 -1.4125  1.9964
   99OSM      N 9847   3.802   6.054  10.863 -0.6261  0.2900 -0.8732
   99OSM    C15 9848   3.660   6.098  10.868  1.0608  0.4791  0.6379
   99OSM   H15A 9849   3.651   6.199  10.905 -1.2423  0.4249  0.3260
   99OSM   H15B 9850   3.609   6.031  10.936  0.0657  0.6188  0.0436
   99OSM   H15C 9851   3.615   6.083  10.771  2.9455 -0.4270 -0.1543
   99OSM    C14 9852   3.850   6.035  11.004 -0.2111 -0.6645  0.3339
   99OSM   H14A 9853   3.955   6.010  11.004  0.0975  0.3685  2.6296
   99OSM   H14B 9854   3.791   5.956  11.048 -0.4895 -1.9722 -2.2054
   99OSM   H14C 9855   3.832   6.125  11.062 -1.5511 -0.3216 -0.5488
   99OSM    C13 9856   3.818   5.933  10.779  0.1804  0.6490 -0.9809
   99OSM   H13A 9857   3.922   5.909  10.765  0.4032  0.1081  1.1157
   99OSM   H13B 9858   3.768   5.932  10.683 -0.4981 -1.2154 -0.6556
   99OSM   H13C 9859   3.779   5.850  10.838  1.0593  0.2370 -0.9708
   99OSM    C12 9860   3.877   6.154  10.787 -0.3766  0.1344  0.2989
   99OSM   H12A 9861   3.834   6.169  10.689  0.7444 -1.6431 -0.5067
   99OSM   H12B 9862   3.978   6.124  10.762 -0.3460  1.0809 -0.8254
   99OSM    C11 9863   3.886   6.299  10.847  0.1454 -0.1100  0.1730
   99OSM   H11A 9864   3.963   6.348  10.783  0.0557 -0.1070  0.0659
   99OSM   H11B 9865   3.936   6.307  10.946 -2.1567 -2.7167  1.6811
   99OSM      P 9866   3.733   6.492  10.770 -0.4271  0.2855  0.1982
   99OSM    O13 9867   3.595   6.523  10.781  0.6672  0.2994 -0.5729
   99OSM    O14 9868   3.820   6.602  10.812 -0.4211  0.1556 -0.4095
   99OSM    O11 9869   3.771   6.452  10.624 -0.2562 -0.3359 -0.5668
   99OSM    O12 9870   3.765   6.370  10.852 -0.0648 -0.3836  0.0491
   99OSM    C1S 9871   3.674   6.414  10.528 -0.8064 -0.2091 -1.3061
   99OSM    H1S 9872   3.588   6.484  10.539 -0.9809 -0.7855  2.3138
   99OSM    H1T 9873   3.639   6.309  10.542  0.8854 -0.9625 -2.4792
   99OSM     NF 9874   3.619   6.401  10.272  0.2592 -0.0574 -0.5054
   99OSM    HNF 9875   3.611   6.317  10.219  3.0656  0.2354 -1.5328
   99OSM    C2S 9876   3.724   6.415  10.377 -0.0456  0.2453 -0.0663
   99OSM    H2S 9877   3.772   6.514  10.362  1.0439 -0.0439  1.2584
   99OSM    C3S 9878   3.830   6.304  10.356 -0.2905  0.4478 -0.0799
   99OSM    H3S 9879   3.779   6.205  10.351 -1.1593  0.9476 -2.4586
   99OSM     O3 9880   3.920   6.283  10.470  0.0624 -0.3850  0.5376
   99OSM    HO3 9881   3.880   6.343  10.534 -1.2412 -1.7566  1.0581
   99OSM    C4S 9882   3.902   6.323  10.224  0.0470 -0.9786 -0.1184
   99OSM    H4S 9883   3.828   6.314  10.144 -0.9946  1.5491  0.4613
   99OSM    C5S 9884   4.023   6.373  10.198 -0.2276 -0.3572 -0.0493
   99OSM    H5S 9885   4.093   6.397  10.280 -2.3262  0.8462  1.4944
   99OSM    C6S 9886   4.064   6.390  10.055 -0.1286 -0.5832 -0.3171
   99OSM    H6S 9887   4.008   6.319   9.990 -0.5095  0.0556 -0.7060
   99OSM    H6T 9888   4.169   6.363  10.032 -0.6812 -1.8083 -1.5565
   99OSM    C7S 9889   4.036   6.530   9.997  0.2111  0.5882  0.1138
   99OSM    H7S 9890   4.120   6.596  10.029 -0.6918  1.8104  0.0147
   99OSM    H7T 9891   3.939   6.569  10.033 -0.6843 -0.2638 -1.2758
   99OSM    C8S 9892   4.034   6.543   9.844 -0.5271 -0.1530  0.4213
   99OSM    H8S 9893   4.017   6.651   9.825 -0.9305 -0.1106  1.0190
   99OSM    H8T 9894   3.942   6.484   9.827 -0.9941  1.2710 -2.7072
   99OSM    C9S 9895   4.154   6.494   9.766  1.3891  0.3512  0.4297
   99OSM    H9S 9896   4.141   6.492   9.655  2.5116 -1.4117  0.2866
   99OSM    H9T 9897   4.160   6.387   9.796 -0.1124 -0.1568 -0.9215
   99OSM   C10S 9898   4.279   6.574   9.803  0.5787 -0.0882 -0.3501
   99OSM   H10S 9899   4.297   6.570   9.912 -0.9432  4.0108  0.2307
   99OSM   H10T 9900   4.262   6.683   9.793  1.6728  0.2359  1.0186
   99OSM   C11S 9901   4.401   6.523   9.729 -0.1830  0.0060  0.7447
   99OSM   H11S 9902   4.396   6.412   9.723  1.3139 -0.1169  1.2248
   99OSM   H11T 9903   4.495   6.563   9.773  1.0865 -1.0482 -0.8581
   99OSM   C12S 9904   4.404   6.566   9.579 -1.0249  0.7109  0.0944
   99OSM   H12S 9905   4.313   6.520   9.535 -0.0295 -0.4063 -0.8752
   99OSM   H12T 9906   4.407   6.676   9.590 -1.4509  0.8390 -0.9900
   99OSM   C13S 9907   4.529   6.521   9.499  0.1532 -0.5276 -0.4218
   99OSM   H13S 9908   4.517   6.410   9.496 -1.4595 -0.3463 -1.6322
   99OSM   H13T 9909   4.615   6.539   9.568  1.0284 -0.0425 -1.6028
   99OSM   C14S 9910   4.554   6.580   9.364 -0.2113 -1.0358 -0.1504
   99OSM   H14S 9911   4.458   6.585   9.308  0.6273 -0.7159 -1.6111
   99OSM   H14T 9912   4.620   6.518   9.301 -0.3036 -1.0812 -0.2035
   99OSM   C15S 9913   4.618   6.722   9.362 -0.2849 -0.0274 -0.1328
   99OSM   H15S 9914   4.712   6.707   9.420 -1.5556 -0.9924  1.7948
   99OSM   H15T 9915   4.576   6.806   9.421 -1.0789 -0.9608  0.6650
   99OSM   C16S 9916   4.652   6.786   9.224  0.3140  0.0424  0.7732
   99OSM   H16S 9917   4.761   6.771   9.215  0.2284 -1.6847  2.0303
   99OSM   H16T 9918   4.615   6.890   9.233  1.3974  0.3019  2.7346
   99OSM   C17S 9919   4.577   6.718   9.106  1.1197 -0.2480 -0.2935
   99OSM   H17S 9920   4.469   6.712   9.134  1.3688 -0.4456  0.6621
   99OSM   H17T 9921   4.611   6.612   9.105  1.2824 -0.2032  0.2704
   99OSM   C18S 9922   4.598   6.794   8.969  0.0842  0.3337 -0.5222
   99OSM   H18S 9923   4.704   6.792   8.938 -0.2055 -1.8391 -1.5434
   99OSM   H18T 9924   4.583   6.904   8.980 -0.5396 -0.0104  3.9739
   99OSM   H18U 9925   4.538   6.754   8.884  0.7210 -1.9717  0.0473
   99OSM    C1F 9926   3.527   6.493  10.262 -0.1476 -0.5042 -0.1197
   99OSM     OF 9927   3.538   6.600  10.327  0.0396 -0.0756 -0.4073
   99OSM    C2F 9928   3.421   6.472  10.159 -0.3691  0.0756  0.6568
   99OSM    H2F 9929   3.326   6.434  10.203 -0.2802 -0.7324  0.1738
   99OSM    H2G 9930   3.450   6.388  10.092 -0.1425  0.3764  0.3804
   99OSM    C3F 9931   3.388   6.595  10.071 -0.5389 -0.4107  0.5984
   99OSM    H3F 9932   3.305   6.563  10.005  0.3285  0.7348 -1.1302
   99OSM    H3G 9933   3.353   6.688  10.120 -0.8234 -0.3481  0.2818
   99OSM    C4F 9934   3.508   6.644   9.985  0.0320 -0.9933  0.2769
   99OSM    H4F 9935   3.582   6.678  10.062 -0.1519 -1.9615  0.8933
   99OSM    H4G 9936   3.469   6.728   9.923  1.4958  0.8336  1.6765
   99OSM    C5F 9937   3.583   6.536   9.898  0.5814 -0.3598  0.4272
   99OSM    H5F 9938   3.506   6.471   9.851 -2.4502  2.1089  1.6618
   99OSM    H5G 9939   3.655   6.484   9.966  1.2309  1.9983  1.6565
   99OSM    C6F 9940   3.660   6.595   9.778 -0.8439 -0.1178 -0.4540
   99OSM    H6F 9941   3.764   6.625   9.799  0.2255 -1.2931 -3.5772
   99OSM    H6G 9942   3.605   6.685   9.741 -1.3972  1.2081  3.1989
   99OSM    C7F 9943   3.676   6.501   9.659 -0.1528 -0.5661 -0.0826
   99OSM    H7F 9944   3.572   6.491   9.622 -0.8720 -1.2797  1.9776
   99OSM    H7G 9945   3.711   6.403   9.699  2.2536 -0.9609 -2.8528
   99OSM    C8F 9946   3.771   6.535   9.540  0.2739 -0.3470  0.2652
   99OSM    H8F 9947   3.773   6.439   9.484  1.2802  0.9669 -2.0496
   99OSM    H8G 9948   3.872   6.541   9.587  0.2062 -0.0967  0.3809
   99OSM    C9F 9949   3.738   6.656   9.457 -0.1903 -0.4759 -0.6594
   99OSM    H9F 9950   3.757   6.755   9.502  0.2050  0.3594 -2.5526
   99OSM   C10F 9951   3.678   6.648   9.340 -0.8787 -0.0581 -0.0420
   99OSM   H10F 9952   3.656   6.738   9.280  0.4557 -0.6816 -1.5544
   99OSM   C11F 9953   3.643   6.517   9.275 -0.1793  0.0414  0.5106
   99OSM   H11F 9954   3.533   6.501   9.270 -0.1184 -0.1370 -0.3276
   99OSM   H11G 9955   3.683   6.428   9.328  1.5480  0.3083 -0.2764
   99OSM   C12F 9956   3.697   6.512   9.129 -0.2771 -0.6992 -0.2221
   99OSM   H12F 9957   3.807   6.528   9.115 -0.0338 -2.1715 -0.1412
   99OSM   H12G 9958   3.654   6.602   9.081  1.3095 -0.3573 -1.0767
   99OSM   C13F 9959   3.649   6.400   9.042 -0.0742 -0.1369 -0.3912
   99OSM   H13F 9960   3.539   6.393   9.054 -0.2893  1.4461 -1.1536
   99OSM   H13G 9961   3.690   6.304   9.081  2.5585  1.4563  1.0506
   99OSM   C14F 9962   3.687   6.444   8.900 -0.5761 -0.0863 -0.0872
   99OSM   H14F 9963   3.798   6.455   8.899 -0.5791  0.4853  1.8128
   99OSM   H14G 9964   3.645   6.545   8.883  0.3028  0.3053 -0.0064
   99OSM   C15F 9965   3.647   6.349   8.785  0.0731 -0.0531  0.0496
   99OSM   H15F 9966   3.540   6.329   8.807  0.0689 -1.1400 -0.8105
   99OSM   H15G 9967   3.695   6.249   8.801 -1.0929 -0.6851 -0.3011
   99OSM   C16F 9968   3.647   6.416   8.642 -0.5880  0.7806  0.1567
   99OSM   H16F 9969   3.620   6.523   8.654  0.6888  1.3081 -1.2648
   99OSM   H16G 9970   3.557   6.375   8.592  0.7219 -0.9164 -0.9338
   99OSM   C17F 9971   3.756   6.387   8.541 -1.3216  0.1124  0.8984
   99OSM   H17F 9972   3.776   6.282   8.510  1.6354  1.1454 -1.2017
   99OSM   H17G 9973   3.848   6.421   8.592 -1.0285 -1.9274  1.8315
   99OSM   C18F 9974   3.742   6.469   8.410 -1.0678 -0.9304 -0.4921
   99OSM   H18F 9975   3.832   6.456   8.347 -0.5812  1.3887 -0.3675
   99OSM   H18G 9976   3.723   6.573   8.445 -2.4582 -0.9607 -1.1034
   99OSM   H18H 9977   3.646   6.446   8.360 -0.2608 -0.1125 -2.5174
  100OSM      N 9978   5.849   2.785  10.910 -0.4170 -0.7543  0.4519
  100OSM    C15 9979   5.751   2.875  10.972  1.0745  0.3092 -0.2213
  100OSM   H15A 9980   5.658   2.876  10.916  1.3318 -1.8385 -0.8088
  100OSM   H15B 9981   5.784   2.977  10.973  2.1807 -0.0199  1.7180
  100OSM   H15C 9982   5.724   2.836  11.069 -2.7601 -2.3149 -2.0456
  100OSM    C14 9983   5.800   2.639  10.914 -0.5021  0.3968  0.4380
  100OSM   H14A 9984   5.865   2.576  10.855 -2.9236  0.4573 -2.5062
  100OSM   H14B 9985   5.706   2.612  10.868  0.9049 -4.2049 -0.2182
  100OSM   H14C 9986   5.789   2.608  11.017 -0.6284 -0.1529  0.2602
  100OSM    C13 9987   5.860   2.829  10.768  0.4793 -0.2153  0.7628
  100OSM   H13A 9988   5.846   2.936  10.756  0.7988 -0.2467  0.0539
  100OSM   H13B 9989   5.783   2.783  10.709  1.4154  0.7594 -1.3585
  100OSM   H13C 9990   5.951   2.805  10.715 -0.7803 -1.5126 -0.9351
  100OSM    C12 9991   5.984   2.801  10.974  0.3334  0.2143 -0.0034
  100OSM   H12A 9992   5.981   2.773  11.078  0.0950  1.1361  0.2493
  100OSM   H12B 9993   6.016   2.904  10.970  1.0888  0.0203  0.7261
  100OSM    C11 9994   6.111   2.739  10.906  0.5620  0.0379 -0.1299
  100OSM   H11A 9995   6.089   2.630  10.900 -2.2109  0.4157  1.4406
  100OSM   H11B 9996   6.199   2.751  10.972  0.6248  0.7640 -0.3368
  100OSM      P 9997   6.231   2.900  10.743  0.0946  0.1947 -0.2062
  100OSM    O13 9998   6.203   3.016  10.828 -0.4830  0.1644 -0.1234
  100OSM    O14 9999   6.370   2.852  10.755 -0.0743  0.2336  0.3705
  100OSM    O1110000   6.210   2.940  10.589  0.1875 -0.3744 -1.0567
  100OSM    O1210001   6.137   2.782  10.770  0.1513 -0.2658 -0.2151
  100OSM    C1S10002   6.142   2.865  10.495  0.0761 -0.6977 -0.4059
  100OSM    H1S10003   6.035   2.896  10.491  0.4848  1.1467  1.4740
  100OSM    H1T10004   6.137   2.757  10.521  0.4887 -1.2000 -2.2433
  100OSM     NF10005   6.087   2.891  10.267 -0.5566 -0.0862 -0.3516
  100OSM    HNF10006   6.070   2.804  10.221  2.1657 -0.9454  0.0663
  100OSM    C2S10007   6.198   2.881  10.358 -0.8723  0.1410  0.5009
  100OSM    H2S10008   6.250   2.979  10.362 -0.6172  0.0939 -0.9130
  100OSM    C3S10009   6.293   2.761  10.326 -0.4222  0.8005 -0.2107
  100OSM    H3S10010   6.236   2.665  10.324  2.3799 -0.9770 -0.6758
  100OSM     O310011   6.401   2.731  10.421  0.0038 -0.0816 -0.3070
  100OSM    HO310012   6.377   2.784  10.497  0.6056 -0.8893  0.4851
  100OSM    C4S10013   6.372   2.776  10.197  0.9030 -0.7748 -0.4952
  100OSM    H4S10014   6.426   2.872  10.196 -0.8925  0.4963  3.4362
  100OSM    C5S10015   6.361   2.692  10.096 -0.2910  0.1488 -0.4463
  100OSM    H5S10016   6.287   2.611  10.098 -1.0827  0.8793  1.0643
  100OSM    C6S10017   6.437   2.707   9.971  0.4137  0.5386  0.3617
  100OSM    H6S10018   6.505   2.619   9.959  0.0390  0.4627 -1.5014
  100OSM    H6T10019   6.502   2.796   9.982 -0.1032  1.2163 -1.7264
  100OSM    C7S10020   6.337   2.726   9.855  0.0826  0.1639 -1.1496
  100OSM    H7S10021   6.256   2.801   9.873 -0.2579 -0.6082  0.7924
  100OSM    H7T10022   6.295   2.625   9.836 -0.2142 -0.4205  2.0571
  100OSM    C8S10023   6.395   2.773   9.723 -0.0682 -0.6253  0.0778
  100OSM    H8S10024   6.483   2.712   9.695  0.7774  0.5967  0.0242
  100OSM    H8T10025   6.428   2.879   9.731  2.1487 -1.3140  0.6130
  100OSM    C9S10026   6.285   2.765   9.616  0.0274  0.1081 -0.0833
  100OSM    H9S10027   6.202   2.832   9.646  0.4250  0.6061 -0.0899
  100OSM    H9T10028   6.249   2.659   9.620  0.9634 -0.1778  1.5124
  100OSM   C10S10029   6.339   2.785   9.471  0.3893 -0.0446  0.4920
  100OSM   H10S10030   6.420   2.710   9.458 -0.0667 -0.5354  0.4240
  100OSM   H10T10031   6.403   2.875   9.458  1.3419 -0.7094  0.5288
  100OSM   C11S10032   6.234   2.760   9.363 -0.2317  0.0928 -0.0504
  100OSM   H11S10033   6.173   2.853   9.362 -1.1879 -0.5116 -1.2482
  100OSM   H11T10034   6.176   2.670   9.393  1.3649 -2.0822 -3.0658
  100OSM   C12S10035   6.312   2.735   9.232 -0.0808  0.4595 -0.3569
  100OSM   H12S10036   6.228   2.686   9.178  0.6528 -1.7401  0.3892
  100OSM   H12T10037   6.390   2.657   9.241  0.7149  1.3634  0.9439
  100OSM   C13S10038   6.369   2.859   9.161  0.5812 -0.0788 -0.3337
  100OSM   H13S10039   6.448   2.900   9.227 -1.1783  0.9713  1.2114
  100OSM   H13T10040   6.279   2.925   9.165  0.8061  0.1699  2.2811
  100OSM   C14S10041   6.414   2.829   9.019  0.4674  0.8900  0.0354
  100OSM   H14S10042   6.332   2.786   8.958  0.6599 -0.1788  0.4962
  100OSM   H14T10043   6.504   2.764   9.013  0.3962  0.8134 -0.1966
  100OSM   C15S10044   6.459   2.952   8.934  0.9081  0.1485 -0.3138
  100OSM   H15S10045   6.495   2.923   8.832 -0.2881  3.1311 -1.7096
  100OSM   H15T10046   6.543   2.996   8.992  0.0382 -1.1841  2.0567
  100OSM   C16S10047   6.349   3.059   8.927 -0.0774 -0.0685  0.5580
  100OSM   H16S10048   6.335   3.103   9.028  0.1192 -1.3634  1.1712
  100OSM   H16T10049   6.250   3.012   8.907 -0.6993  1.5108 -0.1928
  100OSM   C17S10050   6.359   3.168   8.818 -0.3884  0.4194  0.0055
  100OSM   H17S10051   6.445   3.237   8.828 -0.1105  0.0555  0.1515
  100OSM   H17T10052   6.268   3.231   8.811  0.8108  3.0087  4.2442
  100OSM   C18S10053   6.375   3.102   8.679 -0.0854 -0.3106 -0.2178
  100OSM   H18S10054   6.389   3.179   8.600 -0.0571 -0.0530  0.0388
  100OSM   H18T10055   6.277   3.052   8.660 -0.9851  1.4982 -0.5961
  100OSM   H18U10056   6.455   3.026   8.677 -1.5647 -1.9323 -0.8359
  100OSM    C1F10057   6.001   2.998  10.247  0.9549  0.2263  0.0218
  100OSM     OF10058   6.007   3.090  10.328  0.0640  0.4095 -0.0929
  100OSM    C2F10059   5.888   2.995  10.148 -0.3229  0.5422 -0.0705
  100OSM    H2F10060   5.871   3.093  10.100 -0.8060 -0.8397 -2.9080
  100OSM    H2G10061   5.791   2.969  10.196 -0.3632  1.6140  0.4642
  100OSM    C3F10062   5.918   2.918  10.013 -0.7954 -0.5126  0.3635
  100OSM    H3F10063   5.910   2.809  10.036  1.9872 -0.4341  2.2144
  100OSM    H3G10064   6.020   2.937   9.973 -0.9832  1.4566  0.7193
  100OSM    C4F10065   5.817   2.951   9.906  0.4518  0.2952  0.0087
  100OSM    H4F10066   5.805   3.061   9.896 -0.4449  0.1265 -0.9596
  100OSM    H4G10067   5.721   2.900   9.932 -0.4896  1.6847 -0.5808
  100OSM    C5F10068   5.856   2.898   9.762  0.0286 -0.1715  0.2832
  100OSM    H5F10069   5.882   2.790   9.764  0.3331 -0.1137 -0.3255
  100OSM    H5G10070   5.939   2.961   9.723 -1.3975 -0.2801 -3.3445
  100OSM    C6F10071   5.720   2.885   9.676 -0.1683  0.0662 -0.3195
  100OSM    H6F10072   5.669   2.984   9.670  0.6730  0.6069  1.0295
  100OSM    H6G10073   5.655   2.816   9.733  1.5785 -0.8178  0.7029
  100OSM    C7F10074   5.734   2.837   9.538 -0.2724  0.1660 -0.5035
  100OSM    H7F10075   5.729   2.726   9.536  2.2656 -0.0398 -3.0590
  100OSM    H7G10076   5.831   2.874   9.496  0.1050 -0.7954 -0.5116
  100OSM    C8F10077   5.620   2.875   9.441 -0.5555 -0.8089 -0.0643
  100OSM    H8F10078   5.651   2.831   9.345  2.8630 -0.6318  0.8483
  100OSM    H8G10079   5.635   2.985   9.437 -0.1198 -0.7680  1.7832
  100OSM    C9F10080   5.485   2.835   9.486  0.2404 -0.0921  0.3965
  100OSM    H9F10081   5.465   2.796   9.587 -0.5137 -0.1630  0.2295
  100OSM   C10F10082   5.391   2.827   9.387 -0.0563  0.2771  0.1687
  100OSM   H10F10083   5.293   2.781   9.407  0.7847 -0.9321  1.6542
  100OSM   C11F10084   5.416   2.856   9.240  0.7982  0.5272  0.5770
  100OSM   H11F10085   5.494   2.935   9.240 -0.2237  1.5844  2.0384
  100OSM   H11G10086   5.321   2.898   9.199 -1.1883 -2.5107  1.7308
  100OSM   C12F10087   5.454   2.743   9.142  0.5500 -0.1192  0.2962
  100OSM   H12F10088   5.368   2.673   9.148 -0.2378  0.7352 -0.6905
  100OSM   H12G10089   5.544   2.685   9.172  0.6825  0.0412  0.2122
  100OSM   C13F10090   5.468   2.804   9.006 -0.7865  0.1583  1.3130
  100OSM   H13F10091   5.560   2.867   9.005 -0.4710 -0.2682 -0.3433
  100OSM   H13G10092   5.385   2.871   8.975 -0.2914 -0.8979 -2.9530
  100OSM   C14F10093   5.479   2.694   8.897 -0.3931  0.1028  0.1686
  100OSM   H14F10094   5.387   2.632   8.902  0.2702 -1.2525 -2.6294
  100OSM   H14G10095   5.563   2.626   8.920 -1.4126 -1.1355  0.3006
  100OSM   C15F10096   5.499   2.759   8.759  0.2037  0.5637 -0.4457
  100OSM   H15F10097   5.576   2.838   8.763  0.7685 -0.0402  2.1865
  100OSM   H15G10098   5.407   2.817   8.735  0.2989  0.3154 -1.4694
  100OSM   C16F10099   5.513   2.653   8.657 -0.5826  0.3918 -0.2478
  100OSM   H16F10100   5.423   2.589   8.650 -1.4535  1.3657  1.5521
  100OSM   H16G10101   5.591   2.580   8.688 -1.2674 -0.9566 -1.5963
  100OSM   C17F10102   5.553   2.712   8.519 -0.4217  1.0305 -0.0056
  100OSM   H17F10103   5.650   2.765   8.521  0.6512 -0.8465  1.4403
  100OSM   H17G10104   5.479   2.788   8.489 -1.8085  0.0920  0.8944
  100OSM   C18F10105   5.571   2.604   8.417  0.1833 -0.3628  0.6555
  100OSM   H18F10106   5.630   2.514   8.447  2.1890  0.6063 -0.1743
  100OSM   H18G10107   5.624   2.639   8.326  0.1281 -2.0126 -0.0552
  100OSM   H18H10108   5.474   2.569   8.378  0.2860  1.3762 -1.3357
  101OSM      N10109   2.768   2.832  11.234 -0.0946 -0.7145  0.6846
  101OSM    C1510110   2.647   2.894  11.293  0.0250  0.4444  0.2492
  101OSM   H15A10111   2.673   2.971  11.364  1.4194 -0.0871  0.3559
  101OSM   H15B10112   2.578   2.825  11.340  1.9700 -1.5260  0.3849
  101OSM   H15C10113   2.598   2.944  11.211  1.0793 -1.3225 -1.5420
  101OSM    C1410114   2.846   2.943  11.169 -0.1572 -0.2746 -0.5706
  101OSM   H14A10115   2.866   3.026  11.235 -1.4022 -1.3971  1.2963
  101OSM   H14B10116   2.798   2.987  11.083 -1.1836  2.0336  1.0909
  101OSM   H14C10117   2.938   2.902  11.131  0.6729 -1.2869  2.2906
  101OSM    C1310118   2.847   2.762  11.339  0.1054 -0.2882 -0.5114
  101OSM   H13A10119   2.782   2.699  11.397 -1.2216  1.3683 -0.1161
  101OSM   H13B10120   2.896   2.834  11.402 -1.9130  0.5703  0.1681
  101OSM   H13C10121   2.923   2.701  11.293 -0.0884 -0.2612 -0.8731
  101OSM    C1210122   2.729   2.724  11.120 -0.0356 -0.4221 -0.0673
  101OSM   H12A10123   2.670   2.655  11.179  0.6210  0.0163  1.1354
  101OSM   H12B10124   2.823   2.676  11.098  0.0181 -1.3972  1.9853
  101OSM    C1110125   2.644   2.769  11.003  0.0277 -0.0153 -0.6449
  101OSM   H11A10126   2.541   2.797  11.034  1.0649  2.1335  1.1492
  101OSM   H11B10127   2.618   2.685  10.936 -0.5932 -0.4895  0.1727
  101OSM      P10128   2.817   2.853  10.817 -0.3264  0.3239 -0.5244
  101OSM    O1310129   2.859   2.982  10.759  0.1295  0.3904  0.2472
  101OSM    O1410130   2.924   2.774  10.874 -0.0309 -0.1457 -0.7236
  101OSM    O1110131   2.733   2.770  10.711 -0.6713 -0.3817 -0.1048
  101OSM    O1210132   2.703   2.877  10.925  0.2489 -0.7046 -0.5582
  101OSM    C1S10133   2.709   2.824  10.581  0.4898 -0.5339  1.0422
  101OSM    H1S10134   2.808   2.844  10.534  0.2444 -0.3914  0.5756
  101OSM    H1T10135   2.654   2.920  10.586  0.9667 -0.2840  1.5703
  101OSM     NF10136   2.619   2.773  10.350 -0.2955  0.2628 -0.3480
  101OSM    HNF10137   2.525   2.800  10.331 -0.3909  0.4393  0.3467
  101OSM    C2S10138   2.632   2.722  10.487 -0.3925 -0.0521  0.0342
  101OSM    H2S10139   2.700   2.634  10.484 -0.6388 -0.2189 -1.0460
  101OSM    C3S10140   2.499   2.675  10.554 -0.2999  0.9501 -0.0564
  101OSM    H3S10141   2.426   2.759  10.560 -1.9184 -0.3800 -0.2639
  101OSM     O310142   2.510   2.627  10.686  0.4136 -0.2920  0.0780
  101OSM    HO310143   2.586   2.680  10.712  0.7617  0.9412 -3.0810
  101OSM    C4S10144   2.443   2.567  10.467  1.2174  0.2808 -0.4231
  101OSM    H4S10145   2.378   2.618  10.395 -0.8505 -1.6143 -0.0074
  101OSM    C5S10146   2.448   2.432  10.457 -0.7086 -0.5593 -0.0781
  101OSM    H5S10147   2.517   2.371  10.516 -1.8787 -3.1019 -1.1900
  101OSM    C6S10148   2.378   2.353  10.355  0.2118  0.1607  0.7643
  101OSM    H6S10149   2.283   2.393  10.315  0.8255 -1.2369 -2.3509
  101OSM    H6T10150   2.357   2.248  10.384  0.6490 -0.0709  0.2612
  101OSM    C7S10151   2.468   2.351  10.231  0.5037  0.1399 -0.2062
  101OSM    H7S10152   2.570   2.314  10.257  0.4056 -2.0292 -2.6012
  101OSM    H7T10153   2.472   2.452  10.184  1.0807 -0.2528 -1.0237
  101OSM    C8S10154   2.418   2.259  10.114  0.6059  0.7274  0.1176
  101OSM    H8S10155   2.313   2.279  10.084 -0.1425 -0.3722  1.8511
  101OSM    H8T10156   2.419   2.153  10.145  2.2368  0.3064 -1.2168
  101OSM    C9S10157   2.508   2.263   9.995 -0.3407 -0.2000  0.8280
  101OSM    H9S10158   2.611   2.229  10.018  0.0694 -0.6639 -1.4639
  101OSM    H9T10159   2.529   2.365   9.958 -1.1892 -1.4279 -3.5329
  101OSM   C10S10160   2.451   2.177   9.880 -0.5973  0.1556  0.4661
  101OSM   H10S10161   2.350   2.217   9.858  0.6010  2.3034 -1.6233
  101OSM   H10T10162   2.445   2.075   9.923  0.3080  0.1526  0.6147
  101OSM   C11S10163   2.527   2.171   9.747 -0.6038  0.8901  0.1238
  101OSM   H11S10164   2.600   2.087   9.748 -2.2466 -0.6459  2.3548
  101OSM   H11T10165   2.578   2.269   9.742  0.6576  0.2680  0.5299
  101OSM   C12S10166   2.438   2.147   9.625  0.1922 -0.6163  0.2341
  101OSM   H12S10167   2.352   2.216   9.611 -0.8986 -2.0398 -0.4375
  101OSM   H12T10168   2.393   2.045   9.629  1.8842 -1.6564 -3.4178
  101OSM   C13S10169   2.517   2.146   9.498 -0.5422  0.1514  0.5905
  101OSM   H13S10170   2.564   2.046   9.493  0.1061  0.5107 -1.3031
  101OSM   H13T10171   2.599   2.221   9.504 -1.8955  1.6652  0.9525
  101OSM   C14S10172   2.439   2.153   9.367 -0.6169 -0.1433  0.2454
  101OSM   H14S10173   2.373   2.243   9.367 -1.5220 -0.7154 -2.5397
  101OSM   H14T10174   2.381   2.058   9.371 -0.4724 -0.2241  0.4602
  101OSM   C15S10175   2.532   2.148   9.234  0.0209 -0.1631  0.9824
  101OSM   H15S10176   2.625   2.101   9.272 -1.9645 -2.1560  3.8072
  101OSM   H15T10177   2.538   2.255   9.205 -0.0642  0.3605  2.7674
  101OSM   C16S10178   2.482   2.061   9.124  0.6859  0.4999 -0.1926
  101OSM   H16S10179   2.374   2.086   9.111  0.2103 -0.0784  2.1965
  101OSM   H16T10180   2.502   1.957   9.155 -0.6613  0.3273  0.1931
  101OSM   C17S10181   2.538   2.085   8.982  0.1279  0.2203 -0.3217
  101OSM   H17S10182   2.649   2.080   8.985  0.1324 -0.3871 -1.1546
  101OSM   H17T10183   2.516   2.190   8.953 -1.8087  0.3225  1.3114
  101OSM   C18S10184   2.487   1.999   8.874  0.1794 -0.9618  0.1903
  101OSM   H18S10185   2.503   1.892   8.897 -0.9125 -1.5598 -1.5718
  101OSM   H18T10186   2.528   2.027   8.775 -1.1665  0.2242 -0.0593
  101OSM   H18U10187   2.377   2.018   8.873  0.7049  2.8760  1.0723
  101OSM    C1F10188   2.709   2.793  10.265  0.6025 -0.7337  0.1492
  101OSM     OF10189   2.827   2.774  10.300 -0.0836 -0.2282  0.2148
  101OSM    C2F10190   2.671   2.829  10.121  0.8219 -0.3592 -0.5571
  101OSM    H2F10191   2.747   2.903  10.089  0.9028 -0.4023 -0.4668
  101OSM    H2G10192   2.575   2.886  10.117  0.9638 -0.0523  0.1318
  101OSM    C3F10193   2.678   2.709  10.026 -0.4409 -0.3130  0.3457
  101OSM    H3F10194   2.615   2.622  10.050 -0.3774 -0.0845  1.3855
  101OSM    H3G10195   2.781   2.667  10.023 -0.3072 -0.0065  0.5687
  101OSM    C4F10196   2.642   2.752   9.885 -0.2202 -0.1883  0.2793
  101OSM    H4F10197   2.729   2.810   9.847 -0.5912  0.3994  0.3217
  101OSM    H4G10198   2.548   2.811   9.885 -0.6320 -0.8413  0.3062
  101OSM    C5F10199   2.614   2.630   9.793 -0.3488 -0.1439  0.0781
  101OSM    H5F10200   2.508   2.601   9.812 -0.0798 -0.2080  1.6357
  101OSM    H5G10201   2.683   2.547   9.820 -1.4562 -0.8000  0.9914
  101OSM    C6F10202   2.651   2.660   9.649 -0.1288 -0.3895  0.5457
  101OSM    H6F10203   2.570   2.728   9.616 -1.1360 -2.2575 -1.1034
  101OSM    H6G10204   2.745   2.718   9.655  1.0155 -2.0285 -0.4656
  101OSM    C7F10205   2.659   2.541   9.553  0.1096 -0.0756  0.6296
  101OSM    H7F10206   2.566   2.482   9.568  0.8712 -0.6485  3.6971
  101OSM    H7G10207   2.745   2.476   9.580 -0.3841 -0.8755  0.3080
  101OSM    C8F10208   2.692   2.585   9.411  0.1152 -0.1825  0.5386
  101OSM    H8F10209   2.731   2.497   9.354 -1.4496  1.4582 -3.4585
  101OSM    H8G10210   2.768   2.666   9.399 -0.0717 -0.2745 -1.8219
  101OSM    C9F10211   2.567   2.629   9.340  0.1992 -0.0396 -0.1693
  101OSM    H9F10212   2.482   2.659   9.404  1.2614  1.6460  0.5114
  101OSM   C10F10213   2.560   2.662   9.211 -0.4914  0.0431  0.5816
  101OSM   H10F10214   2.462   2.694   9.173 -0.3547 -0.2954 -0.0847
  101OSM   C11F10215   2.669   2.642   9.109 -0.1193 -0.3883  0.5339
  101OSM   H11F10216   2.771   2.641   9.153 -0.0591 -0.2222  0.4008
  101OSM   H11G10217   2.678   2.725   9.035  1.8398 -2.1856 -1.3666
  101OSM   C12F10218   2.646   2.514   9.029 -0.1131 -0.5404 -0.2855
  101OSM   H12F10219   2.538   2.512   9.000 -0.8349 -1.7841  2.2498
  101OSM   H12G10220   2.653   2.422   9.091 -0.9105 -3.0511 -3.5997
  101OSM   C13F10221   2.728   2.498   8.901 -0.3895 -0.3148  0.3998
  101OSM   H13F10222   2.836   2.490   8.925 -0.1854 -0.9296 -0.6579
  101OSM   H13G10223   2.710   2.581   8.830 -0.5962 -1.2554 -0.6762
  101OSM   C14F10224   2.700   2.367   8.819 -0.2846  0.6097  0.7866
  101OSM   H14F10225   2.680   2.285   8.892  0.2796  1.0488  1.4473
  101OSM   H14G10226   2.785   2.346   8.752 -0.7794 -0.5276  0.4895
  101OSM   C15F10227   2.575   2.379   8.736 -0.1849  0.0780 -0.0273
  101OSM   H15F10228   2.571   2.483   8.698 -1.3151 -0.2404 -0.8338
  101OSM   H15G10229   2.485   2.367   8.800  0.7840  0.7896  1.5109
  101OSM   C16F10230   2.571   2.283   8.619 -0.0489 -0.1661 -0.0221
  101OSM   H16F10231   2.573   2.181   8.663  2.7352 -0.1115  0.1608
  101OSM   H16G10232   2.661   2.298   8.556 -0.2947  2.7287  0.2035
  101OSM   C17F10233   2.453   2.304   8.525 -0.5037  0.1801 -0.3279
  101OSM   H17F10234   2.466   2.406   8.483 -2.4764  0.0173 -1.4244
  101OSM   H17G10235   2.353   2.308   8.572 -0.6305  1.8822 -0.6590
  101OSM   C18F10236   2.455   2.212   8.395  0.4883 -0.8245  0.6373
  101OSM   H18F10237   2.471   2.103   8.408  0.5312 -0.9783 -0.6101
  101OSM   H18G10238   2.536   2.231   8.321  0.0425 -0.3067  0.2778
  101OSM   H18H10239   2.356   2.222   8.347  0.7918 -1.4690 -0.1435
  102OSM      N10240   4.397   3.396  10.481 -0.3704 -0.2422  1.0568
  102OSM    C1510241   4.499   3.354  10.379  0.2884 -0.2880 -0.1225
  102OSM   H15A10242   4.590   3.401  10.414 -0.8234  1.7501  0.2365
  102OSM   H15B10243   4.477   3.396  10.282 -0.7462 -0.8827 -0.1589
  102OSM   H15C10244   4.509   3.247  10.379  2.6731 -0.1206  0.6438
  102OSM    C1410245   4.275   3.305  10.468  0.0234 -0.6924 -0.0928
  102OSM   H14A10246   4.224   3.332  10.376  0.1537  1.2960  0.3821
  102OSM   H14B10247   4.199   3.320  10.544 -0.3754 -3.9096  0.3272
  102OSM   H14C10248   4.309   3.202  10.462  0.5579 -0.4486 -1.9652
  102OSM    C1310249   4.455   3.374  10.615 -0.5113  0.2788 -1.0757
  102OSM   H13A10250   4.461   3.273  10.651  0.4107  0.2560 -1.2627
  102OSM   H13B10251   4.392   3.424  10.687 -1.9488 -0.9641 -1.4260
  102OSM   H13C10252   4.546   3.429  10.632 -1.7247  1.6241  1.7341
  102OSM    C1210253   4.363   3.536  10.454  0.7317 -0.4089  0.6774
  102OSM   H12A10254   4.313   3.538  10.359 -0.7512  1.2156  1.4356
  102OSM   H12B10255   4.456   3.586  10.431  0.9284 -1.7600 -1.8183
  102OSM    C1110256   4.286   3.627  10.560  1.1999 -0.1544 -0.0784
  102OSM   H11A10257   4.278   3.725  10.509  1.8644  0.5982  1.1969
  102OSM   H11B10258   4.350   3.646  10.649 -1.5150  0.3494  1.9316
  102OSM      P10259   4.039   3.573  10.518 -0.0251 -0.0669  0.2651
  102OSM    O1310260   3.965   3.445  10.549  0.1244 -0.2228  0.1337
  102OSM    O1410261   3.958   3.698  10.541 -0.4224 -0.0182 -0.7612
  102OSM    O1110262   4.091   3.562  10.372 -0.4267 -0.2963  0.2090
  102OSM    O1210263   4.164   3.571  10.610  0.6194 -0.7290  0.0574
  102OSM    C1S10264   4.076   3.676  10.279  0.0696 -0.3327  0.6220
  102OSM    H1S10265   4.178   3.721  10.274  0.5552 -1.4792 -0.3450
  102OSM    H1T10266   3.998   3.752  10.299  0.1504  0.1253 -0.7399
  102OSM     NF10267   4.028   3.739  10.042 -0.2193 -0.3852 -0.4032
  102OSM    HNF10268   3.938   3.779  10.026 -0.0865  0.1986  0.2518
  102OSM    C2S10269   4.025   3.630  10.142  0.1890  0.0104 -0.5693
  102OSM    H2S10270   4.095   3.552  10.105 -3.4648 -3.2998 -1.0960
  102OSM    C3S10271   3.892   3.557  10.159  0.5075 -0.1471  0.0514
  102OSM    H3S10272   3.817   3.626  10.204 -0.9662 -2.2872  1.0353
  102OSM     O310273   3.893   3.451  10.256  0.3217  0.3983 -0.2975
  102OSM    HO310274   3.974   3.473  10.304 -0.0300  3.6166 -0.9661
  102OSM    C4S10275   3.840   3.503  10.031 -0.3019  0.1761 -0.4660
  102OSM    H4S10276   3.858   3.395  10.018 -2.7815 -0.2522 -0.9482
  102OSM    C5S10277   3.755   3.561   9.950  0.1616 -0.3902 -0.0675
  102OSM    H5S10278   3.695   3.643   9.993  0.4133 -0.2927  0.1043
  102OSM    C6S10279   3.700   3.491   9.830  0.8058  0.0530 -0.2162
  102OSM    H6S10280   3.765   3.519   9.744 -0.2858 -0.1577 -1.1447
  102OSM    H6T10281   3.604   3.545   9.811  0.2100 -0.7182  0.5452
  102OSM    C7S10282   3.662   3.343   9.834 -0.2782 -0.3207 -0.6866
  102OSM    H7S10283   3.605   3.317   9.926  1.2935  0.8123  0.6675
  102OSM    H7T10284   3.750   3.277   9.826 -1.2022 -1.5831 -0.8500
  102OSM    C8S10285   3.588   3.287   9.701  0.7935  0.0876  0.1488
  102OSM    H8S10286   3.487   3.332   9.697  0.7138 -0.1300 -0.4344
  102OSM    H8T10287   3.582   3.177   9.706  0.5739  0.0588 -0.5406
  102OSM    C9S10288   3.662   3.323   9.568 -0.3813  0.2539 -0.4069
  102OSM    H9S10289   3.768   3.296   9.592 -0.5178  0.2620  0.2278
  102OSM    H9T10290   3.668   3.432   9.548  1.5844 -0.0729 -1.9615
  102OSM   C10S10291   3.605   3.231   9.455  0.0237 -0.5450 -0.0906
  102OSM   H10S10292   3.496   3.249   9.440  0.4422  0.3337 -2.4187
  102OSM   H10T10293   3.631   3.136   9.506  1.0157  0.0765  0.5934
  102OSM   C11S10294   3.679   3.254   9.329 -0.8736 -0.4689  0.0331
  102OSM   H11S10295   3.789   3.243   9.333 -0.7034  0.8420 -0.5583
  102OSM   H11T10296   3.663   3.359   9.297 -0.7084  0.3533  2.4254
  102OSM   C12S10297   3.645   3.162   9.215 -0.0525 -0.5732 -0.2012
  102OSM   H12S10298   3.534   3.163   9.209 -0.0217  0.2292 -0.7223
  102OSM   H12T10299   3.684   3.061   9.239  0.7680 -0.0160  0.8956
  102OSM   C13S10300   3.684   3.211   9.078 -0.9004 -0.3502 -0.4917
  102OSM   H13S10301   3.747   3.303   9.078 -0.0546 -0.8488  1.7045
  102OSM   H13T10302   3.596   3.242   9.018 -0.9039 -2.5063 -1.7072
  102OSM   C14S10303   3.761   3.119   8.982 -0.2767  0.1108 -0.5858
  102OSM   H14S10304   3.700   3.027   8.972 -2.5388  1.0568  2.7174
  102OSM   H14T10305   3.849   3.093   9.046 -1.6643  0.5117  1.5903
  102OSM   C15S10306   3.807   3.193   8.854  0.3368  0.2749  0.4243
  102OSM   H15S10307   3.863   3.282   8.888 -3.5437  2.6205  1.3149
  102OSM   H15T10308   3.718   3.237   8.804  0.9914 -0.2813 -1.3280
  102OSM   C16S10309   3.874   3.097   8.754 -0.1993 -0.7168  0.3911
  102OSM   H16S10310   3.796   3.023   8.724 -0.4928 -0.1102 -0.3730
  102OSM   H16T10311   3.962   3.049   8.802  0.9042 -0.6720 -1.4935
  102OSM   C17S10312   3.917   3.178   8.633  0.0009 -1.2323  0.4060
  102OSM   H17S10313   3.988   3.253   8.672 -2.4395  0.4540  1.9023
  102OSM   H17T10314   3.838   3.245   8.592 -0.4544 -0.5250  2.3126
  102OSM   C18S10315   3.977   3.095   8.523  0.2378 -0.1832 -0.1299
  102OSM   H18S10316   4.064   3.031   8.550  1.8941  1.6961 -0.7714
  102OSM   H18T10317   4.017   3.154   8.437 -1.4797 -0.7606 -1.3940
  102OSM   H18U10318   3.904   3.033   8.465  1.1507 -0.3089 -1.1811
  102OSM    C1F10319   4.138   3.796   9.994  0.7395  0.0219  0.2887
  102OSM     OF10320   4.248   3.783  10.042  0.0853 -0.2642 -0.3697
  102OSM    C2F10321   4.120   3.870   9.865 -0.2773  0.1769 -0.7808
  102OSM    H2F10322   4.180   3.963   9.871  0.9842 -0.5653 -1.4892
  102OSM    H2G10323   4.018   3.915   9.853 -0.3591  0.1121 -0.3257
  102OSM    C3F10324   4.157   3.808   9.733  0.8671  0.7860 -0.2503
  102OSM    H3F10325   4.265   3.780   9.735  0.6858  0.0836  0.4660
  102OSM    H3G10326   4.153   3.884   9.651  0.7638  0.3883 -0.6193
  102OSM    C4F10327   4.074   3.689   9.692 -0.3457 -0.6267  0.5127
  102OSM    H4F10328   3.972   3.731   9.705  0.4566  1.6175  0.0698
  102OSM    H4G10329   4.093   3.598   9.753 -1.3998 -0.6659  0.7964
  102OSM    C5F10330   4.100   3.659   9.542  0.1141 -0.1744  0.0513
  102OSM    H5F10331   4.202   3.618   9.528 -0.5222 -2.0579  0.6710
  102OSM    H5G10332   4.080   3.758   9.496 -3.3851 -1.0962 -0.7143
  102OSM    C6F10333   3.995   3.560   9.484 -0.0625 -0.5886  0.4965
  102OSM    H6F10334   3.964   3.488   9.563  1.3607 -1.2925  0.4415
  102OSM    H6G10335   4.049   3.505   9.405  0.2662 -0.3007  0.5216
  102OSM    C7F10336   3.879   3.637   9.407  0.1302  0.4465 -0.7212
  102OSM    H7F10337   3.835   3.695   9.490 -1.5216 -0.3446 -1.0178
  102OSM    H7G10338   3.805   3.566   9.365 -1.0223  1.3142 -0.2020
  102OSM    C8F10339   3.910   3.719   9.279  0.0021  0.1887  0.3064
  102OSM    H8F10340   3.991   3.787   9.314  1.2367 -1.0778 -0.0075
  102OSM    H8G10341   3.817   3.776   9.259 -0.0947  0.1598  0.6676
  102OSM    C9F10342   3.953   3.635   9.158 -0.0996  0.9626  0.5708
  102OSM    H9F10343   4.061   3.616   9.150 -0.0370  1.2277  0.7617
  102OSM   C10F10344   3.873   3.581   9.066  0.0104 -0.5069  0.4566
  102OSM   H10F10345   3.921   3.523   8.986  1.5119  1.4381 -0.1443
  102OSM   C11F10346   3.730   3.601   9.057  1.3683  0.4288  0.2426
  102OSM   H11F10347   3.687   3.664   9.138 -1.2714  1.5787 -1.8802
  102OSM   H11G10348   3.674   3.506   9.067  2.1771 -0.0518  0.3216
  102OSM   C12F10349   3.690   3.680   8.929  0.0539  0.3285  0.2824
  102OSM   H12F10350   3.761   3.765   8.919 -1.3962  1.4625 -1.0444
  102OSM   H12G10351   3.585   3.713   8.947  0.0618 -0.2376  1.4242
  102OSM   C13F10352   3.683   3.589   8.808  0.3446 -0.5970 -0.3280
  102OSM   H13F10353   3.605   3.512   8.824  0.7743 -1.0167 -0.2473
  102OSM   H13G10354   3.782   3.539   8.807  0.2862 -0.7103 -1.0880
  102OSM   C14F10355   3.670   3.669   8.671  0.4125  0.1690 -0.3776
  102OSM   H14F10356   3.753   3.742   8.672  0.4677  0.2310  2.8695
  102OSM   H14G10357   3.573   3.723   8.682 -0.5835 -1.3513 -1.3162
  102OSM   C15F10358   3.686   3.575   8.551  0.0465 -0.6373  1.1636
  102OSM   H15F10359   3.782   3.520   8.560 -0.1121 -0.7496  2.4427
  102OSM   H15G10360   3.703   3.623   8.453  0.5198 -1.8490  0.6367
  102OSM   C16F10361   3.561   3.493   8.516  0.3734  0.6084 -0.3197
  102OSM   H16F10362   3.491   3.572   8.483 -3.0549 -2.3357 -0.7518
  102OSM   H16G10363   3.521   3.449   8.610  0.2538  0.2040 -0.5572
  102OSM   C17F10364   3.576   3.386   8.401 -0.0864 -0.2890 -0.1105
  102OSM   H17F10365   3.637   3.316   8.462 -1.1376 -1.6518 -0.5528
  102OSM   H17G10366   3.639   3.431   8.321 -0.9437 -1.3722 -1.4419
  102OSM   C18F10367   3.456   3.307   8.353 -0.4670  0.3939 -0.4015
  102OSM   H18F10368   3.492   3.238   8.273  1.4130  0.0349  0.6904
  102OSM   H18G10369   3.372   3.370   8.318  1.2481  1.7800 -2.2605
  102OSM   H18H10370   3.423   3.238   8.435 -1.2494  2.3845  1.0361
  103OSM      N10371   2.419   6.633  10.958 -0.0924 -0.2030  0.8404
  103OSM    C1510372   2.520   6.661  11.063  0.1461 -0.2381  0.3239
  103OSM   H15A10373   2.610   6.712  11.032  0.2107 -1.0919 -0.9188
  103OSM   H15B10374   2.548   6.565  11.104 -1.5287 -1.2606 -0.7956
  103OSM   H15C10375   2.472   6.716  11.143  0.8543  0.0980  0.5204
  103OSM    C1410376   2.453   6.517  10.867 -0.5909  0.3312 -0.5380
  103OSM   H14A10377   2.465   6.427  10.926  0.8070  1.2785  0.6821
  103OSM   H14B10378   2.546   6.525  10.812 -0.8961 -0.8782 -1.2674
  103OSM   H14C10379   2.379   6.481  10.797 -0.0824  0.8899 -1.3848
  103OSM    C1310380   2.293   6.586  11.022 -0.0054  0.1017 -0.3886
  103OSM   H13A10381   2.247   6.661  11.085  1.4497  0.6153  0.1242
  103OSM   H13B10382   2.300   6.494  11.077  0.0501  0.4244  0.1514
  103OSM   H13C10383   2.222   6.577  10.941  0.4435 -0.2539 -0.7458
  103OSM    C1210384   2.389   6.747  10.870  0.1954  0.3877 -0.2507
  103OSM   H12A10385   2.384   6.841  10.923 -0.9652  0.7110 -0.9168
  103OSM   H12B10386   2.290   6.731  10.831 -0.3581  1.5335  0.6156
  103OSM    C1110387   2.493   6.770  10.757  0.1241  0.1942  0.5545
  103OSM   H11A10388   2.448   6.858  10.707 -1.1850 -0.7721 -0.0210
  103OSM   H11B10389   2.489   6.697  10.673 -2.4274  0.6262  0.2080
  103OSM      P10390   2.745   6.732  10.737 -0.4573 -0.6709 -0.1989
  103OSM    O1310391   2.869   6.776  10.804  0.3653  0.2007 -0.2864
  103OSM    O1410392   2.717   6.585  10.730 -0.4282 -0.0374 -0.1552
  103OSM    O1110393   2.739   6.794  10.597 -0.2451  0.1638 -0.2653
  103OSM    O1210394   2.624   6.802  10.812  0.0989  0.4478 -0.3024
  103OSM    C1S10395   2.743   6.939  10.584 -0.2918 -0.3578 -0.5328
  103OSM    H1S10396   2.835   6.983  10.627 -1.9284  1.7046  1.0994
  103OSM    H1T10397   2.658   6.983  10.641  0.5459  2.0688 -1.0678
  103OSM     NF10398   2.791   7.127  10.436  0.0844 -0.0901 -0.6053
  103OSM    HNF10399   2.725   7.196  10.465 -1.5599 -1.6456 -0.4723
  103OSM    C2S10400   2.739   6.990  10.437 -0.4414  0.2629  0.4033
  103OSM    H2S10401   2.810   6.924  10.383  1.9015  1.3010  2.0038
  103OSM    C3S10402   2.599   6.971  10.374  0.7006  0.2491  0.5732
  103OSM    H3S10403   2.523   7.020  10.439  0.9725 -0.3228  1.3357
  103OSM     O310404   2.553   6.834  10.378  0.5741  0.3465 -0.5959
  103OSM    HO310405   2.603   6.805  10.454  0.5006 -2.1082 -1.4036
  103OSM    C4S10406   2.587   7.025  10.236 -0.8404 -0.2713  0.1291
  103OSM    H4S10407   2.641   6.960  10.165 -2.0240 -1.0448 -0.0850
  103OSM    C5S10408   2.525   7.137  10.193 -0.5979  0.2544 -0.8090
  103OSM    H5S10409   2.481   7.205  10.266  1.9502  1.1194  0.0162
  103OSM    C6S10410   2.520   7.165  10.046 -0.4062 -0.3505 -0.0887
  103OSM    H6S10411   2.572   7.263  10.033  1.7671 -1.3667  0.4761
  103OSM    H6T10412   2.411   7.171  10.028 -0.4320  0.8088  0.3331
  103OSM    C7S10413   2.583   7.070   9.944  0.8138 -0.1415 -0.6442
  103OSM    H7S10414   2.550   6.969   9.976 -1.5023  1.0707  1.0830
  103OSM    H7T10415   2.693   7.082   9.948  0.6151  1.6372  0.9872
  103OSM    C8S10416   2.527   7.090   9.794 -0.2060  0.5538 -0.5485
  103OSM    H8S10417   2.416   7.085   9.784 -0.2592  1.2467 -0.3122
  103OSM    H8T10418   2.569   7.001   9.741  1.6774  0.8784  0.3242
  103OSM    C9S10419   2.575   7.219   9.731 -0.5773  0.0298 -0.8550
  103OSM    H9S10420   2.686   7.219   9.725 -0.4691 -1.7655  0.3628
  103OSM    H9T10421   2.554   7.293   9.811 -2.5730 -1.6494  0.2912
  103OSM   C10S10422   2.515   7.251   9.606 -0.2067  0.4839  0.0856
  103OSM   H10S10423   2.543   7.355   9.579  1.4703 -0.1234 -0.5769
  103OSM   H10T10424   2.404   7.245   9.620 -0.4545  2.4585 -0.7177
  103OSM   C11S10425   2.547   7.150   9.487  0.5651 -0.0236  0.6470
  103OSM   H11S10426   2.511   7.049   9.519 -0.2135 -0.6651 -2.0362
  103OSM   H11T10427   2.657   7.150   9.476  0.8765  0.2698  3.1802
  103OSM   C12S10428   2.477   7.190   9.351  0.0799 -0.1422  0.5660
  103OSM   H12S10429   2.494   7.299   9.334  0.1509 -0.2976 -0.4092
  103OSM   H12T10430   2.368   7.171   9.355  0.1320 -0.2461  2.1767
  103OSM   C13S10431   2.545   7.124   9.228  0.6342  0.5094  0.1004
  103OSM   H13S10432   2.524   7.016   9.242  0.9704  0.4747  0.3446
  103OSM   H13T10433   2.655   7.136   9.235  0.5561  0.3267  2.5433
  103OSM   C14S10434   2.485   7.168   9.092 -0.3359 -0.3220 -0.0792
  103OSM   H14S10435   2.499   7.277   9.074 -0.7656  0.2833  2.7189
  103OSM   H14T10436   2.375   7.160   9.104 -0.3857  1.3756  0.9645
  103OSM   C15S10437   2.535   7.096   8.969  0.1970  0.6432 -0.2738
  103OSM   H15S10438   2.535   6.985   8.982  0.2573  0.8040  1.3728
  103OSM   H15T10439   2.637   7.125   8.939  0.2275 -2.0387 -3.2929
  103OSM   C16S10440   2.428   7.109   8.859 -0.2137  0.4552 -0.8590
  103OSM   H16S10441   2.440   7.212   8.820  1.2624  0.9495  0.7353
  103OSM   H16T10442   2.333   7.094   8.915  1.0962  1.7765  1.9246
  103OSM   C17S10443   2.436   7.010   8.740 -0.1934 -0.0147 -0.2207
  103OSM   H17S10444   2.425   6.906   8.777 -1.5663 -0.3896 -1.5676
  103OSM   H17T10445   2.533   7.009   8.686 -0.7212  1.9281 -1.2895
  103OSM   C18S10446   2.319   7.033   8.646  0.4527 -0.4528  0.1856
  103OSM   H18S10447   2.323   6.970   8.555 -0.3502 -0.2751  0.0175
  103OSM   H18T10448   2.318   7.137   8.606 -2.2281 -0.9540 -1.2859
  103OSM   H18U10449   2.218   7.026   8.692 -0.2662 -1.1099 -1.4246
  103OSM    C1F10450   2.920   7.152  10.431 -0.4449 -0.1829 -0.8289
  103OSM     OF10451   2.999   7.057  10.430  0.1148  0.2809 -0.3103
  103OSM    C2F10452   2.959   7.294  10.460 -0.0002  0.0136 -0.5349
  103OSM    H2F10453   2.966   7.297  10.571 -0.3180 -0.4562 -0.5022
  103OSM    H2G10454   2.890   7.371  10.419 -0.3971  0.1883  0.4477
  103OSM    C3F10455   3.109   7.319  10.417  0.2813 -0.4004 -0.3349
  103OSM    H3F10456   3.178   7.232  10.428 -0.4921 -1.2396 -1.8391
  103OSM    H3G10457   3.142   7.400  10.487 -1.1545 -0.9701  1.0545
  103OSM    C4F10458   3.124   7.368  10.273 -0.2271  0.1632  0.9162
  103OSM    H4F10459   3.216   7.430  10.278 -0.5447  0.5390  3.0611
  103OSM    H4G10460   3.042   7.439  10.251  0.2876  0.1334 -1.2682
  103OSM    C5F10461   3.146   7.249  10.172 -0.5352 -0.1527 -0.6323
  103OSM    H5F10462   3.076   7.169  10.203 -0.3031 -1.3511 -3.0043
  103OSM    H5G10463   3.244   7.201  10.188 -1.9645 -3.0315  0.1526
  103OSM    C6F10464   3.132   7.280  10.021 -0.0690  0.0464  0.0004
  103OSM    H6F10465   3.029   7.314   9.995  0.8631  2.8930 -0.2820
  103OSM    H6G10466   3.149   7.188   9.961 -0.8953 -1.0807  1.4002
  103OSM    C7F10467   3.218   7.399   9.976 -0.2174  0.5838 -0.4739
  103OSM    H7F10468   3.322   7.369  10.001 -1.0078 -1.1712  0.9866
  103OSM    H7G10469   3.186   7.490  10.031  1.5690  1.1818 -0.3480
  103OSM    C8F10470   3.193   7.414   9.825 -0.3048 -0.3432 -0.2188
  103OSM    H8F10471   3.082   7.410   9.823 -0.3042 -0.6734  0.3170
  103OSM    H8G10472   3.238   7.325   9.776  0.7756  0.1136 -0.0834
  103OSM    C9F10473   3.234   7.542   9.760  0.5232 -0.7289  0.0462
  103OSM    H9F10474   3.209   7.634   9.815  1.5084 -1.6992  2.2342
  103OSM   C10F10475   3.282   7.552   9.638  0.3870 -0.2468  0.1101
  103OSM   H10F10476   3.307   7.653   9.601  0.5801  0.2613  1.5652
  103OSM   C11F10477   3.322   7.438   9.547  0.6254 -0.4807  0.4495
  103OSM   H11F10478   3.284   7.341   9.584 -1.2089  1.0282  2.8038
  103OSM   H11G10479   3.429   7.412   9.543  0.3022 -1.8313 -0.0011
  103OSM   C12F10480   3.278   7.477   9.402  0.1227  1.0690  0.4908
  103OSM   H12F10481   3.327   7.565   9.356  0.4253  1.3781  1.3854
  103OSM   H12G10482   3.168   7.493   9.397 -0.2393 -1.4174 -1.1321
  103OSM   C13F10483   3.304   7.362   9.305 -0.8196  0.5329  0.4320
  103OSM   H13F10484   3.264   7.265   9.342  1.2841 -0.9669 -0.9681
  103OSM   H13G10485   3.411   7.330   9.299 -1.2135 -0.7795  0.1369
  103OSM   C14F10486   3.251   7.386   9.163 -0.2288  0.1339 -0.4460
  103OSM   H14F10487   3.262   7.489   9.121 -2.4022  0.6533  0.1194
  103OSM   H14G10488   3.140   7.383   9.170 -0.6376  2.8771 -3.3322
  103OSM   C15F10489   3.287   7.288   9.055  0.1389  0.6529 -0.2026
  103OSM   H15F10490   3.292   7.186   9.101 -1.3646  0.6481  0.0110
  103OSM   H15G10491   3.384   7.314   9.009 -0.8120  1.3446 -1.8984
  103OSM   C16F10492   3.193   7.279   8.938  0.9333 -0.6411  0.2230
  103OSM   H16F10493   3.183   7.381   8.896 -1.8812 -0.3731  1.3021
  103OSM   H16G10494   3.096   7.236   8.972  2.0482 -1.4740  2.5390
  103OSM   C17F10495   3.239   7.178   8.837 -0.4861 -0.2363  0.4266
  103OSM   H17F10496   3.227   7.077   8.881 -1.5944 -0.3850 -0.1894
  103OSM   H17G10497   3.347   7.201   8.823  0.3577 -1.3930  3.9497
  103OSM   C18F10498   3.160   7.167   8.705  0.1288 -0.4534  0.1598
  103OSM   H18F10499   3.177   7.257   8.642  0.8663  1.4154  2.8373
  103OSM   H18G10500   3.053   7.168   8.732 -0.0116  1.9388 -0.2814
  103OSM   H18H10501   3.193   7.074   8.655  2.3165 -0.4867  1.5235
  104OSM      N10502   3.183   6.513  10.736  0.0795 -0.2171 -0.2026
  104OSM    C1510503   3.117   6.390  10.780 -0.6364  0.3140  0.4107
  104OSM   H15A10504   3.181   6.323  10.835  2.4053  1.1462 -1.8991
  104OSM   H15B10505   3.100   6.320  10.700  2.4096 -2.9966  2.4083
  104OSM   H15C10506   3.020   6.405  10.826  0.4158  1.8278  2.2953
  104OSM    C1410507   3.080   6.594  10.669 -0.5874 -0.1782 -0.0621
  104OSM   H14A10508   3.117   6.682  10.619  0.2031  0.2222  1.1825
  104OSM   H14B10509   3.013   6.643  10.739  2.7071  2.3111  1.6528
  104OSM   H14C10510   3.025   6.530  10.603 -2.2323  1.1461 -0.0385
  104OSM    C1310511   3.233   6.586  10.854 -0.3810 -0.8345 -0.5544
  104OSM   H13A10512   3.159   6.597  10.932  1.0478 -1.0575  0.8869
  104OSM   H13B10513   3.274   6.682  10.830  0.8960 -0.4942  2.5931
  104OSM   H13C10514   3.317   6.528  10.889  1.0578  1.4959 -0.0055
  104OSM    C1210515   3.295   6.471  10.644  0.0898  0.3122  0.3142
  104OSM   H12A10516   3.370   6.417  10.701  2.9186  0.8071 -2.6064
  104OSM   H12B10517   3.344   6.556  10.600  0.3705  0.6941  1.3262
  104OSM    C1110518   3.265   6.379  10.524 -0.0317 -0.4111 -0.1945
  104OSM   H11A10519   3.361   6.371  10.468 -0.3852  1.3018 -1.1094
  104OSM   H11B10520   3.193   6.431  10.457 -0.2369  0.6321  0.8017
  104OSM      P10521   3.314   6.137  10.609  0.2286 -0.4341  0.2594
  104OSM    O1310522   3.380   6.175  10.734 -0.0610  0.5853  0.5698
  104OSM    O1410523   3.234   6.009  10.604 -0.0603  0.1122 -0.2771
  104OSM    O1110524   3.426   6.120  10.506 -0.4613  0.2717  0.2540
  104OSM    O1210525   3.215   6.251  10.555 -0.6776 -0.1548 -0.0035
  104OSM    C1S10526   3.413   6.070  10.374  0.7540  0.9058  0.0589
  104OSM    H1S10527   3.371   6.154  10.314  1.8164  0.4371 -1.4034
  104OSM    H1T10528   3.336   5.991  10.361  1.8807 -0.1315 -0.5683
  104OSM     NF10529   3.520   5.982  10.173 -0.4437  0.0890 -0.6352
  104OSM    HNF10530   3.497   5.891  10.139 -2.1063  0.0509  0.4732
  104OSM    C2S10531   3.541   6.010  10.311 -0.4395  0.6624 -0.4130
  104OSM    H2S10532   3.626   6.079  10.332 -2.0897  1.4654  5.1758
  104OSM    C3S10533   3.592   5.881  10.387 -0.4566  0.4397 -0.1932
  104OSM    H3S10534   3.504   5.813  10.387  0.6751 -1.1014 -1.6716
  104OSM     O310535   3.618   5.901  10.525 -0.1103  0.2560  0.3141
  104OSM    HO310536   3.573   5.983  10.547 -0.3502  0.0473  0.6156
  104OSM    C4S10537   3.717   5.818  10.315  0.3863  1.1043  0.1475
  104OSM    H4S10538   3.694   5.737  10.244  1.2929  1.0219 -0.0719
  104OSM    C5S10539   3.848   5.843  10.330 -0.7006 -0.3189  0.1421
  104OSM    H5S10540   3.881   5.929  10.390 -1.0732 -0.6406  0.8205
  104OSM    C6S10541   3.958   5.783  10.250 -0.0402 -0.2012 -0.5014
  104OSM    H6S10542   3.920   5.701  10.187  1.5941 -0.0873 -1.6915
  104OSM    H6T10543   4.032   5.741  10.322  0.1948 -1.2115 -1.3275
  104OSM    C7S10544   4.034   5.877  10.153  0.4443  0.2001 -0.4296
  104OSM    H7S10545   4.116   5.816  10.109  1.3605  0.0079  1.4585
  104OSM    H7T10546   4.073   5.967  10.204  0.7989  1.7932 -3.3116
  104OSM    C8S10547   3.951   5.914  10.025 -0.0626 -0.4498  0.2067
  104OSM    H8S10548   3.852   5.960  10.042 -0.7537 -0.3531 -3.3104
  104OSM    H8T10549   3.915   5.821   9.975  2.9475 -0.8410 -1.4712
  104OSM    C9S10550   4.030   5.988   9.912  0.2683 -0.1500 -0.0907
  104OSM    H9S10551   4.124   5.936   9.886  0.2632  0.7611 -2.1438
  104OSM    H9T10552   4.048   6.094   9.940 -2.8834  0.2363  0.8889
  104OSM   C10S10553   3.953   5.985   9.781 -0.6138 -0.3036 -0.1639
  104OSM   H10S10554   3.849   6.025   9.782  0.1799  1.9819 -1.5047
  104OSM   H10T10555   3.936   5.880   9.749 -2.4639  0.1238 -0.7290
  104OSM   C11S10556   4.034   6.055   9.668  0.5297 -0.2838 -0.8461
  104OSM   H11S10557   4.143   6.051   9.689  0.5000  2.2710  0.0897
  104OSM   H11T10558   4.013   6.164   9.665  1.0332  0.0536  3.0003
  104OSM   C12S10559   3.991   5.997   9.535 -0.1878 -0.4058  0.5502
  104OSM   H12S10560   3.882   5.978   9.526 -0.7271  2.2429  0.8334
  104OSM   H12T10561   4.033   5.894   9.524 -2.5163 -1.3993  0.3534
  104OSM   C13S10562   4.034   6.085   9.422  0.3355  0.6413  1.0175
  104OSM   H13S10563   4.143   6.100   9.439  0.8661 -2.6006  1.2745
  104OSM   H13T10564   3.984   6.184   9.420 -2.5780 -0.7200  1.1803
  104OSM   C14S10565   3.997   6.029   9.278  0.0499 -0.6600  0.7606
  104OSM   H14S10566   3.886   6.031   9.281  0.0638  1.4762  1.9342
  104OSM   H14T10567   4.041   5.928   9.267  0.5147 -0.5085  1.2025
  104OSM   C15S10568   4.040   6.102   9.150 -0.1230 -0.1595 -0.0855
  104OSM   H15S10569   4.146   6.133   9.134 -0.6897  2.8771  1.3772
  104OSM   H15T10570   3.988   6.200   9.159  1.0468  0.5704 -0.9392
  104OSM   C16S10571   4.007   6.024   9.020  0.4609 -0.3848  0.2773
  104OSM   H16S10572   3.993   6.091   8.933 -0.1050  1.9955  2.1056
  104OSM   H16T10573   3.913   5.969   9.041 -1.1679  1.5453 -1.4833
  104OSM   C17S10574   4.111   5.926   8.978 -0.6994 -0.6319  0.3383
  104OSM   H17S10575   4.146   5.856   9.056 -0.6187 -1.2015 -0.2001
  104OSM   H17T10576   4.204   5.982   8.953  0.5190 -1.7085  2.2409
  104OSM   C18S10577   4.073   5.855   8.854  0.4302 -0.7555 -0.5124
  104OSM   H18S10578   4.058   5.922   8.767 -1.4518 -0.9753 -0.3854
  104OSM   H18T10579   3.979   5.797   8.853  0.5628 -1.0289 -2.9205
  104OSM   H18U10580   4.159   5.787   8.831  2.2814  1.7564 -1.4363
  104OSM    C1F10581   3.537   6.071  10.076  0.0225 -0.9632 -0.1871
  104OSM     OF10582   3.585   6.181  10.103  0.2694 -0.0927 -0.7566
  104OSM    C2F10583   3.507   6.035   9.937  0.0283  0.5194 -0.2919
  104OSM    H2F10584   3.411   5.980   9.936 -0.1336  0.8019 -0.9384
  104OSM    H2G10585   3.581   5.957   9.909  0.7958  0.9674  0.4461
  104OSM    C3F10586   3.499   6.161   9.843 -0.3211 -0.4582 -0.1763
  104OSM    H3F10587   3.586   6.229   9.847 -0.3538 -0.3902 -0.5333
  104OSM    H3G10588   3.416   6.225   9.879  1.6439  2.0111  0.1744
  104OSM    C4F10589   3.472   6.141   9.694 -0.4605  0.3868  0.2448
  104OSM    H4F10590   3.438   6.232   9.641 -2.2540 -0.6011 -0.3833
  104OSM    H4G10591   3.396   6.060   9.687  0.1561 -0.1514 -0.5291
  104OSM    C5F10592   3.596   6.096   9.612  0.4567  0.3681 -0.3534
  104OSM    H5F10593   3.613   5.989   9.639  0.8748  0.4823 -0.1564
  104OSM    H5G10594   3.686   6.150   9.649 -0.6349  2.2232 -0.3097
  104OSM    C6F10595   3.583   6.123   9.457  0.0360  0.1746  0.3673
  104OSM    H6F10596   3.689   6.133   9.426  0.5140 -1.9954  1.1361
  104OSM    H6G10597   3.529   6.218   9.437 -1.3893 -0.7210 -0.1887
  104OSM    C7F10598   3.527   5.999   9.385  0.0997  0.5402 -0.3763
  104OSM    H7F10599   3.433   5.979   9.441  0.6645 -0.2471  0.3316
  104OSM    H7G10600   3.590   5.911   9.410 -1.1338 -0.4626 -0.6887
  104OSM    C8F10601   3.506   6.016   9.232 -0.1052 -0.0948  0.6275
  104OSM    H8F10602   3.607   6.036   9.191 -0.6007  3.6831  0.8881
  104OSM    H8G10603   3.453   6.114   9.231 -0.6921 -0.4077 -0.0425
  104OSM    C9F10604   3.429   5.905   9.161  0.8692  0.2350 -0.4215
  104OSM    H9F10605   3.393   5.830   9.233 -0.4557  0.4151 -0.8698
  104OSM   C10F10606   3.422   5.887   9.031 -0.3015  0.7178  0.6244
  104OSM   H10F10607   3.386   5.788   9.000 -0.9730  1.0568  0.2853
  104OSM   C11F10608   3.484   5.970   8.918  0.3295 -0.3574 -0.0020
  104OSM   H11F10609   3.519   6.064   8.966  1.4421  0.7626 -2.8317
  104OSM   H11G10610   3.410   5.995   8.839  0.6672  0.3043 -0.1140
  104OSM   C12F10611   3.591   5.885   8.847 -0.3388 -0.3180 -0.2618
  104OSM   H12F10612   3.674   5.864   8.917 -0.7671  0.1045  0.3827
  104OSM   H12G10613   3.637   5.938   8.761 -0.5815 -0.4812 -0.4973
  104OSM   C13F10614   3.527   5.760   8.782  0.1517 -0.1711  0.4042
  104OSM   H13F10615   3.431   5.790   8.735 -0.8496 -0.6952  2.0576
  104OSM   H13G10616   3.515   5.687   8.865  1.2119  0.1478  0.8629
  104OSM   C14F10617   3.618   5.702   8.673  0.1785 -0.7045 -0.0313
  104OSM   H14F10618   3.717   5.678   8.718  0.5943  0.7238 -0.1330
  104OSM   H14G10619   3.642   5.783   8.600 -2.7124  1.0974  0.8590
  104OSM   C15F10620   3.579   5.579   8.589  0.8114  0.1256  0.0417
  104OSM   H15F10621   3.477   5.602   8.552 -0.0555 -1.4777  1.3007
  104OSM   H15G10622   3.576   5.491   8.658  0.4842 -0.6103 -0.8825
  104OSM   C16F10623   3.668   5.547   8.466  0.0656  0.2108  0.0306
  104OSM   H16F10624   3.776   5.550   8.491  0.6962 -3.9798 -1.3526
  104OSM   H16G10625   3.661   5.625   8.389  1.9961 -0.0438 -0.4458
  104OSM   C17F10626   3.637   5.413   8.399 -0.4389 -0.0113  0.2701
  104OSM   H17F10627   3.540   5.432   8.349 -0.6859 -1.5967  0.0938
  104OSM   H17G10628   3.621   5.325   8.465  1.7972 -1.7871 -1.3691
  104OSM   C18F10629   3.744   5.375   8.287  0.1534  0.4771 -0.3304
  104OSM   H18F10630   3.837   5.358   8.345  0.9745 -0.6443 -1.9073
  104OSM   H18G10631   3.774   5.456   8.216 -0.7594 -0.7468 -2.1769
  104OSM   H18H10632   3.721   5.280   8.234  0.1016  0.0898  0.3756
  105OSM      N10633   1.909   4.684  10.841 -0.6942  0.1989 -0.2667
  105OSM    C1510634   1.781   4.670  10.902 -0.1674  0.3202  0.3216
  105OSM   H15A10635   1.718   4.750  10.867  1.5456  1.3857 -0.4494
  105OSM   H15B10636   1.796   4.686  11.007 -3.6453  1.8064  0.7193
  105OSM   H15C10637   1.728   4.576  10.887 -1.0782  0.7302  0.8692
  105OSM    C1410638   1.878   4.732  10.702  0.0977 -0.4780  0.9451
  105OSM   H14A10639   1.839   4.832  10.692  1.8341  0.1608  0.0256
  105OSM   H14B10640   1.806   4.671  10.651 -0.4059  1.8371 -1.3377
  105OSM   H14C10641   1.964   4.729  10.636  0.4257 -1.6625  1.3982
  105OSM    C1310642   1.976   4.788  10.914 -0.3455 -0.1272 -1.3070
  105OSM   H13A10643   2.064   4.832  10.869  1.6084  0.0423  2.3693
  105OSM   H13B10644   1.998   4.760  11.015  0.7949  0.5864 -1.3376
  105OSM   H13C10645   1.897   4.862  10.919 -1.2165 -1.0945 -0.3214
  105OSM    C1210646   1.979   4.553  10.841 -0.5893  0.4569  0.2338
  105OSM   H12A10647   2.013   4.524  10.939 -2.0400 -0.0371  0.6141
  105OSM   H12B10648   2.073   4.565  10.788 -0.4655 -0.4725  0.2296
  105OSM    C1110649   1.913   4.423  10.783 -0.2907 -0.0097 -0.3532
  105OSM   H11A10650   1.986   4.339  10.783  0.4195  0.5798  0.8042
  105OSM   H11B10651   1.897   4.445  10.675  0.8064 -1.4693 -0.8482
  105OSM      P10652   1.728   4.261  10.872  0.3566 -0.0759 -0.0507
  105OSM    O1310653   1.810   4.172  10.953  0.1286 -0.1236 -0.5017
  105OSM    O1410654   1.592   4.285  10.922  0.2044 -0.0469 -0.2398
  105OSM    O1110655   1.734   4.219  10.716 -0.4250  0.1859 -0.1187
  105OSM    O1210656   1.794   4.400  10.857 -0.2715  0.8629 -0.4631
  105OSM    C1S10657   1.658   4.288  10.618  0.9992  0.4542  0.0158
  105OSM    H1S10658   1.723   4.365  10.571  0.5725 -1.3223 -3.8936
  105OSM    H1T10659   1.570   4.339  10.663 -0.5116 -2.0381  0.1061
  105OSM     NF10660   1.527   4.282  10.399 -0.4633  0.3711 -0.4172
  105OSM    HNF10661   1.427   4.277  10.408 -0.2628 -2.1426  1.7376
  105OSM    C2S10662   1.592   4.200  10.504  0.0042 -0.0391  0.2952
  105OSM    H2S10663   1.680   4.155  10.452 -0.0001 -0.7631  0.8955
  105OSM    C3S10664   1.514   4.081  10.563 -0.0999  0.2249  0.4081
  105OSM    H3S10665   1.437   4.133  10.624 -3.0675 -0.8164 -2.1784
  105OSM     O310666   1.583   4.002  10.656  0.6562 -0.2913 -0.4304
  105OSM    HO310667   1.651   4.060  10.690 -2.3373  3.3243  0.0558
  105OSM    C4S10668   1.445   3.994  10.466 -0.1005  0.4079 -0.8909
  105OSM    H4S10669   1.509   3.922  10.412 -2.7631 -0.2671 -3.3912
  105OSM    C5S10670   1.318   3.977  10.449  0.3033 -0.6337  0.0776
  105OSM    H5S10671   1.243   4.015  10.520  2.0175  1.5025  0.8865
  105OSM    C6S10672   1.250   3.886  10.356  0.3010 -0.2340  0.0121
  105OSM    H6S10673   1.161   3.944  10.324  0.7307 -0.2187 -1.2417
  105OSM    H6T10674   1.231   3.786  10.400  0.7035 -1.2545 -1.9726
  105OSM    C7S10675   1.324   3.855  10.223 -0.7229 -1.0264 -0.0830
  105OSM    H7S10676   1.269   3.784  10.158  0.4954 -3.7265  1.6343
  105OSM    H7T10677   1.420   3.805  10.246 -0.4704 -1.3657 -1.8158
  105OSM    C8S10678   1.365   3.978  10.138 -0.6583 -0.1198 -0.2099
  105OSM    H8S10679   1.454   4.020  10.190 -0.8591 -0.4078  0.3855
  105OSM    H8T10680   1.295   4.062  10.158 -1.0045 -0.5475  0.4447
  105OSM    C9S10681   1.390   3.943   9.998 -0.2300  0.7520  0.2949
  105OSM    H9S10682   1.306   3.885   9.954  1.6721 -0.2278 -2.2693
  105OSM    H9T10683   1.482   3.881  10.002 -1.9269 -1.8887  3.1530
  105OSM   C10S10684   1.416   4.066   9.912  0.4189  0.0299  0.0196
  105OSM   H10S10685   1.514   4.107   9.946  1.6916 -2.2322 -0.6949
  105OSM   H10T10686   1.342   4.143   9.942  1.1540 -0.1889  2.6461
  105OSM   C11S10687   1.425   4.026   9.760  0.4681  0.4301 -0.9198
  105OSM   H11S10688   1.324   4.020   9.714  0.1727 -0.4938 -0.1866
  105OSM   H11T10689   1.476   3.928   9.754  1.8747  1.2372 -3.3687
  105OSM   C12S10690   1.486   4.138   9.685  0.7514  0.1238 -0.7220
  105OSM   H12S10691   1.586   4.154   9.731 -0.8618 -1.7124  4.0674
  105OSM   H12T10692   1.423   4.229   9.698  2.0806  0.7758  1.6820
  105OSM   C13S10693   1.507   4.088   9.543 -0.1459 -0.2051  0.9996
  105OSM   H13S10694   1.416   4.033   9.510 -1.9461  0.9861  3.6600
  105OSM   H13T10695   1.601   4.030   9.550 -0.0110 -0.9513 -3.5833
  105OSM   C14S10696   1.531   4.205   9.452  0.4089  0.3229  0.4770
  105OSM   H14S10697   1.603   4.272   9.503  1.6539 -0.2909 -0.4125
  105OSM   H14T10698   1.431   4.250   9.433  0.0935 -1.1236 -1.7079
  105OSM   C15S10699   1.598   4.186   9.307 -0.3917 -0.2877  0.3960
  105OSM   H15S10700   1.526   4.120   9.255  1.6171 -3.0393  0.8770
  105OSM   H15T10701   1.692   4.127   9.311 -1.1224 -1.5438 -0.5100
  105OSM   C16S10702   1.630   4.316   9.228 -0.1999 -0.2117 -0.2800
  105OSM   H16S10703   1.696   4.383   9.287 -3.3994  1.4123  1.7667
  105OSM   H16T10704   1.540   4.382   9.222 -0.2842 -0.4149 -1.6946
  105OSM   C17S10705   1.684   4.300   9.083 -0.0368  0.0838 -0.4650
  105OSM   H17S10706   1.626   4.226   9.025 -0.5990  0.4024 -0.3200
  105OSM   H17T10707   1.780   4.245   9.091  0.8543  1.4342 -1.4397
  105OSM   C18S10708   1.712   4.432   9.016 -0.3835  0.4756 -0.1987
  105OSM   H18S10709   1.621   4.488   8.988 -0.8846  0.2003  0.8210
  105OSM   H18T10710   1.771   4.413   8.924 -1.3789 -3.5746 -0.1717
  105OSM   H18U10711   1.782   4.493   9.078  0.8400 -2.6099  1.7255
  105OSM    C1F10712   1.597   4.355  10.310 -0.5625 -0.3120  0.3114
  105OSM     OF10713   1.718   4.375  10.323  0.2607 -0.0022  1.0732
  105OSM    C2F10714   1.510   4.417  10.214 -0.3562  0.1168 -0.1103
  105OSM    H2F10715   1.494   4.520  10.253 -0.7516 -0.8773  2.5129
  105OSM    H2G10716   1.418   4.357  10.195  0.0575 -0.4282 -0.4209
  105OSM    C3F10717   1.577   4.437  10.076  0.7310  0.2916  0.2148
  105OSM    H3F10718   1.622   4.344  10.035  1.4660  1.1139 -0.9370
  105OSM    H3G10719   1.660   4.511  10.086 -0.0860  1.1780  0.5442
  105OSM    C4F10720   1.471   4.488   9.975 -0.1934 -0.2451 -0.1196
  105OSM    H4F10721   1.417   4.579  10.009 -1.8241 -0.7935 -1.1191
  105OSM    H4G10722   1.393   4.412   9.956  0.3727 -1.4489  2.0660
  105OSM    C5F10723   1.541   4.516   9.840  0.0292 -0.2082  0.1622
  105OSM    H5F10724   1.599   4.430   9.800  1.0901  1.8516 -3.2002
  105OSM    H5G10725   1.616   4.595   9.865 -1.5759  1.0562  1.1807
  105OSM    C6F10726   1.446   4.574   9.730  0.1416  0.1198  0.4836
  105OSM    H6F10727   1.359   4.632   9.766  0.8382  0.7243  1.2300
  105OSM    H6G10728   1.388   4.493   9.680 -0.8925  1.2499 -0.1821
  105OSM    C7F10729   1.524   4.649   9.620 -0.0568 -0.0055  0.0830
  105OSM    H7F10730   1.591   4.579   9.565 -0.6989 -1.2432  0.8223
  105OSM    H7G10731   1.599   4.716   9.667 -2.1339  0.0814  3.6684
  105OSM    C8F10732   1.439   4.735   9.528  0.2167 -0.6885  0.4964
  105OSM    H8F10733   1.519   4.801   9.489 -0.9524 -0.4151 -1.5744
  105OSM    H8G10734   1.383   4.808   9.591 -1.2011 -1.8262  0.6109
  105OSM    C9F10735   1.353   4.662   9.425  0.4358 -0.1959  0.3631
  105OSM    H9F10736   1.273   4.595   9.460 -0.0268  0.3784  0.4180
  105OSM   C10F10737   1.386   4.665   9.292  0.5086 -0.5660 -0.2930
  105OSM   H10F10738   1.327   4.599   9.228  0.9911  0.0846 -1.4346
  105OSM   C11F10739   1.506   4.736   9.227 -0.5254 -0.7936 -0.2982
  105OSM   H11F10740   1.596   4.671   9.221  1.6323  1.7663  1.8644
  105OSM   H11G10741   1.535   4.821   9.293 -0.6676 -0.8505 -0.1602
  105OSM   C12F10742   1.468   4.794   9.087 -0.2389 -0.5307 -0.1890
  105OSM   H12F10743   1.443   4.711   9.018  0.4241  0.1130 -1.2386
  105OSM   H12G10744   1.563   4.822   9.037 -0.3382 -0.1737 -0.1819
  105OSM   C13F10745   1.388   4.923   9.078  1.0049 -0.2808  0.0900
  105OSM   H13F10746   1.411   4.991   9.162  0.5706 -0.6776  0.5400
  105OSM   H13G10747   1.279   4.900   9.083  1.1216 -0.9082 -0.1567
  105OSM   C14F10748   1.399   5.004   8.942 -0.4398  0.0926 -0.1350
  105OSM   H14F10749   1.426   4.938   8.857 -1.0748 -0.4716  0.0971
  105OSM   H14G10750   1.493   5.062   8.954 -0.8292  0.4525  1.3930
  105OSM   C15F10751   1.273   5.091   8.914  0.4173 -0.0394 -0.7231
  105OSM   H15F10752   1.261   5.153   9.005  0.9339  0.8443 -1.2432
  105OSM   H15G10753   1.185   5.029   8.888  0.9817 -0.0977 -2.6034
  105OSM   C16F10754   1.301   5.190   8.793  0.0188  0.1601  0.3153
  105OSM   H16F10755   1.390   5.252   8.817 -0.5935  0.1251  2.9455
  105OSM   H16G10756   1.229   5.272   8.774 -0.0014 -0.0077 -0.3843
  105OSM   C17F10757   1.316   5.125   8.651 -0.4364 -0.6987 -0.0257
  105OSM   H17F10758   1.217   5.077   8.637 -2.0606  1.7454  2.0179
  105OSM   H17G10759   1.405   5.059   8.657 -0.7222 -1.0958 -0.1564
  105OSM   C18F10760   1.346   5.245   8.557 -0.2244  0.0004  0.2238
  105OSM   H18F10761   1.443   5.283   8.593 -0.7880  1.4725  0.2587
  105OSM   H18G10762   1.259   5.315   8.553 -1.0789 -0.5505  4.4001
  105OSM   H18H10763   1.367   5.214   8.453  0.7802  0.7450  0.1951
  106OSM      N10764   0.956   2.183  10.645 -0.4023 -0.3000 -0.1078
  106OSM    C1510765   1.029   2.123  10.774  0.1324  0.1482  0.3264
  106OSM   H15A10766   0.956   2.078  10.840 -1.8088 -2.5685 -3.2713
  106OSM   H15B10767   1.081   2.205  10.821 -0.5674  1.2293 -0.7523
  106OSM   H15C10768   1.092   2.043  10.739  0.6590 -0.0006  1.5525
  106OSM    C1410769   1.055   2.277  10.577 -0.0752  0.4702  0.7961
  106OSM   H14A10770   1.069   2.368  10.633 -0.8754 -0.1945  2.1106
  106OSM   H14B10771   1.021   2.312  10.481 -1.9276 -0.1250  1.1963
  106OSM   H14C10772   1.145   2.218  10.568  0.0962  0.6433  1.3374
  106OSM    C1310773   0.943   2.064  10.558 -0.0272  0.2638  0.0190
  106OSM   H13A10774   1.041   2.023  10.535  0.7213  1.8789  0.1872
  106OSM   H13B10775   0.911   2.093  10.459  2.1286 -2.8032 -1.7634
  106OSM   H13C10776   0.877   1.988  10.599  0.1503 -1.7604 -3.0939
  106OSM    C1210777   0.827   2.255  10.676 -0.5085  0.0092 -0.4441
  106OSM   H12A10778   0.849   2.334  10.747 -1.8235 -0.3710  0.4251
  106OSM   H12B10779   0.758   2.183  10.717  0.3984 -0.8936 -0.4504
  106OSM    C1110780   0.754   2.323  10.556  0.5680 -1.1713 -0.2771
  106OSM   H11A10781   0.833   2.389  10.514  0.1231 -1.0987 -0.9966
  106OSM   H11B10782   0.676   2.389  10.599  0.1936 -1.5267 -0.4096
  106OSM      P10783   0.559   2.159  10.478  0.2394  0.0941 -0.4182
  106OSM    O1310784   0.542   2.062  10.363 -0.1134  0.3757 -0.0620
  106OSM    O1410785   0.521   2.115  10.615  1.0440 -0.1872 -0.2295
  106OSM    O1110786   0.466   2.285  10.447 -0.2948  0.1163 -1.0649
  106OSM    O1210787   0.698   2.226  10.472  0.0714  0.1521  0.2170
  106OSM    C1S10788   0.487   2.366  10.332 -0.3184 -0.0287 -0.4301
  106OSM    H1S10789   0.489   2.307  10.238  1.8033  0.8489 -0.9828
  106OSM    H1T10790   0.587   2.415  10.333  1.2808 -2.9103 -3.2411
  106OSM     NF10791   0.386   2.552  10.204  0.2320 -0.0649 -0.5940
  106OSM    HNF10792   0.440   2.636  10.199 -0.2643  0.2987 -0.0395
  106OSM    C2S10793   0.379   2.478  10.331  0.2222  0.4544  0.3000
  106OSM    H2S10794   0.278   2.433  10.331  0.7825 -0.8778  0.6710
  106OSM    C3S10795   0.382   2.563  10.463 -0.1957 -0.0137 -0.6179
  106OSM    H3S10796   0.485   2.601  10.475 -0.2359  0.5752 -1.9085
  106OSM     O310797   0.348   2.491  10.584 -0.3153 -0.2943 -0.7231
  106OSM    HO310798   0.389   2.407  10.561  1.5961  0.1391  0.8084
  106OSM    C4S10799   0.291   2.681  10.456 -1.1159  0.1453 -0.4790
  106OSM    H4S10800   0.342   2.775  10.428  3.6579 -1.6304  1.3336
  106OSM    C5S10801   0.158   2.683  10.459  0.2548 -0.4651  0.3166
  106OSM    H5S10802   0.101   2.590  10.476 -0.2313 -0.1969  0.1781
  106OSM    C6S10803   0.074   2.810  10.440  0.4368  0.6605  0.0791
  106OSM    H6S10804   0.083   2.866  10.536  1.3781 -0.7593  0.8703
  106OSM    H6T10805  -0.034   2.794  10.422  0.4512  2.0171 -1.3617
  106OSM    C7S10806   0.114   2.899  10.322 -0.3751  0.6296 -0.1056
  106OSM    H7S10807   0.222   2.923  10.332  0.2569 -1.7621 -0.5726
  106OSM    H7T10808   0.052   2.991  10.319 -1.9717 -0.3796  0.1185
  106OSM    C8S10809   0.088   2.823  10.188  0.0651  0.1730  1.2191
  106OSM    H8S10810  -0.014   2.779  10.184 -1.0920  2.7744  0.3933
  106OSM    H8T10811   0.160   2.739  10.173 -1.1332 -0.3632 -2.1682
  106OSM    C9S10812   0.084   2.925  10.067 -0.8806 -0.4725  0.0294
  106OSM    H9S10813   0.189   2.957  10.052 -0.5643 -0.0516  2.5877
  106OSM    H9T10814   0.030   3.021  10.086 -0.4844 -0.6354  2.2843
  106OSM   C10S10815   0.029   2.863   9.940 -0.1298  0.3495 -0.7473
  106OSM   H10S10816  -0.076   2.831   9.958  0.0289 -1.1180 -2.2138
  106OSM   H10T10817   0.104   2.784   9.920  0.2643  0.1430  1.2603
  106OSM   C11S10818   0.025   2.967   9.827 -0.1188 -0.4490 -0.0982
  106OSM   H11S10819   0.034   2.908   9.734 -0.8595 -0.5165 -0.1343
  106OSM   H11T10820   0.109   3.040   9.829 -0.1022 -0.4751  1.9587
  106OSM   C12S10821  -0.114   3.039   9.806  0.8872  0.1675  0.0152
  106OSM   H12S10822  -0.135   3.111   9.887  1.4039  0.1026  0.2116
  106OSM   H12T10823  -0.186   2.954   9.813  1.7086 -0.5175  0.3621
  106OSM   C13S10824  -0.112   3.121   9.674 -0.0714  0.4951 -0.5635
  106OSM   H13S10825  -0.006   3.144   9.649  1.0537 -1.7412  1.7792
  106OSM   H13T10826  -0.163   3.219   9.686 -0.2109  0.8810 -3.5299
  106OSM   C14S10827  -0.173   3.048   9.553  0.2606 -0.1934 -0.9204
  106OSM   H14S10828  -0.261   2.985   9.580 -0.3264  0.5401 -1.0671
  106OSM   H14T10829  -0.102   2.977   9.504 -1.0978 -1.7149 -0.8027
  106OSM   C15S10830  -0.234   3.136   9.443 -0.1032  0.1342 -0.3854
  106OSM   H15S10831  -0.315   3.197   9.488  0.8863  0.6174  0.8242
  106OSM   H15T10832  -0.280   3.063   9.373 -1.9675 -0.2008  1.0979
  106OSM   C16S10833  -0.129   3.211   9.367  0.3834  0.2093 -0.3825
  106OSM   H16S10834  -0.072   3.148   9.295 -0.7919  0.0535 -1.2260
  106OSM   H16T10835  -0.070   3.264   9.444  2.7155 -1.9081 -0.5858
  106OSM   C17S10836  -0.207   3.323   9.295  0.3381  0.0424  0.4062
  106OSM   H17S10837  -0.140   3.410   9.280 -1.3859  1.2366 -0.8027
  106OSM   H17T10838  -0.292   3.355   9.359  0.1477 -0.2722  0.3127
  106OSM   C18S10839  -0.245   3.286   9.150  0.1686  0.0518 -0.5998
  106OSM   H18S10840  -0.314   3.200   9.134 -1.6010  1.5551 -1.3353
  106OSM   H18T10841  -0.139   3.263   9.123  1.0790  0.5721  2.2283
  106OSM   H18U10842  -0.286   3.366   9.085 -4.3875 -2.0664 -0.6764
  106OSM    C1F10843   0.357   2.493  10.088  0.7528  0.0952 -0.7402
  106OSM     OF10844   0.299   2.386  10.094  0.3196 -0.0427 -0.1869
  106OSM    C2F10845   0.392   2.557   9.955 -0.2572  0.8585  0.7659
  106OSM    H2F10846   0.501   2.545   9.937  0.0812  3.2666  0.8798
  106OSM    H2G10847   0.375   2.667   9.961  0.8108  1.0499  0.3986
  106OSM    C3F10848   0.317   2.489   9.834 -0.2107  0.4055  0.8823
  106OSM    H3F10849   0.207   2.505   9.847 -0.9064  1.9427 -4.4908
  106OSM    H3G10850   0.339   2.380   9.836  0.9780  0.5285 -1.7692
  106OSM    C4F10851   0.355   2.566   9.708 -0.1055  0.0514 -0.3901
  106OSM    H4F10852   0.458   2.608   9.714 -0.8175  1.6402  1.8495
  106OSM    H4G10853   0.288   2.654   9.711  0.6796  0.6349  1.4512
  106OSM    C5F10854   0.348   2.480   9.580 -0.2772 -0.0059 -0.1672
  106OSM    H5F10855   0.244   2.446   9.564 -0.2839  0.2312 -0.6381
  106OSM    H5G10856   0.414   2.390   9.578  0.1857  0.3336 -0.9600
  106OSM    C6F10857   0.387   2.560   9.451  0.1162  0.1278  0.0135
  106OSM    H6F10858   0.493   2.589   9.442  0.3420 -0.7616 -0.2825
  106OSM    H6G10859   0.341   2.661   9.459 -0.6709 -0.3482  2.2520
  106OSM    C7F10860   0.342   2.502   9.314  0.6933  0.1993 -0.2553
  106OSM    H7F10861   0.233   2.487   9.330  1.0742 -2.4154  0.4283
  106OSM    H7G10862   0.389   2.402   9.303 -1.8866 -1.1053 -0.0498
  106OSM    C8F10863   0.370   2.597   9.194  0.5637  0.5041  0.0811
  106OSM    H8F10864   0.324   2.694   9.224 -2.3506 -0.9095  0.5827
  106OSM    H8G10865   0.315   2.558   9.105  1.2536 -2.3597  0.8348
  106OSM    C9F10866   0.514   2.618   9.164 -0.7891 -0.0875 -0.2621
  106OSM    H9F10867   0.564   2.520   9.152 -1.3224 -0.9396  3.2179
  106OSM   C10F10868   0.588   2.735   9.177  0.1416  0.5019  0.0788
  106OSM   H10F10869   0.696   2.722   9.157  0.5874  0.9817  1.9561
  106OSM   C11F10870   0.526   2.873   9.217  1.5081 -0.8752  0.1234
  106OSM   H11F10871   0.583   2.939   9.285  0.0875  0.4031  0.1286
  106OSM   H11G10872   0.432   2.851   9.272  0.6931 -1.1188 -1.2903
  106OSM   C12F10873   0.497   2.961   9.086  0.1779  0.0075 -0.3274
  106OSM   H12F10874   0.426   3.042   9.113  0.3267  0.7930 -2.1952
  106OSM   H12G10875   0.430   2.903   9.019  1.1838  0.5733 -1.8872
  106OSM   C13F10876   0.619   3.027   9.022 -0.5233 -0.2539 -0.0375
  106OSM   H13F10877   0.685   2.943   8.992 -1.2878 -1.2933  1.0636
  106OSM   H13G10878   0.673   3.095   9.091 -1.1603  2.6772 -2.2777
  106OSM   C14F10879   0.595   3.114   8.893  0.0889  0.3036  0.4691
  106OSM   H14F10880   0.520   3.184   8.936  0.0669  0.6574 -0.1422
  106OSM   H14G10881   0.563   3.044   8.813 -1.9063 -1.1742  2.4491
  106OSM   C15F10882   0.731   3.183   8.855 -0.0256 -0.0597 -0.0423
  106OSM   H15F10883   0.792   3.098   8.818 -0.7303 -1.3089  1.5622
  106OSM   H15G10884   0.783   3.221   8.945  1.9397  0.9042 -1.5062
  106OSM   C16F10885   0.716   3.302   8.758  0.2717 -0.0432  0.3490
  106OSM   H16F10886   0.815   3.352   8.750  0.3953  0.0467  2.2158
  106OSM   H16G10887   0.646   3.369   8.812 -1.2116 -1.3933  0.1847
  106OSM   C17F10888   0.650   3.259   8.631  0.0291  0.8652  0.6795
  106OSM   H17F10889   0.554   3.204   8.643  1.5569 -1.5999  2.7220
  106OSM   H17G10890   0.712   3.178   8.588  1.5792  2.9596 -1.2611
  106OSM   C18F10891   0.622   3.373   8.534 -0.7067  0.1227 -0.1997
  106OSM   H18F10892   0.540   3.434   8.577 -1.4848 -0.8797 -0.2046
  106OSM   H18G10893   0.575   3.332   8.442 -1.8683  1.1312 -0.0796
  106OSM   H18H10894   0.712   3.432   8.506  0.7080 -1.9152 -0.1922
  107OSM      N10895   1.655   6.521  10.680 -0.0288  0.0982 -0.2887
  107OSM    C1510896   1.571   6.493  10.560  0.2146  0.2928 -0.9989
  107OSM   H15A10897   1.509   6.405  10.572  0.7164 -0.1393 -1.4988
  107OSM   H15B10898   1.635   6.473  10.476  1.4641 -1.1085  0.2145
  107OSM   H15C10899   1.505   6.578  10.558 -0.0755  0.1023 -0.2401
  107OSM    C1410900   1.566   6.535  10.796 -0.0083 -0.1810  0.1731
  107OSM   H14A10901   1.491   6.612  10.781  0.0318 -0.5480 -2.2755
  107OSM   H14B10902   1.621   6.546  10.888 -1.5705  0.1624  1.0959
  107OSM   H14C10903   1.502   6.448  10.803  1.7517 -1.5108  0.3634
  107OSM    C1310904   1.746   6.399  10.705  0.3471 -0.1942  0.2991
  107OSM   H13A10905   1.780   6.403  10.808  0.4239  0.7155  0.2529
  107OSM   H13B10906   1.831   6.402  10.638  0.7534 -0.3156  0.8020
  107OSM   H13C10907   1.691   6.309  10.686 -2.5838  1.7953 -1.5696
  107OSM    C1210908   1.732   6.652  10.669 -1.0934 -0.3028 -0.0302
  107OSM   H12A10909   1.786   6.667  10.762 -1.7544 -0.8517  0.4590
  107OSM   H12B10910   1.660   6.731  10.654  0.6139  1.1090 -1.0593
  107OSM    C1110911   1.845   6.666  10.560  0.0526  0.5710 -0.5421
  107OSM   H11A10912   1.862   6.774  10.540 -0.8973  0.6843 -0.7788
  107OSM   H11B10913   1.813   6.621  10.463 -0.7767  0.1872 -0.0971
  107OSM      P10914   2.064   6.659  10.712  0.3623  0.0317  0.1209
  107OSM    O1310915   1.997   6.691  10.841  0.0496 -0.3236 -0.7038
  107OSM    O1410916   2.173   6.559  10.733 -0.0139  0.2549  0.8248
  107OSM    O1110917   2.125   6.791  10.657  0.4109  0.0874  0.3964
  107OSM    O1210918   1.967   6.603  10.602  0.7149  0.1228 -0.2638
  107OSM    C1S10919   2.221   6.777  10.555  0.0695 -1.0857 -0.1942
  107OSM    H1S10920   2.268   6.676  10.548  1.5195 -0.3305 -2.4411
  107OSM    H1T10921   2.299   6.853  10.574 -0.5843 -0.3608 -0.3539
  107OSM     NF10922   2.269   6.756  10.334  0.3907 -0.6842  0.2718
  107OSM    HNF10923   2.354   6.809  10.331  1.1677 -1.8907 -2.4246
  107OSM    C2S10924   2.168   6.816  10.416 -0.8956  0.2974 -0.2873
  107OSM    H2S10925   2.069   6.769  10.397 -0.6568  0.0967 -1.0743
  107OSM    C3S10926   2.142   6.969  10.415 -0.3823 -0.2162  0.6029
  107OSM    H3S10927   2.231   7.024  10.453 -0.2943  1.0814 -1.3460
  107OSM     O310928   2.028   7.016  10.494 -0.5169 -0.0400  0.0590
  107OSM    HO310929   2.029   6.951  10.565  1.2158 -0.6912 -0.5199
  107OSM    C4S10930   2.127   7.008  10.266 -0.1569  0.1182 -0.0803
  107OSM    H4S10931   2.210   7.068  10.226 -1.0548  1.5470  0.1115
  107OSM    C5S10932   2.020   6.987  10.190 -0.3718 -0.2553  0.2588
  107OSM    H5S10933   1.940   6.932  10.244 -0.7701  0.6608  0.6175
  107OSM    C6S10934   1.993   7.017  10.040  0.0317  0.0385 -0.7718
  107OSM    H6S10935   1.898   7.075  10.036 -0.1214 -0.1821 -0.4031
  107OSM    H6T10936   1.983   6.920   9.988  1.0042 -1.0337  0.9372
  107OSM    C7S10937   2.102   7.105   9.970 -0.8714 -0.1264 -0.0566
  107OSM    H7S10938   2.206   7.080  10.001 -1.7897 -0.5053  3.1316
  107OSM    H7T10939   2.082   7.203  10.019  0.0746  0.6838 -1.2324
  107OSM    C8S10940   2.095   7.121   9.823 -0.1301  0.3259  0.5026
  107OSM    H8S10941   2.142   7.215   9.785  0.8582 -0.5689 -0.5937
  107OSM    H8T10942   1.988   7.139   9.801 -0.1060  0.2531  0.3202
  107OSM    C9S10943   2.130   6.999   9.733  0.1236  0.4171 -0.1319
  107OSM    H9S10944   2.089   6.910   9.786  1.6074 -0.1281  0.1484
  107OSM    H9T10945   2.239   6.976   9.745  0.1218 -0.6952 -1.9088
  107OSM   C10S10946   2.097   7.017   9.584 -0.1280 -0.4588 -0.2961
  107OSM   H10S10947   2.159   7.096   9.537 -0.7271 -0.4144 -1.0339
  107OSM   H10T10948   1.995   7.059   9.568 -1.8503 -4.3218 -0.4526
  107OSM   C11S10949   2.132   6.896   9.499  0.7134  0.8419 -0.1864
  107OSM   H11S10950   2.077   6.803   9.527  0.1008  1.1247 -0.4247
  107OSM   H11T10951   2.241   6.880   9.515  0.8092 -1.4722 -2.4633
  107OSM   C12S10952   2.105   6.937   9.352  0.1545  0.4731  0.1652
  107OSM   H12S10953   2.125   7.044   9.330 -0.7411  0.4841 -0.6332
  107OSM   H12T10954   2.000   6.908   9.332  0.2665  0.9121 -1.1470
  107OSM   C13S10955   2.185   6.859   9.244 -0.0800 -0.0565 -0.3562
  107OSM   H13S10956   2.171   6.751   9.267  2.6652 -0.7116 -1.4307
  107OSM   H13T10957   2.296   6.869   9.245  0.0080  0.0651 -3.1681
  107OSM   C14S10958   2.123   6.872   9.106  0.8192 -0.8359  0.0754
  107OSM   H14S10959   2.131   6.981   9.084  0.0005 -0.8233 -0.1841
  107OSM   H14T10960   2.014   6.850   9.111  0.5946 -0.2539 -1.5344
  107OSM   C15S10961   2.201   6.799   9.002 -0.1275 -0.0170  0.0564
  107OSM   H15S10962   2.310   6.822   9.000 -0.6780  2.9027 -1.1339
  107OSM   H15T10963   2.169   6.831   8.901  0.7318  0.1491 -0.1681
  107OSM   C16S10964   2.181   6.651   9.003 -0.2865 -0.0601  0.0129
  107OSM   H16S10965   2.073   6.628   9.000 -0.5448  1.0186  0.5200
  107OSM   H16T10966   2.230   6.614   9.095  1.7804  0.8342 -0.6565
  107OSM   C17S10967   2.239   6.606   8.870  0.0638 -0.1785  0.3905
  107OSM   H17S10968   2.337   6.656   8.856  0.1357 -0.8605 -1.9428
  107OSM   H17T10969   2.178   6.633   8.782  0.4627 -3.2111 -0.9402
  107OSM   C18S10970   2.261   6.458   8.852  0.8184 -0.2348 -0.3912
  107OSM   H18S10971   2.320   6.409   8.933  0.5994 -1.0418 -0.7081
  107OSM   H18T10972   2.319   6.449   8.758  1.2215 -0.2404 -0.1463
  107OSM   H18U10973   2.172   6.394   8.841  1.0640 -0.9060  1.2028
  107OSM    C1F10974   2.272   6.630  10.283 -0.1433  0.3026 -0.3706
  107OSM     OF10975   2.184   6.548  10.304  0.3643  0.3894 -0.2394
  107OSM    C2F10976   2.387   6.598  10.198 -0.6617  0.4671  0.6159
  107OSM    H2F10977   2.448   6.533  10.264  0.5662  2.4264  1.5275
  107OSM    H2G10978   2.455   6.685  10.187 -1.4867  0.8348 -2.3992
  107OSM    C3F10979   2.351   6.546  10.061  0.6280 -0.3912  0.9443
  107OSM    H3F10980   2.261   6.481  10.059 -1.4224  2.3057 -1.6473
  107OSM    H3G10981   2.427   6.475  10.020 -0.3250 -1.5283  1.0819
  107OSM    C4F10982   2.295   6.658   9.967  0.2478  0.0310  0.0090
  107OSM    H4F10983   2.217   6.715  10.021 -0.4021  0.3133 -1.2169
  107OSM    H4G10984   2.258   6.609   9.875  2.0961 -2.6921  0.5875
  107OSM    C5F10985   2.401   6.747   9.917  0.1415 -0.3704 -0.6195
  107OSM    H5F10986   2.462   6.787  10.001  1.8580  3.2783 -3.2777
  107OSM    H5G10987   2.359   6.845   9.887  0.9332  0.6027  1.2855
  107OSM    C6F10988   2.484   6.684   9.810 -0.4351 -0.6809  0.4864
  107OSM    H6F10989   2.499   6.579   9.843  2.0262  0.0723  2.0254
  107OSM    H6G10990   2.589   6.720   9.805 -0.5394 -0.4218  0.1861
  107OSM    C7F10991   2.428   6.712   9.668  0.2827  0.2508 -0.4087
  107OSM    H7F10992   2.417   6.821   9.648  0.8821  0.0619 -1.8914
  107OSM    H7G10993   2.329   6.662   9.664  0.5700 -0.3315 -0.4660
  107OSM    C8F10994   2.516   6.654   9.554  0.4501  0.1287 -0.0353
  107OSM    H8F10995   2.527   6.545   9.572 -1.6790 -0.1342 -0.0488
  107OSM    H8G10996   2.616   6.702   9.562  0.0506  0.8871  0.5978
  107OSM    C9F10997   2.438   6.672   9.421  0.3173  0.7280  0.4523
  107OSM    H9F10998   2.329   6.684   9.426 -0.0295 -1.8819  0.1794
  107OSM   C10F10999   2.496   6.658   9.301  0.6748 -0.5249  1.0231
  107OSM   H10F11000   2.431   6.667   9.212  1.0141 -1.4020  0.6740
  107OSM   C11F11001   2.639   6.629   9.266  0.2949  0.2794  0.6938
  107OSM   H11F11002   2.664   6.523   9.243  3.6769  0.6327  2.0499
  107OSM   H11G11003   2.696   6.664   9.354 -1.0022  0.8257  1.3424
  107OSM   C12F11004   2.672   6.713   9.143  0.4830  0.4189 -0.1554
  107OSM   H12F11005   2.783   6.724   9.143  0.5462 -0.1803 -0.5709
  107OSM   H12G11006   2.636   6.816   9.163  0.4841  0.1540  1.3292
  107OSM   C13F11007   2.617   6.655   9.002  0.0272  0.3883 -0.7030
  107OSM   H13F11008   2.506   6.657   9.005 -0.0375  0.1004 -2.3563
  107OSM   H13G11009   2.660   6.553   8.997 -1.7949 -0.4665  0.0365
  107OSM   C14F11010   2.673   6.727   8.878  0.1477  0.0740  0.1086
  107OSM   H14F11011   2.646   6.835   8.884 -0.6117 -0.0627 -0.6170
  107OSM   H14G11012   2.610   6.683   8.798 -0.9398 -0.9068  1.4597
  107OSM   C15F11013   2.824   6.706   8.839 -0.2932  0.4797 -0.5524
  107OSM   H15F11014   2.850   6.598   8.838  2.1034  1.0023 -0.0212
  107OSM   H15G11015   2.888   6.748   8.919 -0.0150  1.7687 -1.4200
  107OSM   C16F11016   2.868   6.774   8.709 -0.0109  0.4672 -0.7432
  107OSM   H16F11017   2.979   6.783   8.710 -0.0549  1.0449 -0.1467
  107OSM   H16G11018   2.823   6.875   8.698 -0.6012  0.2872 -0.0379
  107OSM   C17F11019   2.812   6.701   8.593 -0.6815  0.5691  0.2033
  107OSM   H17F11020   2.708   6.664   8.610 -0.1082 -0.9717  0.5511
  107OSM   H17G11021   2.872   6.607   8.598  0.4995  1.3427  2.8656
  107OSM   C18F11022   2.837   6.778   8.466  0.0589  0.5058 -0.3761
  107OSM   H18F11023   2.831   6.717   8.373  3.4755  0.0085 -0.4160
  107OSM   H18G11024   2.942   6.813   8.469  0.9179 -1.8517 -0.4379
  107OSM   H18H11025   2.769   6.865   8.471 -0.7252 -0.1691  2.7313
  108OSM      N11026   6.672   2.206  10.635 -0.7226  0.0081 -1.0505
  108OSM    C1511027   6.791   2.255  10.560 -0.1228  0.6142  0.2681
  108OSM   H15A11028   6.841   2.173  10.510 -1.5692  0.2636 -0.6839
  108OSM   H15B11029   6.863   2.302  10.624  0.4755  0.4952 -0.2956
  108OSM   H15C11030   6.770   2.328  10.483  2.1849  3.4942  2.1644
  108OSM    C1411031   6.721   2.104  10.732 -0.1077 -0.7918 -0.3331
  108OSM   H14A11032   6.776   2.142  10.816 -2.1710 -0.1314  0.7654
  108OSM   H14B11033   6.786   2.033  10.682 -0.1441 -1.1638  0.1416
  108OSM   H14C11034   6.642   2.042  10.771  1.8909 -2.2692  1.6331
  108OSM    C1311035   6.615   2.318  10.707 -0.1314 -0.4028 -0.0102
  108OSM   H13A11036   6.681   2.371  10.775 -0.5837  0.3498 -0.1480
  108OSM   H13B11037   6.526   2.292  10.762 -0.5145  1.0661  0.1076
  108OSM   H13C11038   6.582   2.392  10.636 -0.3287 -0.3184  0.1697
  108OSM    C1211039   6.566   2.142  10.549  0.1941 -0.2242 -0.1514
  108OSM   H12A11040   6.600   2.071  10.475 -1.6721  1.1102 -2.4572
  108OSM   H12B11041   6.522   2.220  10.488  0.6771  0.2919  0.1478
  108OSM    C1111042   6.444   2.081  10.622  0.0636  0.5569  0.3478
  108OSM   H11A11043   6.478   2.010  10.700  0.3001 -0.8845 -1.0235
  108OSM   H11B11044   6.381   2.018  10.556 -0.4497  1.5388 -0.1301
  108OSM      P11045   6.253   2.270  10.600  0.4291  0.0430  0.0173
  108OSM    O1311046   6.142   2.187  10.562  0.4091  0.1791 -0.0867
  108OSM    O1411047   6.209   2.380  10.691 -0.5554 -0.0166 -0.2741
  108OSM    O1111048   6.323   2.318  10.463  0.2514  0.8995 -0.0974
  108OSM    O1211049   6.356   2.181  10.684 -0.0917  0.7077  0.4757
  108OSM    C1S11050   6.309   2.253  10.335  0.5558  0.2256 -0.2176
  108OSM    H1S11051   6.207   2.232  10.299  1.0612 -2.8156 -0.1199
  108OSM    H1T11052   6.353   2.151  10.346 -1.4728 -0.5244  1.6667
  108OSM     NF11053   6.367   2.238  10.100 -0.2637 -0.0157 -0.1862
  108OSM    HNF11054   6.437   2.170  10.081 -2.0775 -1.5728 -1.7293
  108OSM    C2S11055   6.384   2.327  10.218  0.2125 -0.4407 -0.3256
  108OSM    H2S11056   6.330   2.423  10.202 -0.3533 -0.7889 -0.5226
  108OSM    C3S11057   6.537   2.344  10.249 -0.3750  1.1823  0.3173
  108OSM    H3S11058   6.590   2.246  10.249  1.3242  2.0397  1.5160
  108OSM     O311059   6.560   2.384  10.385  0.2733 -0.5280 -0.3889
  108OSM    HO311060   6.476   2.368  10.429  1.3512  2.0909  3.0398
  108OSM    C4S11061   6.608   2.430  10.152 -0.1401 -0.6116 -0.1618
  108OSM    H4S11062   6.573   2.534  10.156  2.1871  0.1940  0.6522
  108OSM    C5S11063   6.711   2.397  10.067  0.2897 -0.0462 -0.4438
  108OSM    H5S11064   6.760   2.300  10.084 -4.1005 -2.4155  0.0562
  108OSM    C6S11065   6.777   2.499   9.973 -0.5070 -0.1303  0.5475
  108OSM    H6S11066   6.887   2.487   9.984 -0.0657  3.5935  1.4202
  108OSM    H6T11067   6.742   2.602   9.997 -2.5916  0.0424 -2.6339
  108OSM    C7S11068   6.738   2.481   9.828 -0.0943  1.0884 -0.7716
  108OSM    H7S11069   6.631   2.452   9.823 -0.7734  3.2653 -0.0193
  108OSM    H7T11070   6.808   2.412   9.776  0.3687  0.7047  0.3311
  108OSM    C8S11071   6.747   2.601   9.746 -0.2396  0.0741  0.3838
  108OSM    H8S11072   6.851   2.639   9.755  0.2243 -1.0667 -0.0304
  108OSM    H8T11073   6.670   2.676   9.778 -0.9419  0.1675 -1.4061
  108OSM    C9S11074   6.738   2.566   9.594  0.0519 -0.0063  0.5685
  108OSM    H9S11075   6.633   2.529   9.583 -0.0278 -0.6641  3.0050
  108OSM    H9T11076   6.817   2.494   9.566  0.9774  0.1596  2.5964
  108OSM   C10S11077   6.737   2.686   9.494  0.4171  0.1864  0.0375
  108OSM   H10S11078   6.830   2.745   9.509  0.1170  0.5869  0.3339
  108OSM   H10T11079   6.650   2.746   9.527  1.4079  1.5930  0.1729
  108OSM   C11S11080   6.725   2.642   9.350  0.7232 -0.6609 -0.0242
  108OSM   H11S11081   6.629   2.587   9.350  0.4884 -0.2596  0.6643
  108OSM   H11T11082   6.808   2.570   9.332  1.8525  0.5124  0.3175
  108OSM   C12S11083   6.722   2.740   9.238 -0.2232  0.5454  0.0309
  108OSM   H12S11084   6.655   2.826   9.261 -1.3797  0.6177 -3.0859
  108OSM   H12T11085   6.667   2.689   9.156 -0.2866 -2.6069  1.8798
  108OSM   C13S11086   6.861   2.787   9.203 -0.3911  0.7947  0.3348
  108OSM   H13S11087   6.933   2.773   9.286 -0.0393  2.5896  0.3595
  108OSM   H13T11088   6.856   2.896   9.182 -0.5742  0.5041 -1.2957
  108OSM   C14S11089   6.914   2.717   9.076  1.0669 -0.2782  0.2144
  108OSM   H14S11090   6.881   2.611   9.079  1.0757 -0.4295 -2.4413
  108OSM   H14T11091   7.024   2.717   9.067  1.0052 -0.6473 -0.6681
  108OSM   C15S11092   6.864   2.782   8.947 -0.0135  0.4546 -0.2930
  108OSM   H15S11093   6.755   2.765   8.933  0.2299 -2.9762  1.1860
  108OSM   H15T11094   6.921   2.741   8.861 -0.0919 -3.4551  1.3514
  108OSM   C16S11095   6.874   2.930   8.923 -0.3865 -0.1245 -0.5000
  108OSM   H16S11096   6.978   2.966   8.929 -0.2850 -0.4050 -0.5691
  108OSM   H16T11097   6.810   2.981   8.998 -0.2885  1.3502 -1.3630
  108OSM   C17S11098   6.825   2.972   8.779  0.3105  0.1083 -0.0837
  108OSM   H17S11099   6.718   2.944   8.765  1.1829 -2.6810 -2.3096
  108OSM   H17T11100   6.858   2.907   8.695 -1.1430  1.9187 -2.1709
  108OSM   C18S11101   6.860   3.119   8.765  0.1776  0.5125  0.6853
  108OSM   H18S11102   6.805   3.173   8.845 -0.3559 -2.3648  2.3964
  108OSM   H18T11103   6.825   3.159   8.667 -0.6790 -0.4157  0.5925
  108OSM   H18U11104   6.968   3.140   8.776  0.1367  3.1385 -2.2725
  108OSM    C1F11105   6.249   2.231  10.038 -0.3071  0.5592 -0.1005
  108OSM     OF11106   6.155   2.295  10.079  0.3182 -0.5306 -0.4661
  108OSM    C2F11107   6.234   2.118   9.942 -0.4036  0.1140 -0.5674
  108OSM    H2F11108   6.139   2.068   9.968 -0.3446  1.0197  1.5509
  108OSM    H2G11109   6.318   2.046   9.947  0.2659  0.7041 -2.3394
  108OSM    C3F11110   6.214   2.181   9.805  0.2742 -0.2879  0.6554
  108OSM    H3F11111   6.125   2.247   9.803 -1.3783 -2.3631  1.1575
  108OSM    H3G11112   6.194   2.094   9.739  0.2641  0.8672 -0.9163
  108OSM    C4F11113   6.339   2.258   9.759 -0.5784  0.4805 -0.1120
  108OSM    H4F11114   6.416   2.179   9.748 -1.3348 -0.6919  2.3178
  108OSM    H4G11115   6.372   2.315   9.849  0.2079 -1.1943  0.6921
  108OSM    C5F11116   6.313   2.339   9.632 -0.2843 -0.3288 -0.2812
  108OSM    H5F11117   6.405   2.401   9.617  1.1328 -1.7375  1.9179
  108OSM    H5G11118   6.229   2.410   9.647  1.4959  2.2359 -1.5866
  108OSM    C6F11119   6.281   2.255   9.508 -0.0530  0.3190  1.0459
  108OSM    H6F11120   6.192   2.187   9.511 -1.3180  1.7263 -1.3681
  108OSM    H6G11121   6.368   2.194   9.475 -0.3486 -0.4451  1.6576
  108OSM    C7F11122   6.250   2.357   9.393 -0.0287 -0.1548  0.1308
  108OSM    H7F11123   6.225   2.456   9.436 -1.1284 -0.0282 -0.7532
  108OSM    H7G11124   6.148   2.333   9.354  0.6537 -0.7096 -1.3876
  108OSM    C8F11125   6.353   2.371   9.281  0.1003  0.6110  0.7117
  108OSM    H8F11126   6.455   2.390   9.323  0.0825  0.0377  1.0205
  108OSM    H8G11127   6.325   2.461   9.222 -2.1841 -0.2551  0.3844
  108OSM    C9F11128   6.349   2.243   9.196 -0.6018  0.2617  0.1158
  108OSM    H9F11129   6.410   2.158   9.230  1.0848  1.0530 -0.7707
  108OSM   C10F11130   6.282   2.232   9.078 -0.0218 -0.1676  0.0993
  108OSM   H10F11131   6.274   2.139   9.021  1.1060 -0.0373 -0.2827
  108OSM   C11F11132   6.190   2.337   9.007 -0.2079  0.2098 -0.0228
  108OSM   H11F11133   6.162   2.421   9.075 -1.0018  1.1824 -1.4981
  108OSM   H11G11134   6.096   2.289   8.973 -0.0722 -1.7869  2.1646
  108OSM   C12F11135   6.268   2.397   8.886 -0.3554  0.3571 -0.5922
  108OSM   H12F11136   6.370   2.424   8.920 -0.8929  0.6503  0.8641
  108OSM   H12G11137   6.218   2.492   8.857 -2.0187 -0.4803 -0.5616
  108OSM   C13F11138   6.279   2.315   8.754  0.0756  0.1612 -0.6945
  108OSM   H13F11139   6.173   2.305   8.723 -0.3579 -0.0742  0.7668
  108OSM   H13G11140   6.322   2.218   8.787 -3.2957 -0.9589  0.8281
  108OSM   C14F11141   6.368   2.388   8.648  0.6834  1.1095  0.0443
  108OSM   H14F11142   6.324   2.489   8.632  0.4942  0.7585 -2.0208
  108OSM   H14G11143   6.358   2.341   8.547 -1.2726  2.0593 -0.2540
  108OSM   C15F11144   6.505   2.397   8.684 -0.7706  0.8298 -0.7075
  108OSM   H15F11145   6.546   2.299   8.718 -1.6248  0.8224  0.3666
  108OSM   H15G11146   6.529   2.474   8.760 -0.0952  1.6620 -1.7392
  108OSM   C16F11147   6.595   2.416   8.557  0.1295  0.5301  0.3961
  108OSM   H16F11148   6.581   2.338   8.478  1.3974  0.4506  0.2325
  108OSM   H16G11149   6.703   2.402   8.577 -0.2125  0.5631  2.4058
  108OSM   C17F11150   6.569   2.548   8.481 -0.2516 -1.2967 -1.2151
  108OSM   H17F11151   6.465   2.538   8.445 -1.0648 -2.2135  1.1411
  108OSM   H17G11152   6.642   2.574   8.401 -1.0597  1.4521 -1.1726
  108OSM   C18F11153   6.574   2.672   8.582  0.5409  0.0592 -0.3430
  108OSM   H18F11154   6.667   2.681   8.643 -2.9555  1.5199  5.6704
  108OSM   H18G11155   6.488   2.672   8.652 -0.3531 -0.3336 -1.4098
  108OSM   H18H11156   6.560   2.767   8.526  2.6430  0.7326  0.1755
  109OSM      N11157   4.367   5.371  11.002  0.6484  0.2145  0.2224
  109OSM    C1511158   4.492   5.433  11.060  0.0351  0.6525 -0.4305
  109OSM   H15A11159   4.542   5.364  11.126  0.7399  0.5683 -1.0356
  109OSM   H15B11160   4.455   5.514  11.120  0.1710 -1.7883  3.2784
  109OSM   H15C11161   4.551   5.462  10.975  1.4247  0.9130  0.5851
  109OSM    C1411162   4.416   5.273  10.902  0.1469 -0.0286  0.6318
  109OSM   H14A11163   4.507   5.228  10.937  0.0662  0.3922  1.4113
  109OSM   H14B11164   4.443   5.330  10.814 -1.1842  0.9239  0.8067
  109OSM   H14C11165   4.333   5.209  10.876 -0.5839  0.8847  0.6339
  109OSM    C1311166   4.305   5.305  11.127 -0.5269 -0.6148 -0.0878
  109OSM   H13A11167   4.283   5.383  11.199  0.0934  0.4716 -1.0500
  109OSM   H13B11168   4.372   5.233  11.172 -0.1986  0.7362  1.7033
  109OSM   H13C11169   4.209   5.257  11.111 -1.0659 -0.0572  1.3162
  109OSM    C1211170   4.276   5.480  10.953  0.2164 -0.1283  0.2470
  109OSM   H12A11171   4.218   5.516  11.037 -0.3760 -0.1372 -0.1551
  109OSM   H12B11172   4.205   5.442  10.881  0.1323  0.3908  0.0485
  109OSM    C1111173   4.333   5.609  10.888  0.0760 -0.5853  0.1304
  109OSM   H11A11174   4.259   5.678  10.841  0.1428  0.2446  1.1985
  109OSM   H11B11175   4.405   5.581  10.808  2.2282  0.5943  1.5425
  109OSM      P11176   4.445   5.841  10.956  0.2821 -0.1008  0.2053
  109OSM    O1311177   4.333   5.909  11.021  0.0948  0.7440 -0.0315
  109OSM    O1411178   4.585   5.874  11.000  0.1245 -0.2154 -0.1103
  109OSM    O1111179   4.422   5.853  10.797 -0.5393  0.2262  0.0746
  109OSM    O1211180   4.417   5.681  10.976  0.2498 -0.7687  0.0909
  109OSM    C1S11181   4.532   5.850  10.714 -0.0987 -0.6302  0.5166
  109OSM    H1S11182   4.590   5.755  10.707  1.8659  0.6146 -2.2045
  109OSM    H1T11183   4.602   5.935  10.733  0.2549 -0.3619 -1.6916
  109OSM     NF11184   4.600   5.874  10.475 -0.0448 -0.3385 -0.3025
  109OSM    HNF11185   4.634   5.961  10.439 -3.2962  1.6299  0.8940
  109OSM    C2S11186   4.485   5.884  10.567 -0.3687  0.2421 -0.3738
  109OSM    H2S11187   4.419   5.801  10.532 -0.0516 -0.3902  0.4832
  109OSM    C3S11188   4.410   6.017  10.560  0.1225 -0.3081 -0.4733
  109OSM    H3S11189   4.478   6.101  10.586  3.5261 -3.0766  0.4082
  109OSM     O311190   4.302   6.029  10.654  0.1160  0.2121 -0.6311
  109OSM    HO311191   4.322   5.967  10.725  2.3593  0.8957 -0.6153
  109OSM    C4S11192   4.358   6.036  10.416  0.3228 -0.4395  0.3638
  109OSM    H4S11193   4.276   5.965  10.394  0.2393  0.7258 -4.0780
  109OSM    C5S11194   4.396   6.122  10.318 -0.1892 -0.4491 -0.4668
  109OSM    H5S11195   4.489   6.177  10.339 -0.4116 -0.2880  0.1189
  109OSM    C6S11196   4.347   6.121  10.178  0.0987 -0.6151 -0.6334
  109OSM    H6S11197   4.283   6.211  10.164 -1.6972 -1.5668  0.9799
  109OSM    H6T11198   4.276   6.036  10.177  0.5533 -1.0807  1.5787
  109OSM    C7S11199   4.463   6.128  10.067  0.2576  0.5258  0.2518
  109OSM    H7S11200   4.523   6.034  10.076  0.2777  0.5592  0.4681
  109OSM    H7T11201   4.526   6.213  10.101  2.9424 -0.6482 -1.4315
  109OSM    C8S11202   4.407   6.123   9.925  0.5165 -0.0750  0.0936
  109OSM    H8S11203   4.335   6.205   9.903 -0.9329 -1.8045 -2.0585
  109OSM    H8T11204   4.352   6.032   9.893  1.2766 -0.3919 -0.3463
  109OSM    C9S11205   4.514   6.123   9.817 -0.2525  0.5189  0.1649
  109OSM    H9S11206   4.587   6.042   9.838 -1.0544 -0.9768 -2.3563
  109OSM    H9T11207   4.547   6.229   9.814 -2.2046  1.2023  0.8946
  109OSM   C10S11208   4.454   6.105   9.679  0.6471 -0.1041  0.0860
  109OSM   H10S11209   4.395   6.197   9.660 -0.6544 -0.4486  2.1302
  109OSM   H10T11210   4.407   6.004   9.671  1.2620 -0.5069  1.2726
  109OSM   C11S11211   4.565   6.111   9.569  0.9336 -0.7338 -0.0912
  109OSM   H11S11212   4.653   6.049   9.595  0.4869 -2.0255 -1.5382
  109OSM   H11T11213   4.599   6.217   9.575  0.9916 -0.8283  1.8396
  109OSM   C12S11214   4.504   6.094   9.433  0.3962 -0.4171 -0.2983
  109OSM   H12S11215   4.408   6.151   9.431  0.2140 -0.7190 -0.2709
  109OSM   H12T11216   4.479   5.986   9.424 -0.2904 -0.2151 -0.8732
  109OSM   C13S11217   4.601   6.135   9.322 -0.3571 -0.0726  0.1848
  109OSM   H13S11218   4.692   6.071   9.327 -0.1432  0.2990  2.6508
  109OSM   H13T11219   4.625   6.243   9.333  2.0419 -0.7049  2.1966
  109OSM   C14S11220   4.541   6.115   9.181  0.1303 -0.0776 -0.0937
  109OSM   H14S11221   4.447   6.173   9.173  0.8856  1.3438  0.9677
  109OSM   H14T11222   4.533   6.004   9.181 -0.4786 -0.0342 -0.2171
  109OSM   C15S11223   4.633   6.157   9.069  0.7692  0.5150 -0.2629
  109OSM   H15S11224   4.731   6.111   9.092  1.8417  1.9595 -1.6896
  109OSM   H15T11225   4.640   6.268   9.068  0.6218  0.5260 -0.1147
  109OSM   C16S11226   4.588   6.105   8.936 -0.4512  0.5274  0.5441
  109OSM   H16S11227   4.488   6.145   8.911 -2.1119 -3.4607  0.1393
  109OSM   H16T11228   4.579   5.995   8.930 -2.5260  0.7143 -0.6780
  109OSM   C17S11229   4.686   6.152   8.832  0.4159 -0.6484  0.1199
  109OSM   H17S11230   4.783   6.115   8.869  1.1589  0.4114 -0.7226
  109OSM   H17T11231   4.680   6.262   8.841  1.3989 -0.5643 -0.1913
  109OSM   C18S11232   4.651   6.122   8.682  0.1480  0.3721 -0.8091
  109OSM   H18S11233   4.550   6.162   8.661 -0.8960 -0.1827  2.6109
  109OSM   H18T11234   4.658   6.013   8.663  2.4614  0.0030  1.6268
  109OSM   H18U11235   4.723   6.176   8.617  1.3414  0.2603  0.3684
  109OSM    C1F11236   4.652   5.760  10.457  0.3559  0.2134  0.0756
  109OSM     OF11237   4.587   5.655  10.470  0.4798  0.1259  0.0606
  109OSM    C2F11238   4.800   5.755  10.438 -0.5193  0.0157  0.4426
  109OSM    H2F11239   4.838   5.696  10.525 -1.1761  0.9542  1.3737
  109OSM    H2G11240   4.855   5.850  10.456 -0.1366 -0.1624  0.2362
  109OSM    C3F11241   4.854   5.709  10.300 -0.1520  0.1186  0.0080
  109OSM    H3F11242   4.805   5.610  10.283  1.2954 -0.6635  0.2373
  109OSM    H3G11243   4.963   5.690  10.306  0.2302  2.4780  1.9757
  109OSM    C4F11244   4.813   5.796  10.189  0.5790  0.2878  0.4993
  109OSM    H4F11245   4.873   5.888  10.201 -0.3895  0.7671  1.8178
  109OSM    H4G11246   4.706   5.825  10.193  0.7085  0.6343  2.0652
  109OSM    C5F11247   4.847   5.733  10.058 -0.9346 -0.1104  0.0412
  109OSM    H5F11248   4.778   5.650  10.031 -3.5597  1.0693  2.5918
  109OSM    H5G11249   4.948   5.686  10.057 -1.2774 -0.8704  0.6664
  109OSM    C6F11250   4.844   5.827   9.940 -0.1996 -0.1881  0.0957
  109OSM    H6F11251   4.905   5.917   9.966  1.1658 -0.2809 -2.4884
  109OSM    H6G11252   4.741   5.865   9.925 -1.5380 -3.7176 -0.6668
  109OSM    C7F11253   4.912   5.768   9.810  0.4567  0.3003  0.5886
  109OSM    H7F11254   4.849   5.680   9.785  1.3037 -0.1087 -0.1574
  109OSM    H7G11255   5.012   5.728   9.836  0.2271 -0.8951 -0.2461
  109OSM    C8F11256   4.921   5.865   9.692 -0.5908  0.9338  0.1398
  109OSM    H8F11257   4.971   5.960   9.721 -1.1030  0.8035  1.5579
  109OSM    H8G11258   4.819   5.881   9.652 -0.7951 -0.5590  0.0288
  109OSM    C9F11259   5.016   5.797   9.587  0.3384 -0.3609 -0.4155
  109OSM    H9F11260   5.115   5.790   9.635  0.3263  0.5388 -0.2306
  109OSM   C10F11261   4.999   5.760   9.462  0.4790  0.5816  0.5790
  109OSM   H10F11262   5.085   5.728   9.401 -0.8653  0.5216 -1.3566
  109OSM   C11F11263   4.870   5.767   9.382 -0.6221 -0.1383  0.2430
  109OSM   H11F11264   4.797   5.811   9.453  1.5063  1.8207  1.3568
  109OSM   H11G11265   4.828   5.665   9.366  3.8047 -2.1268 -0.0008
  109OSM   C12F11266   4.866   5.853   9.249 -1.1478  0.1389 -0.2156
  109OSM   H12F11267   4.880   5.962   9.265  0.3869  0.0208 -0.5858
  109OSM   H12G11268   4.763   5.837   9.209 -1.6815  2.1246  0.2115
  109OSM   C13F11269   4.962   5.795   9.139 -0.6263  0.1792 -0.6624
  109OSM   H13F11270   4.954   5.684   9.144  1.3187  0.0198  0.3211
  109OSM   H13G11271   5.066   5.819   9.171 -0.3356 -1.5759 -0.1413
  109OSM   C14F11272   4.951   5.855   8.996  0.1527  0.0651 -0.5292
  109OSM   H14F11273   4.976   5.964   8.990 -1.0259  0.4912  1.4529
  109OSM   H14G11274   4.847   5.857   8.959  0.4366 -0.0150 -1.3553
  109OSM   C15F11275   5.057   5.812   8.898 -0.3321 -0.4826 -0.2379
  109OSM   H15F11276   5.070   5.702   8.910 -1.9134 -0.7126 -0.3977
  109OSM   H15G11277   5.152   5.865   8.921 -0.1474 -0.1398 -1.7294
  109OSM   C16F11278   5.010   5.835   8.749  0.3293 -0.0860 -1.1880
  109OSM   H16F11279   5.003   5.945   8.733 -0.9993  0.2769  1.3063
  109OSM   H16G11280   4.908   5.792   8.735 -0.0046  0.1463  0.2765
  109OSM   C17F11281   5.124   5.786   8.652  0.3925  0.0263 -0.7327
  109OSM   H17F11282   5.220   5.823   8.693  0.4929  1.3167 -2.0416
  109OSM   H17G11283   5.111   5.852   8.563  1.2627  1.4457  0.1622
  109OSM   C18F11284   5.119   5.639   8.615  0.4732  0.0952  0.2460
  109OSM   H18F11285   5.015   5.607   8.596 -0.2440  0.3871  3.2445
  109OSM   H18G11286   5.159   5.592   8.707  1.7519  0.2469 -0.2055
  109OSM   H18H11287   5.177   5.632   8.520  2.6796  0.6738  1.4790
  110OSM      N11288   6.246   5.920  11.274 -0.2793  0.1288  0.5078
  110OSM    C1511289   6.137   6.018  11.230 -0.3986 -0.4710 -0.0275
  110OSM   H15A11290   6.076   5.977  11.151 -3.1544  0.1578  1.6453
  110OSM   H15B11291   6.183   6.107  11.190 -1.0240  0.5886  1.5200
  110OSM   H15C11292   6.069   6.050  11.307 -0.0939 -0.2211  0.1414
  110OSM    C1411293   6.361   5.992  11.336 -0.1235 -0.1172 -0.9785
  110OSM   H14A11294   6.443   5.926  11.359 -0.6466 -0.2988  0.5128
  110OSM   H14B11295   6.328   6.047  11.423 -0.2673 -0.7939 -0.5946
  110OSM   H14C11296   6.393   6.067  11.265  0.4401  1.8325  1.2230
  110OSM    C1311297   6.187   5.836  11.385  0.1094 -0.0705  0.1287
  110OSM   H13A11298   6.108   5.776  11.342  0.4625  0.7987 -1.8389
  110OSM   H13B11299   6.148   5.900  11.463  1.1617  1.7386 -0.7684
  110OSM   H13C11300   6.256   5.770  11.435 -1.7896 -1.5039  1.0031
  110OSM    C1211301   6.295   5.842  11.154 -0.6209 -0.2024 -0.2778
  110OSM   H12A11302   6.363   5.770  11.198 -0.6944  0.7902  1.5578
  110OSM   H12B11303   6.352   5.899  11.082  0.3136 -1.8264 -0.8801
  110OSM    C1111304   6.191   5.756  11.080  0.5829  0.8124  0.9640
  110OSM   H11A11305   6.137   5.684  11.145  2.1102 -3.1781 -1.7513
  110OSM   H11B11306   6.244   5.694  11.003  1.0670  0.1697  1.7992
  110OSM      P11307   5.993   5.776  10.896 -0.5611 -0.2512  0.0582
  110OSM    O1311308   5.989   5.631  10.904 -0.1838 -0.0975  0.6546
  110OSM    O1411309   5.864   5.843  10.909 -0.2797 -0.4440  0.1377
  110OSM    O1111310   6.073   5.815  10.762  0.2989  0.4532 -0.0846
  110OSM    O1211311   6.088   5.831  11.014 -0.0138  0.1665 -0.1053
  110OSM    C1S11312   6.213   5.794  10.750 -0.3497 -0.7571  0.9651
  110OSM    H1S11313   6.243   5.692  10.780  2.9767 -1.5584 -3.9782
  110OSM    H1T11314   6.257   5.876  10.811  0.0317  0.4488 -0.8459
  110OSM     NF11315   6.404   5.764  10.608  0.1787 -0.1215 -0.2894
  110OSM    HNF11316   6.470   5.837  10.595  0.1359  0.8098  3.4391
  110OSM    C2S11317   6.263   5.809  10.608  0.2270  0.3852  1.0719
  110OSM    H2S11318   6.208   5.738  10.542  0.4851 -0.7935  2.0938
  110OSM    C3S11319   6.240   5.952  10.556  0.3905  0.8896  0.3183
  110OSM    H3S11320   6.314   6.013  10.611  0.2399  1.8235 -0.4786
  110OSM     O311321   6.106   5.999  10.579 -0.0937 -0.2748 -0.4200
  110OSM    HO311322   6.064   5.928  10.629 -0.3926  0.9035  1.0576
  110OSM    C4S11323   6.266   5.963  10.410 -0.7174 -0.8709 -0.5707
  110OSM    H4S11324   6.170   5.947  10.358 -2.6829 -1.5384  2.9315
  110OSM    C5S11325   6.375   6.009  10.344  0.0663  0.0919  0.2582
  110OSM    H5S11326   6.462   6.037  10.404 -0.3511  1.7321  0.1688
  110OSM    C6S11327   6.385   6.013  10.190  0.1059  0.1135 -0.4452
  110OSM    H6S11328   6.465   5.944  10.156  1.2007  0.9944  0.2844
  110OSM    H6T11329   6.410   6.113  10.147 -2.8115  1.2327  0.2210
  110OSM    C7S11330   6.261   5.951  10.116 -0.2055  0.0077 -0.9321
  110OSM    H7S11331   6.162   5.974  10.161  1.1414 -0.6944  2.7249
  110OSM    H7T11332   6.268   5.842  10.135  0.3535 -0.0875 -1.6151
  110OSM    C8S11333   6.253   5.959   9.965 -0.0809 -0.7123  1.0850
  110OSM    H8S11334   6.240   6.057   9.916  1.4642 -1.3528 -0.7403
  110OSM    H8T11335   6.154   5.913   9.943 -0.1230 -0.3583  0.5303
  110OSM    C9S11336   6.349   5.873   9.896  0.4830 -0.7360 -0.1389
  110OSM    H9S11337   6.373   5.778   9.949  0.9036 -0.6915 -0.2424
  110OSM    H9T11338   6.450   5.919   9.889 -0.5057  1.5210 -0.4494
  110OSM   C10S11339   6.301   5.842   9.757  0.5144 -0.1165 -0.2162
  110OSM   H10S11340   6.266   5.939   9.716  0.0195  0.7051  2.0171
  110OSM   H10T11341   6.216   5.771   9.756  0.0080  0.4280 -2.5487
  110OSM   C11S11342   6.404   5.778   9.668 -1.1536  0.1646 -0.2393
  110OSM   H11S11343   6.449   5.691   9.721  0.4758 -0.9449 -3.2125
  110OSM   H11T11344   6.493   5.843   9.654 -1.4555  0.6482  0.0706
  110OSM   C12S11345   6.362   5.730   9.534 -0.1774 -0.2553 -0.0299
  110OSM   H12S11346   6.273   5.663   9.544  0.8980 -1.8071 -0.4267
  110OSM   H12T11347   6.440   5.667   9.486  1.4368  1.6636 -0.0275
  110OSM   C13S11348   6.338   5.837   9.433  0.1077  0.4207  0.1470
  110OSM   H13S11349   6.422   5.905   9.406 -1.4232  3.0492  1.5109
  110OSM   H13T11350   6.269   5.913   9.477 -0.7738 -0.1267 -0.2617
  110OSM   C14S11351   6.272   5.783   9.309  0.0838  0.2407 -0.3994
  110OSM   H14S11352   6.168   5.747   9.322  0.1751  0.4184  0.9983
  110OSM   H14T11353   6.326   5.690   9.281 -0.1735 -0.2014  0.5379
  110OSM   C15S11354   6.280   5.879   9.196  0.0093 -0.1665  0.0875
  110OSM   H15S11355   6.383   5.897   9.161 -0.2085 -0.0014 -0.4852
  110OSM   H15T11356   6.254   5.981   9.231  2.9103  1.0121 -0.9400
  110OSM   C16S11357   6.185   5.855   9.068 -0.4232  0.1213  0.1001
  110OSM   H16S11358   6.222   5.925   8.991  0.1997 -1.6878 -1.3304
  110OSM   H16T11359   6.075   5.862   9.084 -0.7574 -2.3181 -0.6745
  110OSM   C17S11360   6.204   5.714   9.006 -0.6202 -0.0582 -0.2856
  110OSM   H17S11361   6.304   5.669   9.024  0.0293  1.4225 -0.0406
  110OSM   H17T11362   6.192   5.728   8.896 -1.0161 -0.2133 -0.2625
  110OSM   C18S11363   6.099   5.616   9.038  0.5171 -0.0110 -0.2095
  110OSM   H18S11364   6.094   5.529   8.968  1.4982  0.5623 -1.0036
  110OSM   H18T11365   5.999   5.659   9.016  0.0013  0.1396  2.1857
  110OSM   H18U11366   6.098   5.592   9.146 -2.3936  0.1666 -0.1094
  110OSM    C1F11367   6.449   5.640  10.624  0.0346 -0.5488  0.1157
  110OSM     OF11368   6.380   5.537  10.642  0.1008 -0.3072  0.0046
  110OSM    C2F11369   6.599   5.626  10.625 -0.0166  0.1902  0.3564
  110OSM    H2F11370   6.643   5.607  10.725  0.3993 -0.2976  0.0876
  110OSM    H2G11371   6.640   5.721  10.584 -1.9641 -0.2700 -3.0551
  110OSM    C3F11372   6.636   5.508  10.529  0.0869 -0.8891 -0.2691
  110OSM    H3F11373   6.597   5.534  10.428 -0.2475  0.5933  0.2132
  110OSM    H3G11374   6.600   5.415  10.579  1.0926 -0.6950  0.8542
  110OSM    C4F11375   6.795   5.508  10.506  0.1224  0.5158 -0.0343
  110OSM    H4F11376   6.845   5.508  10.604  1.6019  0.4066 -0.7642
  110OSM    H4G11377   6.821   5.599  10.446  0.8913  1.1218  1.1878
  110OSM    C5F11378   6.841   5.381  10.436  0.0259  0.0142 -0.1038
  110OSM    H5F11379   6.774   5.375  10.348  0.4651 -0.1825 -0.4297
  110OSM    H5G11380   6.830   5.299  10.510  1.7703  1.9656  2.5255
  110OSM    C6F11381   6.988   5.401  10.382 -0.1302 -0.0986 -0.2068
  110OSM    H6F11382   7.050   5.312  10.406 -0.4055 -0.1869  0.1790
  110OSM    H6G11383   7.039   5.486  10.433  3.0417 -1.7916 -0.2674
  110OSM    C7F11384   6.991   5.430  10.226  0.0702  0.5291  0.6570
  110OSM    H7F11385   6.945   5.530  10.210  1.2830  0.7304 -2.1762
  110OSM    H7G11386   6.942   5.350  10.167  2.1450 -0.0999 -0.3023
  110OSM    C8F11387   7.136   5.430  10.175  0.2370  0.0384 -0.5600
  110OSM    H8F11388   7.142   5.415  10.065  0.1592 -1.0658 -0.4234
  110OSM    H8G11389   7.192   5.344  10.216 -0.6128 -1.0483 -1.6075
  110OSM    C9F11390   7.205   5.552  10.231 -0.0947 -0.7264  0.6785
  110OSM    H9F11391   7.244   5.543  10.333  1.2482 -0.6725  0.1904
  110OSM   C10F11392   7.226   5.656  10.155 -0.1257  0.4321  0.6963
  110OSM   H10F11393   7.262   5.748  10.204  2.8058 -1.9149  3.3774
  110OSM   C11F11394   7.195   5.690  10.012  0.3748 -0.3385 -0.3548
  110OSM   H11F11395   7.224   5.797  10.003  0.3856 -0.0512  2.2778
  110OSM   H11G11396   7.089   5.675   9.985 -0.0505 -0.6852  1.3678
  110OSM   C12F11397   7.275   5.608   9.907  0.0176 -0.4658  0.2788
  110OSM   H12F11398   7.260   5.499   9.921 -1.5054 -0.3239 -0.0746
  110OSM   H12G11399   7.384   5.627   9.918 -0.5386  1.7281  3.1484
  110OSM   C13F11400   7.236   5.631   9.762  0.0641 -0.2057  0.1177
  110OSM   H13F11401   7.252   5.739   9.743 -1.4826  0.4844  2.3143
  110OSM   H13G11402   7.133   5.601   9.735  0.4477 -1.2115 -0.2614
  110OSM   C14F11403   7.321   5.542   9.664 -0.3179 -0.3673  0.7813
  110OSM   H14F11404   7.284   5.437   9.661  0.7559 -0.7325 -0.2315
  110OSM   H14G11405   7.430   5.540   9.685 -0.2689  0.9054  0.7345
  110OSM   C15F11406   7.319   5.593   9.514  0.2565  0.2603  0.4532
  110OSM   H15F11407   7.369   5.520   9.448 -1.7554 -0.5273 -0.2422
  110OSM   H15G11408   7.353   5.698   9.495 -1.5787  0.8761  0.3695
  110OSM   C16F11409   7.172   5.593   9.459  0.2147  0.5305 -0.2729
  110OSM   H16F11410   7.119   5.669   9.521  0.1642  0.4107 -0.1692
  110OSM   H16G11411   7.122   5.495   9.474  1.5271 -0.5982 -2.8233
  110OSM   C17F11412   7.163   5.621   9.305  0.5015  0.0541 -0.4804
  110OSM   H17F11413   7.215   5.538   9.251  1.5236  0.9384 -0.8938
  110OSM   H17G11414   7.216   5.714   9.276 -1.1084  1.0658 -0.2934
  110OSM   C18F11415   7.018   5.626   9.255 -0.2391 -0.3353 -0.2088
  110OSM   H18F11416   7.016   5.634   9.144 -0.9325  1.9281 -0.0806
  110OSM   H18G11417   6.963   5.716   9.289 -1.5147 -0.1014 -2.6275
  110OSM   H18H11418   6.964   5.537   9.294  1.3536 -1.0358  0.4817
  111OSM      N11419   0.510   2.648  10.875 -0.5177 -0.0477  0.0905
  111OSM    C1511420   0.621   2.725  10.957  0.1994  0.0416 -0.0938
  111OSM   H15A11421   0.682   2.778  10.885 -0.5610  1.9392  0.5983
  111OSM   H15B11422   0.675   2.646  11.007  0.1139  0.2364  0.3103
  111OSM   H15C11423   0.572   2.788  11.030 -0.0252 -1.6712  1.2944
  111OSM    C1411424   0.574   2.530  10.799 -0.5366 -0.2693  0.6885
  111OSM   H14A11425   0.627   2.464  10.866  2.4165  1.1032 -0.1292
  111OSM   H14B11426   0.638   2.577  10.726 -0.6633 -1.8673 -0.5115
  111OSM   H14C11427   0.494   2.484  10.743 -1.4163 -2.2101  3.3444
  111OSM    C1311428   0.420   2.585  10.981 -0.1542 -0.0683 -0.5931
  111OSM   H13A11429   0.471   2.544  11.067 -1.5976  0.3622  0.5126
  111OSM   H13B11430   0.367   2.496  10.949 -2.3268  1.9125 -2.9329
  111OSM   H13C11431   0.345   2.649  11.025 -1.5405 -2.1199  0.1472
  111OSM    C1211432   0.443   2.737  10.777  0.2881 -0.1001  0.3132
  111OSM   H12A11433   0.354   2.785  10.815  0.3857 -0.4140  0.9455
  111OSM   H12B11434   0.400   2.674  10.701 -0.5578  2.8440 -1.8386
  111OSM    C1111435   0.525   2.839  10.705 -0.0061  0.1751 -0.3610
  111OSM   H11A11436   0.585   2.910  10.765  1.0346 -1.3011  0.4273
  111OSM   H11B11437   0.450   2.884  10.637 -0.3212 -1.4781 -1.1732
  111OSM      P11438   0.766   2.794  10.592 -0.2377 -0.3026  0.0281
  111OSM    O1311439   0.812   2.901  10.684  0.1711 -0.1130 -0.1031
  111OSM    O1411440   0.837   2.662  10.605  0.0175 -0.1313 -0.2732
  111OSM    O1111441   0.771   2.856  10.442 -0.7660 -0.7088 -0.5769
  111OSM    O1211442   0.613   2.769  10.623 -0.3363 -0.2045 -0.3044
  111OSM    C1S11443   0.716   2.994  10.412 -0.2188 -0.2250  0.1135
  111OSM    H1S11444   0.791   3.074  10.431 -0.7264  0.4631 -0.6617
  111OSM    H1T11445   0.621   3.014  10.465  0.2847  0.8941  0.6179
  111OSM     NF11446   0.654   3.143  10.228  0.1986 -0.4794 -0.3829
  111OSM    HNF11447   0.561   3.177  10.223 -0.2176 -1.2968  1.0504
  111OSM    C2S11448   0.689   3.003  10.262 -0.2885  0.0622  0.7545
  111OSM    H2S11449   0.773   2.969  10.197 -1.6255 -0.4290 -0.7837
  111OSM    C3S11450   0.577   2.913  10.230  0.2272  0.8673  0.5648
  111OSM    H3S11451   0.486   2.931  10.290 -1.1249  0.0899 -1.1723
  111OSM     O311452   0.599   2.768  10.251  0.2451 -0.2993 -0.0782
  111OSM    HO311453   0.682   2.750  10.295 -0.2158 -1.9415  0.2031
  111OSM    C4S11454   0.531   2.937  10.089  0.4604  0.6291  0.1184
  111OSM    H4S11455   0.441   3.000  10.087 -0.1137  0.0028  2.5870
  111OSM    C5S11456   0.588   2.878   9.980  0.9695  1.0444 -0.6432
  111OSM    H5S11457   0.676   2.813   9.978  1.1047  1.2408 -1.5845
  111OSM    C6S11458   0.533   2.894   9.840  0.3692 -0.6168 -0.2365
  111OSM    H6S11459   0.486   2.797   9.814 -0.1312 -0.0715 -1.4442
  111OSM    H6T11460   0.625   2.906   9.779 -0.3312 -2.4441 -1.7343
  111OSM    C7S11461   0.440   3.014   9.812  0.1885  0.3672  0.0456
  111OSM    H7S11462   0.486   3.105   9.856  0.7630  1.1844 -2.1245
  111OSM    H7T11463   0.340   2.994   9.856  0.5787 -2.0970 -0.0258
  111OSM    C8S11464   0.433   3.027   9.654 -0.0056 -0.2999 -0.7078
  111OSM    H8S11465   0.422   2.921   9.621  1.5592 -1.3594  1.8417
  111OSM    H8T11466   0.533   3.065   9.624 -0.1689 -0.4752 -1.4955
  111OSM    C9S11467   0.327   3.120   9.599  0.3838  0.0796 -0.2254
  111OSM    H9S11468   0.337   3.222   9.642 -1.5819 -0.7786  2.5810
  111OSM    H9T11469   0.234   3.075   9.640  0.5049  1.0332  1.1879
  111OSM   C10S11470   0.314   3.133   9.445  0.5484 -0.3263  0.2975
  111OSM   H10S11471   0.265   3.049   9.392 -1.1137  0.8184 -0.0542
  111OSM   H10T11472   0.419   3.138   9.411  2.0416 -1.9532  4.1537
  111OSM   C11S11473   0.232   3.258   9.416  0.8244 -0.3343 -0.2602
  111OSM   H11S11474   0.286   3.347   9.456 -0.8391  0.4473  0.3502
  111OSM   H11T11475   0.143   3.239   9.480  0.4005 -0.6658 -0.9361
  111OSM   C12S11476   0.199   3.268   9.265  0.9735  0.2870  0.6080
  111OSM   H12S11477   0.113   3.334   9.242  2.5129  2.0132 -0.5254
  111OSM   H12T11478   0.183   3.169   9.216 -1.7648  0.8314  0.2485
  111OSM   C13S11479   0.312   3.347   9.202 -0.1115  0.0367 -0.3081
  111OSM   H13S11480   0.407   3.292   9.219  0.6891  1.0337 -1.4235
  111OSM   H13T11481   0.322   3.446   9.251  0.8473 -0.3533  0.3205
  111OSM   C14S11482   0.299   3.372   9.052  0.0530 -0.5763 -0.3027
  111OSM   H14S11483   0.288   3.278   8.994 -0.2940  1.2650 -3.4312
  111OSM   H14T11484   0.389   3.415   9.003 -0.8977 -1.0010 -2.5379
  111OSM   C15S11485   0.178   3.465   9.021  0.5883 -0.2673 -0.2961
  111OSM   H15S11486   0.215   3.560   9.065  2.8289 -1.2137 -0.0274
  111OSM   H15T11487   0.087   3.427   9.073 -0.0247  0.0761 -1.1106
  111OSM   C16S11488   0.159   3.472   8.868 -0.0196  0.2100 -0.2058
  111OSM   H16S11489   0.113   3.378   8.831  1.2078 -0.9263  1.0614
  111OSM   H16T11490   0.250   3.485   8.805  0.0384  1.3050  0.0724
  111OSM   C17S11491   0.065   3.580   8.825  0.1758  0.6802 -0.3304
  111OSM   H17S11492   0.057   3.593   8.715 -0.8984 -0.4475 -0.4124
  111OSM   H17T11493   0.100   3.676   8.868 -0.8339  0.7097  0.4689
  111OSM   C18S11494  -0.075   3.558   8.876 -0.0518 -0.1508 -0.0498
  111OSM   H18S11495  -0.138   3.647   8.855  2.2823  1.8278  0.7309
  111OSM   H18T11496  -0.071   3.554   8.987 -1.5037  0.5425  0.0486
  111OSM   H18U11497  -0.123   3.469   8.830 -1.2969  0.9759 -1.0024
  111OSM    C1F11498   0.754   3.239  10.231 -0.0143  0.3579  0.2146
  111OSM     OF11499   0.872   3.200  10.252 -0.2295 -0.5160 -0.8140
  111OSM    C2F11500   0.703   3.379  10.209  0.1861 -0.6502 -0.1877
  111OSM    H2F11501   0.719   3.446  10.296 -1.8074  0.4258 -0.5852
  111OSM    H2G11502   0.595   3.356  10.213  0.4301 -1.6057  1.6941
  111OSM    C3F11503   0.741   3.442  10.070  0.3113  0.0632 -0.1401
  111OSM    H3F11504   0.841   3.411  10.033  0.8057  0.7478  0.6089
  111OSM    H3G11505   0.733   3.552  10.084  0.2917  0.1413 -0.7523
  111OSM    C4F11506   0.654   3.394   9.951  0.7395  0.2335 -0.3825
  111OSM    H4F11507   0.566   3.461   9.961 -0.4726 -1.3288 -0.2148
  111OSM    H4G11508   0.609   3.293   9.962  1.7497 -0.0038  2.8044
  111OSM    C5F11509   0.732   3.395   9.820 -0.6004 -0.1494  0.1093
  111OSM    H5F11510   0.819   3.328   9.836 -0.5292 -1.0075 -3.2279
  111OSM    H5G11511   0.773   3.496   9.796 -2.7190  0.3242 -1.8720
  111OSM    C6F11512   0.656   3.331   9.712 -0.0823 -0.3987  0.1185
  111OSM    H6F11513   0.560   3.370   9.670  0.6369 -0.8961 -2.1532
  111OSM    H6G11514   0.634   3.225   9.733 -1.6893 -0.8277 -3.0803
  111OSM    C7F11515   0.752   3.329   9.589  0.4092 -0.5076 -0.3041
  111OSM    H7F11516   0.839   3.269   9.622 -1.3559 -1.7833  2.4252
  111OSM    H7G11517   0.767   3.437   9.570 -1.3026 -0.2076 -0.1052
  111OSM    C8F11518   0.685   3.257   9.470  0.2676 -0.5432  0.2192
  111OSM    H8F11519   0.588   3.311   9.469  1.5313  1.8601 -0.8517
  111OSM    H8G11520   0.677   3.148   9.490 -3.2931 -0.5674 -0.6099
  111OSM    C9F11521   0.753   3.269   9.333 -0.3899 -0.3376 -0.3666
  111OSM    H9F11522   0.819   3.189   9.297  1.3878  1.2270 -0.7051
  111OSM   C10F11523   0.764   3.381   9.269 -0.2089  0.3600  0.3021
  111OSM   H10F11524   0.837   3.391   9.187  0.3047  4.0251  1.0295
  111OSM   C11F11525   0.708   3.515   9.310 -0.0655 -0.2435  0.7720
  111OSM   H11F11526   0.796   3.572   9.347  0.1297 -0.6770  0.9956
  111OSM   H11G11527   0.638   3.512   9.397 -1.2006  2.1768  0.0219
  111OSM   C12F11528   0.633   3.584   9.199  0.4740  0.1165 -0.8198
  111OSM   H12F11529   0.550   3.512   9.182 -1.2229  0.9836  2.8064
  111OSM   H12G11530   0.710   3.592   9.120  1.5563 -0.1095  0.1943
  111OSM   C13F11531   0.580   3.720   9.237  0.0733  0.3801 -0.1503
  111OSM   H13F11532   0.673   3.778   9.258  0.7899  0.0257 -2.1331
  111OSM   H13G11533   0.515   3.721   9.327 -1.7602 -0.6968 -1.3852
  111OSM   C14F11534   0.507   3.790   9.123 -0.0278  0.0650  0.1057
  111OSM   H14F11535   0.472   3.887   9.166  0.1161  0.4407 -0.6035
  111OSM   H14G11536   0.417   3.731   9.096 -0.0924  0.7135 -1.1969
  111OSM   C15F11537   0.595   3.817   9.005 -0.0559  0.3656  0.0059
  111OSM   H15F11538   0.634   3.727   8.953 -0.9939 -0.1283  0.1223
  111OSM   H15G11539   0.682   3.874   9.042 -0.0596 -0.0570  0.6851
  111OSM   C16F11540   0.532   3.918   8.905  0.5621 -0.3631  0.5091
  111OSM   H16F11541   0.503   4.006   8.967  1.1406  0.0060  0.2658
  111OSM   H16G11542   0.435   3.873   8.877 -0.2619  0.0354  2.5963
  111OSM   C17F11543   0.615   3.957   8.781 -0.3829 -0.1948 -0.1055
  111OSM   H17F11544   0.637   3.867   8.720 -0.9389  0.4746 -1.3286
  111OSM   H17G11545   0.713   4.001   8.808  0.1866 -1.2557 -0.4046
  111OSM   C18F11546   0.539   4.057   8.693 -1.2001  0.5729  0.4452
  111OSM   H18F11547   0.531   4.150   8.754  0.4530 -0.2552  2.0473
  111OSM   H18G11548   0.441   4.013   8.664  0.1731 -3.0529  0.7191
  111OSM   H18H11549   0.591   4.067   8.596  2.0217 -1.7483  1.7503
  112OSM      N11550   6.609   0.643  10.992 -0.0707  0.6441 -0.2704
  112OSM    C1511551   6.483   0.711  10.990 -0.0070  0.3872 -0.4174
  112OSM   H15A11552   6.414   0.659  10.925 -1.8807  2.3379 -0.1070
  112OSM   H15B11553   6.491   0.811  10.950 -0.3575  0.9662  0.9156
  112OSM   H15C11554   6.443   0.706  11.090  0.8461  1.8833  0.0226
  112OSM    C1411555   6.686   0.718  11.096 -0.1643 -0.4922  0.4893
  112OSM   H14A11556   6.635   0.721  11.192 -0.8487  2.5140  0.1270
  112OSM   H14B11557   6.707   0.819  11.063  1.3013 -0.5033  1.3344
  112OSM   H14C11558   6.785   0.677  11.100  0.1342  0.1082 -0.5705
  112OSM    C1311559   6.588   0.498  11.015  0.7592  0.0695  0.4599
  112OSM   H13A11560   6.688   0.462  11.036  1.4508  2.3511  1.2908
  112OSM   H13B11561   6.538   0.450  10.932  2.0796  0.7735 -0.7841
  112OSM   H13C11562   6.533   0.477  11.106  0.7876  0.6915  0.6220
  112OSM    C1211563   6.685   0.666  10.861  0.4372  0.0403  0.8262
  112OSM   H12A11564   6.643   0.603  10.784 -1.2929 -1.1094  2.6276
  112OSM   H12B11565   6.788   0.636  10.876 -0.2934 -1.1691  4.4230
  112OSM    C1111566   6.676   0.810  10.816 -0.2763 -0.1622 -0.4369
  112OSM   H11A11567   6.757   0.833  10.745 -0.0849 -0.0089 -0.1733
  112OSM   H11B11568   6.710   0.878  10.897  0.5610  0.0888 -0.9960
  112OSM      P11569   6.528   0.999  10.716 -0.1835 -0.3257  0.0023
  112OSM    O1311570   6.393   0.998  10.661  0.0387 -0.1179 -0.4033
  112OSM    O1411571   6.559   1.090  10.831  0.0003 -0.0961  0.1947
  112OSM    O1111572   6.634   1.035  10.607 -0.9214  0.6902  0.1657
  112OSM    O1211573   6.552   0.851  10.762 -0.1758 -0.5743 -0.4316
  112OSM    C1S11574   6.597   1.135  10.508  0.4872  0.2638 -0.4034
  112OSM    H1S11575   6.589   1.238  10.550 -0.0696  0.4917 -1.0374
  112OSM    H1T11576   6.500   1.102  10.465  1.2992 -1.3825 -1.0403
  112OSM     NF11577   6.637   1.238  10.282 -0.1244 -0.1398  0.6441
  112OSM    HNF11578   6.579   1.197  10.213  0.9717 -1.6525  0.5567
  112OSM    C2S11579   6.687   1.143  10.380  0.0563 -0.0367 -0.2321
  112OSM    H2S11580   6.787   1.174  10.417  0.6444 -1.0931 -0.8634
  112OSM    C3S11581   6.700   0.999  10.322 -0.2174  0.3785 -0.2741
  112OSM    H3S11582   6.603   0.974  10.275 -0.2084 -0.0974 -0.0513
  112OSM     O311583   6.734   0.888  10.415  0.0927  0.4486  0.2571
  112OSM    HO311584   6.722   0.926  10.502 -1.0276  0.9400 -0.0969
  112OSM    C4S11585   6.812   1.016  10.225  0.5165  0.0936  0.3935
  112OSM    H4S11586   6.907   1.057  10.263  1.4414 -0.3246 -1.3566
  112OSM    C5S11587   6.797   0.981  10.092 -0.1609  0.5191 -0.2718
  112OSM    H5S11588   6.699   0.952  10.053 -0.4472  0.5610  0.4094
  112OSM    C6S11589   6.911   0.982   9.985  0.9456  0.0446 -0.2496
  112OSM    H6S11590   6.928   0.874   9.961 -3.2158 -1.3992  2.2908
  112OSM    H6T11591   7.009   1.021  10.018  1.2531 -0.6406 -0.3246
  112OSM    C7S11592   6.867   1.033   9.857  0.1059 -0.3295  0.7258
  112OSM    H7S11593   6.835   1.140   9.856 -1.0381 -0.6390 -1.0861
  112OSM    H7T11594   6.779   0.979   9.816 -0.1654  0.7807 -0.2366
  112OSM    C8S11595   6.972   1.017   9.749  0.0578  0.0100 -0.0032
  112OSM    H8S11596   7.003   0.910   9.741  1.8259  0.6556 -3.3106
  112OSM    H8T11597   7.063   1.076   9.771  0.8418 -1.3023  0.3674
  112OSM    C9S11598   6.925   1.068   9.611 -0.6430  0.0601 -0.3320
  112OSM    H9S11599   7.010   1.112   9.555 -1.0747  0.1898 -0.8933
  112OSM    H9T11600   6.853   1.152   9.621  0.6188  1.1955 -0.3470
  112OSM   C10S11601   6.870   0.949   9.534 -0.4490 -0.2590 -0.0684
  112OSM   H10S11602   6.790   0.902   9.596  0.2646  0.2533  1.2849
  112OSM   H10T11603   6.951   0.875   9.514 -0.7628 -0.2104 -1.6041
  112OSM   C11S11604   6.819   0.991   9.392  0.0502 -0.0528  0.1426
  112OSM   H11S11605   6.905   1.032   9.335 -0.2714  0.4774  0.0279
  112OSM   H11T11606   6.750   1.077   9.409 -0.6550 -0.7282  0.7565
  112OSM   C12S11607   6.737   0.881   9.317 -0.2478  0.5161  0.0170
  112OSM   H12S11608   6.655   0.847   9.383 -0.5823  0.2310 -0.5338
  112OSM   H12T11609   6.812   0.799   9.305 -0.7391 -0.1002  1.0109
  112OSM   C13S11610   6.684   0.919   9.173 -0.0175 -0.4989 -0.0954
  112OSM   H13S11611   6.624   1.012   9.185 -2.2378 -1.5358 -2.1967
  112OSM   H13T11612   6.610   0.844   9.136 -0.9777  0.2763  0.2054
  112OSM   C14S11613   6.782   0.962   9.070  0.1801 -0.4242 -0.1182
  112OSM   H14S11614   6.835   0.874   9.028  2.2885  0.3241  0.8160
  112OSM   H14T11615   6.855   1.034   9.114 -2.5000  1.3496  1.7708
  112OSM   C15S11616   6.720   1.046   8.953  0.0936 -0.6957 -1.3501
  112OSM   H15S11617   6.660   1.128   8.997 -0.8575 -0.5105 -2.9191
  112OSM   H15T11618   6.645   0.980   8.905 -0.0740 -1.3953 -0.1714
  112OSM   C16S11619   6.813   1.122   8.862 -0.3593  0.3861  0.1640
  112OSM   H16S11620   6.891   1.175   8.921  1.0830  0.1429 -1.4422
  112OSM   H16T11621   6.758   1.202   8.807  0.0428 -1.3451 -3.0325
  112OSM   C17S11622   6.884   1.035   8.757  0.5149 -0.9483 -0.3895
  112OSM   H17S11623   6.821   0.963   8.701  2.5388 -3.1314 -0.0089
  112OSM   H17T11624   6.967   0.976   8.800 -0.8081 -1.4337  1.6614
  112OSM   C18S11625   6.950   1.125   8.655 -0.5715 -0.3265 -0.3824
  112OSM   H18S11626   7.028   1.183   8.710  0.0112 -0.8219 -0.6753
  112OSM   H18T11627   6.890   1.200   8.599 -0.9974 -1.4424 -1.4717
  112OSM   H18U11628   7.001   1.060   8.580 -1.4744 -0.7588 -0.6356
  112OSM    C1F11629   6.651   1.362  10.295  0.3200  0.3820 -0.7412
  112OSM     OF11630   6.704   1.410  10.398 -0.3907  0.0974 -0.0487
  112OSM    C2F11631   6.600   1.452  10.176  0.2651  0.2638  0.3377
  112OSM    H2F11632   6.496   1.413  10.167  1.3587 -2.9061 -0.0911
  112OSM    H2G11633   6.655   1.420  10.085  2.2522  1.7085  0.9790
  112OSM    C3F11634   6.635   1.595  10.191  0.0953 -0.4560  0.6084
  112OSM    H3F11635   6.741   1.617  10.167 -0.7314  0.7269 -2.4331
  112OSM    H3G11636   6.605   1.624  10.294  1.2946 -2.6609  1.6401
  112OSM    C4F11637   6.553   1.682  10.087  0.5179 -0.1133 -0.0111
  112OSM    H4F11638   6.582   1.789  10.094  0.2407  0.0454 -1.0764
  112OSM    H4G11639   6.447   1.690  10.118  1.1456  2.0254  1.8995
  112OSM    C5F11640   6.570   1.645   9.945  0.3329 -0.2951  0.1667
  112OSM    H5F11641   6.566   1.534   9.941  1.8450 -0.3538 -0.6145
  112OSM    H5G11642   6.672   1.678   9.916  1.0971 -0.5485  2.3579
  112OSM    C6F11643   6.469   1.706   9.845  0.0232  0.2199 -0.4743
  112OSM    H6F11644   6.487   1.815   9.837  0.1602  0.1744 -0.8382
  112OSM    H6G11645   6.367   1.692   9.885  0.5092  0.2223  0.8018
  112OSM    C7F11646   6.497   1.661   9.698 -0.6543 -0.8080 -0.0656
  112OSM    H7F11647   6.477   1.552   9.688 -0.8569 -0.7463 -0.3593
  112OSM    H7G11648   6.606   1.668   9.676 -0.6616 -0.1563  0.0723
  112OSM    C8F11649   6.429   1.739   9.576  1.0709 -0.6830 -0.2564
  112OSM    H8F11650   6.321   1.747   9.601  0.5442  1.5566 -2.8478
  112OSM    H8G11651   6.439   1.674   9.487  1.7178 -1.2154  0.1951
  112OSM    C9F11652   6.496   1.870   9.549 -0.2089  0.5886  0.0235
  112OSM    H9F11653   6.512   1.926   9.642 -0.2491  0.9576 -0.1879
  112OSM   C10F11654   6.532   1.925   9.432 -0.5326 -0.4630 -0.5562
  112OSM   H10F11655   6.582   2.022   9.436  0.4030 -0.7118 -3.6740
  112OSM   C11F11656   6.522   1.877   9.291  0.4524 -0.0562  0.4028
  112OSM   H11F11657   6.574   1.779   9.280 -0.3906 -0.7536  2.2289
  112OSM   H11G11658   6.577   1.940   9.218 -1.6693 -1.5488 -2.7098
  112OSM   C12F11659   6.379   1.865   9.231 -0.0074  0.8814 -0.0584
  112OSM   H12F11660   6.329   1.964   9.226 -0.1657  0.8266  0.4126
  112OSM   H12G11661   6.323   1.790   9.291  1.4696 -1.3183 -1.3105
  112OSM   C13F11662   6.376   1.791   9.089 -0.0330  0.6283  0.7537
  112OSM   H13F11663   6.272   1.797   9.049 -0.5553  0.2887  2.0107
  112OSM   H13G11664   6.406   1.685   9.104 -0.8079 -0.0966 -2.1282
  112OSM   C14F11665   6.462   1.858   8.987 -0.1890  0.3870 -0.8606
  112OSM   H14F11666   6.570   1.832   8.994 -0.1866  0.7677  1.7557
  112OSM   H14G11667   6.464   1.968   9.006 -1.0056  0.2326  0.2116
  112OSM   C15F11668   6.413   1.824   8.845  0.0523 -0.2488  0.3484
  112OSM   H15F11669   6.316   1.874   8.824 -0.5494 -1.3336  0.5255
  112OSM   H15G11670   6.412   1.715   8.827  0.1593  0.1933 -2.7211
  112OSM   C16F11671   6.518   1.885   8.744  0.7800  0.1631 -0.3704
  112OSM   H16F11672   6.594   1.806   8.727 -2.2112 -2.8422 -0.8569
  112OSM   H16G11673   6.566   1.974   8.791  0.4823  0.3622 -0.4357
  112OSM   C17F11674   6.460   1.924   8.609  0.4993 -0.4424  0.3394
  112OSM   H17F11675   6.381   1.999   8.633 -1.5370 -2.5489  0.5016
  112OSM   H17G11676   6.411   1.836   8.562 -1.0483  0.4788  0.1490
  112OSM   C18F11677   6.563   1.986   8.512  0.5494  0.1546  0.2631
  112OSM   H18F11678   6.506   2.002   8.418 -1.3740 -0.5276  1.2677
  112OSM   H18G11679   6.641   1.912   8.484  2.0362  1.9174 -0.4574
  112OSM   H18H11680   6.608   2.079   8.552  0.6305  0.2812 -0.1105
  113OSM      N11681   5.965   0.803  10.890 -0.3434 -0.7316  0.1967
  113OSM    C1511682   5.890   0.928  10.933  0.7701 -0.4109 -0.4368
  113OSM   H15A11683   5.785   0.902  10.938  1.3147 -2.8301 -0.5041
  113OSM   H15B11684   5.911   1.007  10.863  2.7093  0.5012  1.0959
  113OSM   H15C11685   5.914   0.960  11.033  0.1392 -0.9444 -0.1035
  113OSM    C1411686   5.953   0.690  10.985 -0.3529 -0.7833  0.0890
  113OSM   H14A11687   6.011   0.604  10.957  0.4170  0.0649 -1.0443
  113OSM   H14B11688   5.849   0.663  10.999 -0.4021 -1.3194 -1.1556
  113OSM   H14C11689   5.986   0.713  11.085  0.2318 -1.3604  0.0311
  113OSM    C1311690   5.904   0.763  10.757  1.3181 -0.6455  0.0524
  113OSM   H13A11691   5.797   0.761  10.770  1.2251  1.3215  0.0082
  113OSM   H13B11692   5.939   0.664  10.733 -0.0546 -1.1404  0.0512
  113OSM   H13C11693   5.927   0.829  10.675 -1.3443 -1.0507 -1.0998
  113OSM    C1211694   6.115   0.837  10.879 -1.0930  0.2675 -0.0772
  113OSM   H12A11695   6.169   0.840  10.973  0.7444  0.7529 -1.1022
  113OSM   H12B11696   6.121   0.938  10.841 -1.4014 -0.2890 -1.6906
  113OSM    C1111697   6.197   0.750  10.773  0.2288 -0.6115  0.5829
  113OSM   H11A11698   6.291   0.806  10.756 -0.7175  0.6309 -0.8743
  113OSM   H11B11699   6.145   0.755  10.675  0.1850  0.2916  0.6415
  113OSM      P11700   6.243   0.487  10.743  0.0535 -0.1127  0.5951
  113OSM    O1311701   6.338   0.404  10.825  0.7264 -0.0008 -0.0987
  113OSM    O1411702   6.109   0.430  10.715 -0.1110  0.3950  0.6238
  113OSM    O1111703   6.309   0.531  10.602  0.3726 -0.0986 -0.1992
  113OSM    O1211704   6.221   0.620  10.822 -0.0243  0.1300  0.6952
  113OSM    C1S11705   6.438   0.574  10.614 -0.7378 -0.2014  0.8555
  113OSM    H1S11706   6.506   0.530  10.691 -1.0998  0.8530  1.8149
  113OSM    H1T11707   6.437   0.682  10.640  2.9851  1.0575 -3.0278
  113OSM     NF11708   6.641   0.608  10.478  0.5215 -0.2882 -0.0848
  113OSM    HNF11709   6.667   0.685  10.420 -0.8034 -0.9683 -1.6516
  113OSM    C2S11710   6.503   0.567  10.468 -0.1795  0.0899 -0.1918
  113OSM    H2S11711   6.492   0.461  10.436 -0.2156  0.3164 -0.9559
  113OSM    C3S11712   6.428   0.657  10.356 -0.9231  0.7134  0.3864
  113OSM    H3S11713   6.487   0.748  10.381  1.8319 -1.1718  1.2814
  113OSM     O311714   6.292   0.670  10.383  0.4268  0.0322  0.4045
  113OSM    HO311715   6.282   0.653  10.477 -0.4701 -0.6475  0.2049
  113OSM    C4S11716   6.463   0.620  10.214 -0.1488 -0.5227 -0.2729
  113OSM    H4S11717   6.436   0.521  10.175  0.6754 -0.4085 -1.1790
  113OSM    C5S11718   6.529   0.703  10.124 -0.2208  0.3195 -0.2562
  113OSM    H5S11719   6.555   0.805  10.154 -2.3058  0.9588 -0.4702
  113OSM    C6S11720   6.561   0.672   9.984  0.8364  0.2267  0.2799
  113OSM    H6S11721   6.538   0.566   9.960  1.5689  0.0616  0.2935
  113OSM    H6T11722   6.668   0.684   9.955  1.2715 -1.2800  1.1660
  113OSM    C7S11723   6.472   0.747   9.879 -0.1819 -0.6218 -0.3206
  113OSM    H7S11724   6.517   0.844   9.848 -0.9501 -0.6989 -1.7797
  113OSM    H7T11725   6.370   0.761   9.921  0.9705  0.6495  2.2220
  113OSM    C8S11726   6.468   0.669   9.751  0.5406  0.2759  0.0875
  113OSM    H8S11727   6.415   0.730   9.675  2.8345 -0.0491 -1.9172
  113OSM    H8T11728   6.402   0.582   9.770 -1.3451  1.4892 -0.6527
  113OSM    C9S11729   6.607   0.645   9.686  0.7463  0.2753 -0.4467
  113OSM    H9S11730   6.671   0.572   9.740 -2.4471 -2.8494 -0.5246
  113OSM    H9T11731   6.663   0.741   9.685 -0.1204  0.8320  1.1630
  113OSM   C10S11732   6.588   0.595   9.545 -1.1939 -0.1971  0.1489
  113OSM   H10S11733   6.558   0.679   9.479  2.7956  2.2481  1.1025
  113OSM   H10T11734   6.511   0.515   9.543 -1.4897  0.0654  0.7808
  113OSM   C11S11735   6.725   0.550   9.492  0.6797 -0.2465  0.4101
  113OSM   H11S11736   6.766   0.469   9.556 -1.6427  0.4434  2.9599
  113OSM   H11T11737   6.806   0.626   9.494  2.0255 -1.6252  0.5454
  113OSM   C12S11738   6.708   0.505   9.341  0.6435 -0.4125 -0.5919
  113OSM   H12S11739   6.643   0.576   9.285 -0.4362  0.9728  2.2091
  113OSM   H12T11740   6.652   0.409   9.332 -0.5812  0.3160 -1.0471
  113OSM   C13S11741   6.835   0.480   9.258 -0.0749  0.1058 -0.7306
  113OSM   H13S11742   6.894   0.397   9.302  1.3375  1.1388 -0.6099
  113OSM   H13T11743   6.901   0.568   9.271  1.3402 -1.1753  1.3220
  113OSM   C14S11744   6.813   0.444   9.114 -0.1495  0.1331  0.4539
  113OSM   H14S11745   6.723   0.384   9.089  0.6165 -0.4048 -1.1553
  113OSM   H14T11746   6.899   0.385   9.077 -0.2788 -0.4006  0.9817
  113OSM   C15S11747   6.812   0.572   9.029 -0.0986 -0.0978  0.1063
  113OSM   H15S11748   6.902   0.627   9.066 -0.6447  0.7909  0.1540
  113OSM   H15T11749   6.720   0.633   9.042  0.1011  0.0644  0.8401
  113OSM   C16S11750   6.830   0.544   8.878  0.4918  0.1354 -0.2778
  113OSM   H16S11751   6.761   0.464   8.844 -0.0540 -1.0430  3.1498
  113OSM   H16T11752   6.931   0.504   8.853  2.0285  3.2844  0.3830
  113OSM   C17S11753   6.822   0.666   8.792  0.7327 -0.0561 -0.4203
  113OSM   H17S11754   6.874   0.754   8.837  0.3180  0.2139 -0.4679
  113OSM   H17T11755   6.717   0.702   8.784  0.6749  0.2860  1.3798
  113OSM   C18S11756   6.887   0.643   8.657 -0.0009  0.1086  0.1627
  113OSM   H18S11757   6.827   0.574   8.595 -1.5149  1.0258  0.5436
  113OSM   H18T11758   6.985   0.590   8.661 -0.6297 -1.3753 -2.3039
  113OSM   H18U11759   6.913   0.738   8.606 -0.0797 -0.2479 -0.5446
  113OSM    C1F11760   6.737   0.557  10.554 -0.4027  0.1935  0.1995
  113OSM     OF11761   6.719   0.472  10.640  0.2949 -0.0677  0.0068
  113OSM    C2F11762   6.876   0.609  10.526  0.1077 -0.1112  0.6713
  113OSM    H2F11763   6.883   0.705  10.581 -2.2788 -0.0672  0.9951
  113OSM    H2G11764   6.884   0.641  10.420  0.0927  0.5176  0.8589
  113OSM    C3F11765   6.983   0.510  10.552  0.1932  0.0033  0.3642
  113OSM    H3F11766   6.979   0.423  10.484  1.0165 -1.4275  2.0747
  113OSM    H3G11767   6.978   0.467  10.654  0.1635 -0.6471  0.0943
  113OSM    C4F11768   7.123   0.579  10.536  0.8890 -0.2104 -0.3145
  113OSM    H4F11769   7.201   0.500  10.532  1.2058 -0.1398  2.4706
  113OSM    H4G11770   7.157   0.638  10.623  2.3899  3.1210 -2.9151
  113OSM    C5F11771   7.163   0.678  10.427 -0.7950 -0.4356  0.6861
  113OSM    H5F11772   7.260   0.730  10.441 -0.9360 -0.5304  2.1042
  113OSM    H5G11773   7.098   0.767  10.418  2.6104  2.1248 -1.0757
  113OSM    C6F11774   7.180   0.608  10.287  0.1125 -0.0069  0.0455
  113OSM    H6F11775   7.104   0.528  10.295  1.3516 -1.1252  1.1689
  113OSM    H6G11776   7.276   0.554  10.273 -0.5672 -1.0793 -0.5404
  113OSM    C7F11777   7.141   0.708  10.183  0.1401  0.4941 -0.3247
  113OSM    H7F11778   7.209   0.795  10.193  0.3544  0.2645  0.2644
  113OSM    H7G11779   7.039   0.752  10.192  0.5128  1.1368  0.9338
  113OSM    C8F11780   7.159   0.660  10.040 -0.0130 -0.7175  0.2391
  113OSM    H8F11781   7.261   0.617  10.025 -0.0475 -0.4730 -0.7878
  113OSM    H8G11782   7.164   0.748   9.972  0.1184  0.0036  1.1735
  113OSM    C9F11783   7.070   0.544   9.999 -0.1779 -0.2075 -0.1357
  113OSM    H9F11784   7.030   0.483  10.082 -1.3286 -1.8231 -1.8028
  113OSM   C10F11785   7.041   0.512   9.867  0.1942 -0.0645 -0.9984
  113OSM   H10F11786   6.981   0.422   9.847  0.5876 -0.7255  0.6694
  113OSM   C11F11787   7.093   0.585   9.751 -0.3186 -0.0330  1.0312
  113OSM   H11F11788   7.192   0.632   9.773 -0.0790 -0.8627  1.8022
  113OSM   H11G11789   7.028   0.669   9.717  1.2602  1.0261  0.4939
  113OSM   C12F11790   7.108   0.484   9.635 -0.2564 -0.6073  0.2475
  113OSM   H12F11791   7.012   0.437   9.605 -0.1993 -1.5832  1.4842
  113OSM   H12G11792   7.184   0.409   9.667  0.8570  0.5918  0.4631
  113OSM   C13F11793   7.163   0.561   9.513  0.0890  0.1623 -0.1512
  113OSM   H13F11794   7.246   0.630   9.543  0.8764  0.2774 -2.3971
  113OSM   H13G11795   7.084   0.633   9.483 -0.7021 -1.1230 -1.2493
  113OSM   C14F11796   7.206   0.471   9.394 -0.2313  0.2394 -0.6376
  113OSM   H14F11797   7.136   0.403   9.342  0.4065 -0.7188 -0.2614
  113OSM   H14G11798   7.281   0.405   9.442 -0.9377  0.3560  0.6733
  113OSM   C15F11799   7.260   0.565   9.280 -0.4842 -0.7591  0.2355
  113OSM   H15F11800   7.332   0.630   9.334 -0.2955 -1.0978  0.3953
  113OSM   H15G11801   7.182   0.635   9.242  0.7907  1.0994  0.9178
  113OSM   C16F11802   7.315   0.489   9.163  0.3859  0.1335  0.1420
  113OSM   H16F11803   7.238   0.410   9.150  0.5296 -0.1348  0.8621
  113OSM   H16G11804   7.414   0.451   9.196 -0.3670  0.2707  2.8477
  113OSM   C17F11805   7.312   0.560   9.033 -1.0180 -0.1699  0.0436
  113OSM   H17F11806   7.396   0.633   9.034 -0.1900 -1.0774 -0.7220
  113OSM   H17G11807   7.220   0.621   9.018  0.1786  1.2577 -2.1084
  113OSM   C18F11808   7.319   0.468   8.907  0.4576  0.3431 -0.5869
  113OSM   H18F11809   7.399   0.392   8.915  1.1047  1.0429 -0.2247
  113OSM   H18G11810   7.346   0.523   8.814 -0.0745  0.3731 -0.7253
  113OSM   H18H11811   7.222   0.418   8.886 -0.4276 -0.0273  3.4990
  114OSM      N11812   0.361   5.283  11.116 -0.3755  0.6808 -0.0988
  114OSM    C1511813   0.295   5.360  11.003 -0.2494  0.1706 -0.0348
  114OSM   H15A11814   0.354   5.442  10.963  3.4831 -0.9147  2.6168
  114OSM   H15B11815   0.210   5.406  11.051 -0.4235 -0.5582  0.3683
  114OSM   H15C11816   0.248   5.297  10.930 -0.1950  1.2541 -1.0392
  114OSM    C1411817   0.385   5.381  11.227  0.0834  0.2015  0.4445
  114OSM   H14A11818   0.292   5.421  11.264  0.5118  1.8459 -0.1521
  114OSM   H14B11819   0.442   5.457  11.175  1.2879 -2.3466 -2.2973
  114OSM   H14C11820   0.441   5.338  11.309 -1.4364 -0.3312  1.2315
  114OSM    C1311821   0.250   5.190  11.167 -0.1931  0.1826 -0.0087
  114OSM   H13A11822   0.193   5.157  11.082  0.3806  1.0554 -0.7491
  114OSM   H13B11823   0.174   5.246  11.220  0.7293  2.0504 -0.5592
  114OSM   H13C11824   0.289   5.102  11.216 -0.3118  0.2661  0.2404
  114OSM    C1211825   0.483   5.200  11.080  0.2551 -0.9579 -0.6373
  114OSM   H12A11826   0.556   5.270  11.040  0.4517  0.4374  1.9420
  114OSM   H12B11827   0.452   5.135  10.999 -2.0969 -0.8911  0.1408
  114OSM    C1111828   0.562   5.121  11.185 -0.4749  0.6249 -0.8841
  114OSM   H11A11829   0.612   5.195  11.251 -0.0795  1.0705 -1.6624
  114OSM   H11B11830   0.641   5.060  11.137 -0.1937  2.2686 -2.6667
  114OSM      P11831   0.450   4.898  11.231 -0.2775  0.0521  0.7939
  114OSM    O1311832   0.552   4.801  11.278  0.3706  0.0325  0.3932
  114OSM    O1411833   0.308   4.874  11.266  0.0192  0.3579 -0.6882
  114OSM    O1111834   0.453   4.914  11.073  0.0306  0.2481 -0.0227
  114OSM    O1211835   0.481   5.050  11.276  0.1314 -0.2291  0.3503
  114OSM    C1S11836   0.342   4.850  11.006  0.1976 -0.7204  0.0074
  114OSM    H1S11837   0.244   4.901  11.021 -1.2995 -1.9132 -4.1948
  114OSM    H1T11838   0.349   4.740  11.022  0.5264 -0.7559 -0.3666
  114OSM     NF11839   0.236   4.828  10.784 -0.0981 -0.2269 -0.1625
  114OSM    HNF11840   0.225   4.736  10.748 -0.5793 -0.6634  1.0522
  114OSM    C2S11841   0.364   4.861  10.851  0.7362 -0.7568 -0.2020
  114OSM    H2S11842   0.382   4.967  10.823 -0.0983 -0.7146 -0.5906
  114OSM    C3S11843   0.484   4.772  10.818  0.0942 -0.2612 -0.4332
  114OSM    H3S11844   0.454   4.671  10.854 -0.6033  0.6172  1.5818
  114OSM     O311845   0.597   4.798  10.898 -0.6893 -0.3565 -0.5391
  114OSM    HO311846   0.560   4.851  10.969  0.3309 -1.1968  0.6629
  114OSM    C4S11847   0.523   4.777  10.667  0.4144 -0.1784  0.5202
  114OSM    H4S11848   0.500   4.696  10.597 -0.9554  1.6494 -1.2694
  114OSM    C5S11849   0.564   4.893  10.610  0.5396 -0.5135 -0.0490
  114OSM    H5S11850   0.585   4.979  10.677 -1.4512  0.1482 -0.2129
  114OSM    C6S11851   0.582   4.905  10.455  0.3122 -0.2577  0.1742
  114OSM    H6S11852   0.675   4.846  10.438  1.8206  1.3184  2.3369
  114OSM    H6T11853   0.603   5.008  10.420  0.4835 -0.1226  0.6560
  114OSM    C7S11854   0.474   4.852  10.358 -0.6856  0.2784  0.2234
  114OSM    H7S11855   0.375   4.886  10.396 -1.4209 -1.4514 -0.0826
  114OSM    H7T11856   0.476   4.742  10.362  0.6865  0.3004  0.3526
  114OSM    C8S11857   0.512   4.897  10.218 -0.7157  0.0404  0.3785
  114OSM    H8S11858   0.621   4.886  10.199 -0.7300  0.9723 -0.3909
  114OSM    H8T11859   0.499   5.008  10.212 -0.0719  0.1915  1.5773
  114OSM    C9S11860   0.428   4.830  10.105 -1.0424 -0.4985 -0.4364
  114OSM    H9S11861   0.320   4.848  10.123 -0.7077  0.6652  0.5733
  114OSM    H9T11862   0.441   4.721  10.121  0.3566 -0.0331  2.2945
  114OSM   C10S11863   0.458   4.861   9.958 -0.6579  0.3371 -0.3787
  114OSM   H10S11864   0.495   4.964   9.938  2.7236 -0.4440  1.1004
  114OSM   H10T11865   0.368   4.832   9.901 -0.1677  1.0616 -1.5449
  114OSM   C11S11866   0.575   4.770   9.904 -0.2676 -0.2825  0.0151
  114OSM   H11S11867   0.572   4.666   9.943  0.0312 -0.0218  0.7663
  114OSM   H11T11868   0.672   4.819   9.927  0.5033 -1.9802  0.5722
  114OSM   C12S11869   0.558   4.760   9.755  0.0589 -0.8078 -0.1601
  114OSM   H12S11870   0.533   4.857   9.707 -0.5602 -1.5574 -1.4087
  114OSM   H12T11871   0.469   4.696   9.734 -1.1357 -0.1043  2.3846
  114OSM   C13S11872   0.682   4.709   9.689 -0.2030 -0.3726 -0.9763
  114OSM   H13S11873   0.714   4.612   9.733  0.6282 -0.0082 -0.7541
  114OSM   H13T11874   0.763   4.778   9.721  0.6930 -2.5462  1.9169
  114OSM   C14S11875   0.652   4.694   9.542 -0.1832 -0.0799  0.4780
  114OSM   H14S11876   0.604   4.783   9.495 -2.3606  0.2684  3.1155
  114OSM   H14T11877   0.568   4.621   9.532  0.1870 -0.4595  0.0664
  114OSM   C15S11878   0.764   4.648   9.452 -0.1410 -0.5517  0.1793
  114OSM   H15S11879   0.741   4.642   9.343  0.9396  1.3218 -0.2002
  114OSM   H15T11880   0.787   4.543   9.481 -1.3656 -0.8644  0.0562
  114OSM   C16S11881   0.891   4.736   9.471 -0.3195  0.4216  0.7498
  114OSM   H16S11882   0.958   4.682   9.541 -0.8994  2.0408  2.6356
  114OSM   H16T11883   0.856   4.827   9.524  0.2124  1.5229 -0.7135
  114OSM   C17S11884   0.964   4.791   9.348  0.5417  0.1276  0.2382
  114OSM   H17S11885   1.067   4.821   9.379  0.5225 -0.2970  0.7210
  114OSM   H17T11886   0.910   4.877   9.302  1.2766 -0.7986 -2.5333
  114OSM   C18S11887   1.008   4.697   9.237 -0.0076 -0.7905  0.3223
  114OSM   H18S11888   1.088   4.622   9.257 -0.5990 -1.5291 -0.0599
  114OSM   H18T11889   1.044   4.770   9.162 -0.7560  0.9217  1.5519
  114OSM   H18U11890   0.918   4.662   9.183  0.6540 -0.1917 -1.2276
  114OSM    C1F11891   0.144   4.923  10.782  0.1389  0.3102 -0.0345
  114OSM     OF11892   0.158   5.036  10.816  0.7211  0.3217 -0.3617
  114OSM    C2F11893   0.010   4.877  10.737  0.3791 -0.5600  0.4276
  114OSM    H2F11894  -0.057   4.888  10.825  0.0182 -2.2490  0.3987
  114OSM    H2G11895   0.020   4.774  10.697 -3.0485 -0.4276 -1.1594
  114OSM    C3F11896  -0.031   4.974  10.615 -0.2553  0.4119 -0.2730
  114OSM    H3F11897  -0.042   5.079  10.650 -0.9838  0.0483  0.6213
  114OSM    H3G11898  -0.137   4.946  10.595 -0.0442 -2.0955  1.6222
  114OSM    C4F11899   0.047   4.956  10.483  0.2572  0.0999  0.5057
  114OSM    H4F11900   0.056   4.849  10.454 -0.6598  0.2243 -0.2790
  114OSM    H4G11901   0.151   4.994  10.496  0.2459  0.1135  0.5567
  114OSM    C5F11902  -0.018   5.022  10.354  0.2711 -0.0743  0.0274
  114OSM    H5F11903  -0.050   5.127  10.375  1.3524  0.2456  0.1499
  114OSM    H5G11904  -0.116   4.972  10.335 -0.2463  1.1217 -0.5900
  114OSM    C6F11905   0.068   5.030  10.229 -0.6055  0.0097 -0.5261
  114OSM    H6F11906   0.113   4.931  10.208  2.5000  1.1020  0.3189
  114OSM    H6G11907   0.158   5.093  10.245  0.8130 -1.5492 -1.9673
  114OSM    C7F11908  -0.006   5.088  10.103 -0.1709  0.2708 -0.1707
  114OSM    H7F11909  -0.034   5.194  10.121 -1.0552 -0.0992  0.6946
  114OSM    H7G11910  -0.107   5.041  10.112  0.8577 -1.8018  1.2315
  114OSM    C8F11911   0.039   5.066   9.954  1.0856  0.1033 -0.8522
  114OSM    H8F11912  -0.033   5.103   9.878 -1.9111 -1.0735  1.2301
  114OSM    H8G11913   0.041   4.955   9.946  0.3375 -0.0253  0.4852
  114OSM    C9F11914   0.179   5.105   9.935 -0.5682  0.0723  0.2600
  114OSM    H9F11915   0.252   5.089  10.015  0.6476  1.7100 -0.4487
  114OSM   C10F11916   0.227   5.162   9.820 -0.9195 -0.1640 -0.3548
  114OSM   H10F11917   0.332   5.195   9.815 -0.8018 -0.3920  0.4357
  114OSM   C11F11918   0.149   5.204   9.700  0.8158  0.1146 -1.0698
  114OSM   H11F11919   0.182   5.305   9.667  0.3776  1.1216  1.3698
  114OSM   H11G11920   0.048   5.228   9.738  1.1416  0.2190 -0.2562
  114OSM   C12F11921   0.154   5.092   9.598 -0.5705  0.5662 -0.2270
  114OSM   H12F11922   0.096   5.121   9.508 -1.3161 -0.4084 -0.0796
  114OSM   H12G11923   0.106   5.004   9.646 -0.9357  0.5877 -0.5471
  114OSM   C13F11924   0.288   5.062   9.524  0.1292  0.2029  0.2304
  114OSM   H13F11925   0.363   5.027   9.598  1.6010  0.0031 -1.3082
  114OSM   H13G11926   0.323   5.159   9.484 -2.5242  0.0295 -2.9010
  114OSM   C14F11927   0.275   4.967   9.411  0.1900  0.6110  0.7638
  114OSM   H14F11928   0.198   5.003   9.340  1.4136 -0.4255 -1.1680
  114OSM   H14G11929   0.243   4.872   9.460 -0.0545 -0.3108 -1.1112
  114OSM   C15F11930   0.403   4.941   9.340 -0.2621 -0.2124 -0.7360
  114OSM   H15F11931   0.477   4.909   9.417 -0.8874  2.6445  1.2075
  114OSM   H15G11932   0.441   5.041   9.311  0.2955 -0.3385 -0.4591
  114OSM   C16F11933   0.383   4.856   9.216  0.0177  0.1043  0.1162
  114OSM   H16F11934   0.330   4.762   9.244 -1.6780  1.2827  1.0814
  114OSM   H16G11935   0.481   4.815   9.185 -0.5469 -0.3143 -1.1834
  114OSM   C17F11936   0.302   4.920   9.105  0.3629  0.0378 -0.3413
  114OSM   H17F11937   0.323   5.029   9.107  0.0308  0.1927  3.7939
  114OSM   H17G11938   0.192   4.922   9.120  0.2988 -1.7060 -0.3871
  114OSM   C18F11939   0.325   4.867   8.962 -1.0801  0.1672  0.2610
  114OSM   H18F11940   0.236   4.881   8.896 -1.2201 -0.3102  0.3426
  114OSM   H18G11941   0.336   4.757   8.973 -1.4507  0.2123  1.1505
  114OSM   H18H11942   0.414   4.917   8.919 -1.1586 -0.1976 -0.3557
  115OSM      N11943   2.450   1.076   6.249 -0.2250 -0.1737  0.2374
  115OSM    C1511944   2.454   1.037   6.107  0.2060 -0.2662  0.1153
  115OSM   H15A11945   2.436   0.933   6.082 -0.1164 -0.3058  0.4964
  115OSM   H15B11946   2.544   1.058   6.051 -0.0427 -0.4471 -0.3586
  115OSM   H15C11947   2.376   1.077   6.043  0.6777  1.0466  0.3237
  115OSM    C1411948   2.587   1.088   6.302 -0.5813 -0.4371 -0.4164
  115OSM   H14A11949   2.649   1.000   6.307  2.0807  1.3642  0.3170
  115OSM   H14B11950   2.589   1.122   6.405  0.6265  0.8939 -0.8411
  115OSM   H14C11951   2.648   1.164   6.254  0.7056 -0.1601  1.5451
  115OSM    C1311952   2.398   1.218   6.256  0.9802  0.6210  0.1496
  115OSM   H13A11953   2.447   1.277   6.179  1.4205  2.0533  1.4879
  115OSM   H13B11954   2.429   1.266   6.348 -0.1641  1.7801 -0.0382
  115OSM   H13C11955   2.292   1.226   6.242  0.9707  0.4286  0.1054
  115OSM    C1211956   2.364   0.985   6.322  0.6315 -0.0039 -0.2592
  115OSM   H12A11957   2.276   0.968   6.262 -0.1692  0.4065  0.7721
  115OSM   H12B11958   2.334   1.045   6.406  2.1752 -0.7146  0.8458
  115OSM    C1111959   2.432   0.852   6.361  0.3143 -0.5002 -0.7292
  115OSM   H11A11960   2.372   0.806   6.442 -0.0733  0.1703 -0.6227
  115OSM   H11B11961   2.531   0.869   6.410  0.0488 -0.5786 -0.1600
  115OSM      P11962   2.363   0.653   6.197 -0.2181  0.3972  0.4685
  115OSM    O1311963   2.247   0.718   6.137 -0.4309 -0.2962  0.1607
  115OSM    O1411964   2.452   0.566   6.117 -0.0264 -0.5225 -0.0361
  115OSM    O1111965   2.319   0.561   6.318 -0.4037 -0.2696  0.0387
  115OSM    O1211966   2.455   0.766   6.250  0.1184  0.0978  0.0197
  115OSM    C1S11967   2.415   0.519   6.413  0.0372 -0.6105 -0.1690
  115OSM    H1S11968   2.500   0.590   6.422 -0.3981 -0.1941  0.7576
  115OSM    H1T11969   2.456   0.419   6.387 -0.1474 -1.2627  1.9121
  115OSM     NF11970   2.444   0.487   6.672 -0.0625  0.8366 -0.1975
  115OSM    HNF11971   2.441   0.400   6.722  3.2133  0.7380  0.0450
  115OSM    C2S11972   2.350   0.506   6.565 -0.4663  0.2651  0.4960
  115OSM    H2S11973   2.290   0.599   6.572 -0.2252  0.4884 -0.2971
  115OSM    C3S11974   2.243   0.395   6.576 -0.1461  0.2272  1.0264
  115OSM    H3S11975   2.301   0.301   6.568  0.3456  0.4714  1.6757
  115OSM     O311976   2.151   0.406   6.466  0.1068  0.2164  0.6470
  115OSM    HO311977   2.189   0.484   6.425  0.6217  0.1790  1.0514
  115OSM    C4S11978   2.179   0.382   6.710  0.7061  0.5890  0.5836
  115OSM    H4S11979   2.233   0.300   6.760 -2.1557 -3.2273 -2.0598
  115OSM    C5S11980   2.066   0.433   6.769  0.4637  0.0019  0.0271
  115OSM    H5S11981   1.991   0.499   6.721 -0.1869 -0.0605  0.9291
  115OSM    C6S11982   2.024   0.401   6.906  0.0401  0.5062 -0.0912
  115OSM    H6S11983   1.984   0.298   6.911  3.0049 -0.7815 -0.7657
  115OSM    H6T11984   1.935   0.464   6.929 -0.1461  0.9395 -1.8246
  115OSM    C7S11985   2.137   0.426   7.011  0.6821 -0.2647 -0.2002
  115OSM    H7S11986   2.170   0.530   6.996 -2.4810  0.6274 -1.9279
  115OSM    H7T11987   2.228   0.365   6.992  2.2509  0.9804  2.6786
  115OSM    C8S11988   2.079   0.405   7.152 -0.1543  0.2005  0.6725
  115OSM    H8S11989   2.021   0.311   7.162  0.2193 -0.0052  0.9391
  115OSM    H8T11990   2.008   0.489   7.165  1.2432  1.8508 -1.5559
  115OSM    C9S11991   2.190   0.385   7.252  0.1379 -0.5467  0.1192
  115OSM    H9S11992   2.272   0.460   7.244  0.2851 -0.7281 -0.0897
  115OSM    H9T11993   2.241   0.286   7.248  3.9139  1.0162  2.8722
  115OSM   C10S11994   2.130   0.389   7.396 -0.6740  0.5045  0.3849
  115OSM   H10S11995   2.054   0.308   7.404  0.1989 -0.4761 -0.9052
  115OSM   H10T11996   2.064   0.479   7.396 -0.7172  0.5309 -2.0931
  115OSM   C11S11997   2.226   0.384   7.516 -0.1651  0.3323 -0.0099
  115OSM   H11S11998   2.310   0.456   7.501 -0.3947  0.5451 -0.2777
  115OSM   H11T11999   2.276   0.286   7.507  1.5628  1.1257  0.4742
  115OSM   C12S12000   2.155   0.400   7.655 -0.9145  0.4368 -0.5484
  115OSM   H12S12001   2.080   0.318   7.653 -2.8725  2.1470 -0.3792
  115OSM   H12T12002   2.116   0.504   7.648 -0.7601  0.6975  1.5688
  115OSM   C13S12003   2.254   0.383   7.776 -0.0945 -0.3541  0.5908
  115OSM   H13S12004   2.324   0.468   7.761 -2.6753  1.5215 -1.8449
  115OSM   H13T12005   2.296   0.282   7.758 -0.9842 -0.4727 -0.9787
  115OSM   C14S12006   2.182   0.396   7.906  0.5747 -0.0878  0.2429
  115OSM   H14S12007   2.112   0.309   7.913 -0.6919  0.7982 -0.8955
  115OSM   H14T12008   2.115   0.484   7.917  1.1741  0.3219  0.6745
  115OSM   C15S12009   2.276   0.391   8.027  0.1345 -0.3074 -0.3622
  115OSM   H15S12010   2.366   0.454   8.012  0.2640  0.3312  2.5453
  115OSM   H15T12011   2.315   0.287   8.029 -0.6222 -0.7102 -2.9587
  115OSM   C16S12012   2.210   0.428   8.162  0.3871 -0.4800 -0.3356
  115OSM   H16S12013   2.107   0.387   8.170 -0.1907 -0.1959 -4.3228
  115OSM   H16T12014   2.189   0.537   8.150 -0.6825 -0.5077  1.0133
  115OSM   C17S12015   2.298   0.407   8.283 -1.1402  0.1015  0.2904
  115OSM   H17S12016   2.402   0.445   8.271 -0.3101 -1.6696  1.4639
  115OSM   H17T12017   2.308   0.297   8.283  0.4510  0.2261 -0.0344
  115OSM   C18S12018   2.231   0.460   8.410  0.5780  0.1503 -0.5374
  115OSM   H18S12019   2.298   0.472   8.498  0.4584 -0.2127 -0.3935
  115OSM   H18T12020   2.141   0.404   8.445 -1.4312  3.8142  0.7118
  115OSM   H18U12021   2.191   0.561   8.388  1.5914  1.0347  1.3667
  115OSM    C1F12022   2.532   0.576   6.710 -0.0582 -0.2826  0.6130
  115OSM     OF12023   2.538   0.681   6.656  0.2348  0.1067 -0.2986
  115OSM    C2F12024   2.616   0.541   6.826  0.0940 -0.1237  0.2012
  115OSM    H2F12025   2.681   0.459   6.787  0.7075 -0.2224  1.3813
  115OSM    H2G12026   2.554   0.497   6.907  0.9888 -2.3622 -0.2297
  115OSM    C3F12027   2.720   0.652   6.866  0.4495 -0.9543  0.3852
  115OSM    H3F12028   2.671   0.743   6.907 -0.6034 -1.3215 -0.0509
  115OSM    H3G12029   2.785   0.679   6.780 -1.4490  0.0988 -0.7777
  115OSM    C4F12030   2.816   0.602   6.967 -0.6203  0.4344  0.1758
  115OSM    H4F12031   2.902   0.670   6.988  1.9247 -2.4285 -0.3006
  115OSM    H4G12032   2.864   0.510   6.927  0.5613  1.4840 -0.9434
  115OSM    C5F12033   2.750   0.545   7.094 -0.3312 -0.5073  0.0652
  115OSM    H5F12034   2.833   0.491   7.143 -0.4361  0.0604  0.8952
  115OSM    H5G12035   2.674   0.466   7.076 -1.6956  0.9890 -1.0161
  115OSM    C6F12036   2.711   0.649   7.200 -0.0369 -0.3862 -0.5273
  115OSM    H6F12037   2.628   0.713   7.164  0.6193 -0.2145 -1.8173
  115OSM    H6G12038   2.805   0.703   7.223  0.6809 -1.6087 -0.4807
  115OSM    C7F12039   2.659   0.599   7.338 -0.0276  0.5002  0.4735
  115OSM    H7F12040   2.730   0.521   7.373  1.8027  1.3425 -1.1838
  115OSM    H7G12041   2.563   0.543   7.327 -0.4665  0.3618  4.0556
  115OSM    C8F12042   2.649   0.713   7.438 -0.1413 -0.1620 -0.4583
  115OSM    H8F12043   2.567   0.778   7.399 -0.0256  0.1702 -0.1514
  115OSM    H8G12044   2.751   0.752   7.458  0.0658 -0.0552 -1.6716
  115OSM    C9F12045   2.587   0.642   7.559  0.6898  0.3703 -0.3084
  115OSM    H9F12046   2.501   0.576   7.544  1.3454 -0.3169 -1.1172
  115OSM   C10F12047   2.632   0.652   7.687 -0.2762  0.6088  0.0091
  115OSM   H10F12048   2.573   0.602   7.766 -2.2085  1.0904 -1.0741
  115OSM   C11F12049   2.744   0.728   7.760  0.1893 -0.0762 -0.3442
  115OSM   H11F12050   2.699   0.800   7.831 -1.0378 -0.0329 -1.1397
  115OSM   H11G12051   2.798   0.802   7.698 -0.3772  0.0172 -0.7317
  115OSM   C12F12052   2.845   0.633   7.828  0.1812 -1.0592  0.2293
  115OSM   H12F12053   2.897   0.564   7.757 -1.4349 -1.2230 -0.8422
  115OSM   H12G12054   2.792   0.558   7.889 -0.2347 -1.0385 -0.1004
  115OSM   C13F12055   2.955   0.705   7.900 -0.1692  0.2351  0.3487
  115OSM   H13F12056   2.912   0.783   7.967 -1.5913  0.1059 -0.3732
  115OSM   H13G12057   3.008   0.764   7.823 -0.5104  2.7868  1.9424
  115OSM   C14F12058   3.064   0.617   7.977 -0.7870  0.3837  0.2274
  115OSM   H14F12059   3.162   0.667   7.963 -0.9882  0.5828 -0.5405
  115OSM   H14G12060   3.064   0.518   7.926 -2.5102  0.3695  0.1874
  115OSM   C15F12061   3.034   0.605   8.121  0.0193  0.1347 -0.2342
  115OSM   H15F12062   3.089   0.520   8.168  1.5384  0.8261 -0.6927
  115OSM   H15G12063   2.929   0.572   8.135  0.6498 -1.7924  0.3120
  115OSM   C16F12064   3.056   0.724   8.215  0.6466 -0.0827 -0.2326
  115OSM   H16F12065   3.028   0.818   8.162  0.9479  0.0163 -0.2153
  115OSM   H16G12066   3.158   0.754   8.248 -0.4358  2.8488  0.7459
  115OSM   C17F12067   2.968   0.707   8.339 -0.6874 -0.5066  0.3271
  115OSM   H17F12068   3.007   0.610   8.377  2.9706  0.1490 -1.2807
  115OSM   H17G12069   2.861   0.703   8.307 -1.0233 -0.0107  1.3606
  115OSM   C18F12070   2.979   0.812   8.447  0.4333  0.0638  0.1452
  115OSM   H18F12071   3.014   0.912   8.414 -1.1951  0.4476 -0.4928
  115OSM   H18G12072   3.047   0.776   8.527  0.0916  0.6872  0.7202
  115OSM   H18H12073   2.886   0.833   8.504  0.8819 -0.0277  0.9223
  116OSM      N12074   2.119   4.371   6.066  0.1824  0.5268 -0.4544
  116OSM    C1512075   2.226   4.448   6.140  0.2877 -0.4802  0.1236
  116OSM   H15A12076   2.217   4.435   6.247  0.0812  1.4264  0.3800
  116OSM   H15B12077   2.220   4.552   6.111  0.0883 -0.7946 -1.0284
  116OSM   H15C12078   2.320   4.421   6.096  0.7235  0.0888  0.6773
  116OSM    C1412079   2.162   4.365   5.924  0.4072 -0.6380 -0.6831
  116OSM   H14A12080   2.258   4.315   5.918  0.8912  0.1674  0.1704
  116OSM   H14B12081   2.157   4.460   5.874  1.6043 -1.2701 -2.0725
  116OSM   H14C12082   2.091   4.305   5.869  0.0487 -0.7967 -0.0617
  116OSM    C1312083   2.120   4.232   6.114 -0.6346 -0.1484  0.0479
  116OSM   H13A12084   2.093   4.216   6.217 -0.4960 -1.2640 -0.0738
  116OSM   H13B12085   2.221   4.194   6.117  0.0017  1.4298 -0.2509
  116OSM   H13C12086   2.065   4.159   6.057  0.1080 -0.5816 -0.1309
  116OSM    C1212087   1.980   4.428   6.086  0.4188  0.7193  0.9281
  116OSM   H12A12088   1.916   4.366   6.025  2.0393 -0.2870  0.1857
  116OSM   H12B12089   1.977   4.525   6.038  0.9757  0.1621 -0.2778
  116OSM    C1112090   1.929   4.454   6.225 -0.2157 -0.3291  0.2006
  116OSM   H11A12091   1.954   4.368   6.290 -2.3721  0.1217  1.7466
  116OSM   H11B12092   1.818   4.464   6.220 -0.3694 -1.9670 -3.0919
  116OSM      P12093   1.940   4.716   6.241 -0.5601 -0.0421  0.2777
  116OSM    O1312094   2.037   4.815   6.292 -0.2020  0.2964  0.4036
  116OSM    O1412095   1.901   4.736   6.101  0.0334  0.2599  0.3016
  116OSM    O1112096   1.806   4.715   6.327 -0.3509  0.5949 -0.4368
  116OSM    O1212097   1.992   4.569   6.277  0.5067 -0.1050  0.3573
  116OSM    C1S12098   1.801   4.682   6.467  0.2937  0.3750  0.1337
  116OSM    H1S12099   1.884   4.616   6.498 -0.3164 -0.0887  0.8236
  116OSM    H1T12100   1.707   4.626   6.489  0.8832  0.0895  2.1817
  116OSM     NF12101   1.816   4.765   6.696  0.3990 -0.0328 -0.0359
  116OSM    HNF12102   1.741   4.763   6.761  0.7458 -0.3062  0.3654
  116OSM    C2S12103   1.785   4.810   6.559  0.6782  0.5824  0.4956
  116OSM    H2S12104   1.864   4.882   6.528  0.6589  1.3277  2.0824
  116OSM    C3S12105   1.656   4.886   6.531  0.1809 -0.0337  0.0318
  116OSM    H3S12106   1.567   4.820   6.537  2.0295 -2.6554  0.1116
  116OSM     O312107   1.651   4.925   6.393  0.6197  0.5254  0.5155
  116OSM    HO312108   1.731   4.890   6.355 -1.3681 -2.4339 -1.3807
  116OSM    C4S12109   1.645   5.015   6.612 -0.0423 -0.0484 -0.1725
  116OSM    H4S12110   1.708   5.102   6.592 -0.2025 -0.5092 -3.0820
  116OSM    C5S12111   1.554   5.029   6.701 -0.3738  0.2954 -0.9366
  116OSM    H5S12112   1.484   4.948   6.726  1.9266 -1.3679  0.5129
  116OSM    C6S12113   1.553   5.151   6.787 -0.1190 -0.3978 -0.3025
  116OSM    H6S12114   1.478   5.225   6.752  0.0306  0.1969  0.5864
  116OSM    H6T12115   1.634   5.225   6.772 -1.3278  1.1783  0.6574
  116OSM    C7S12116   1.524   5.134   6.946  0.2790  0.8115  0.0213
  116OSM    H7S12117   1.590   5.054   6.985 -1.4726 -0.6448  0.1992
  116OSM    H7T12118   1.420   5.095   6.956  0.7032 -0.4075 -0.1958
  116OSM    C8S12119   1.537   5.263   7.034 -0.2138 -0.2962  0.0541
  116OSM    H8S12120   1.447   5.327   7.026  1.1910  1.8221  0.5271
  116OSM    H8T12121   1.612   5.337   7.000 -2.3756  4.0005  3.6171
  116OSM    C9S12122   1.564   5.248   7.189  1.1885 -0.1345  0.2481
  116OSM    H9S12123   1.549   5.353   7.223 -1.3580  0.2708 -1.7688
  116OSM    H9T12124   1.670   5.217   7.201  1.4676  0.4936 -0.5034
  116OSM   C10S12125   1.459   5.143   7.242  0.7712  0.7707  0.2765
  116OSM   H10S12126   1.480   5.045   7.194  0.8812  1.2907 -0.7688
  116OSM   H10T12127   1.360   5.187   7.216  0.1494  0.5509  2.1381
  116OSM   C11S12128   1.463   5.135   7.397 -0.2398  0.7267 -0.0430
  116OSM   H11S12129   1.423   5.230   7.439 -0.9155  0.9309 -1.1081
  116OSM   H11T12130   1.569   5.124   7.431  0.4611 -0.4965 -2.4017
  116OSM   C12S12131   1.387   5.015   7.450 -0.9939 -0.0949  0.0928
  116OSM   H12S12132   1.402   4.922   7.392  0.5770  1.3185 -1.9171
  116OSM   H12T12133   1.280   5.041   7.433 -1.5570 -3.1722 -1.7195
  116OSM   C13S12134   1.415   4.975   7.598 -0.2694  0.1568 -0.4947
  116OSM   H13S12135   1.425   5.064   7.663  2.8140  0.0785 -0.7017
  116OSM   H13T12136   1.512   4.919   7.601  0.3878  1.3152  1.1755
  116OSM   C14S12137   1.312   4.878   7.663 -0.3293  0.3949  0.1257
  116OSM   H14S12138   1.314   4.794   7.591 -2.0726 -1.2492  1.8766
  116OSM   H14T12139   1.219   4.937   7.657  1.8793  4.3448  0.9916
  116OSM   C15S12140   1.325   4.851   7.813 -0.5310 -0.1008 -0.5156
  116OSM   H15S12141   1.342   4.941   7.877  1.0032 -0.6650 -0.0900
  116OSM   H15T12142   1.413   4.791   7.843 -0.6943 -0.7935 -1.3712
  116OSM   C16S12143   1.199   4.780   7.863  0.2295  0.2220 -1.1460
  116OSM   H16S12144   1.177   4.691   7.799 -1.3252  0.0922 -0.4869
  116OSM   H16T12145   1.104   4.836   7.848 -0.9100 -0.9024  1.3048
  116OSM   C17S12146   1.218   4.733   8.012  0.2747  0.5475 -0.4818
  116OSM   H17S12147   1.244   4.819   8.077 -0.6816  0.5661 -0.1181
  116OSM   H17T12148   1.315   4.679   8.000 -0.2667 -0.5978  0.1805
  116OSM   C18S12149   1.120   4.630   8.066  0.3987  0.6983  0.1375
  116OSM   H18S12150   1.168   4.566   8.143  4.1003  0.2598 -2.2757
  116OSM   H18T12151   1.095   4.558   7.986 -1.4512  3.8576 -2.3776
  116OSM   H18U12152   1.018   4.664   8.094 -1.1191 -2.3268 -1.2534
  116OSM    C1F12153   1.936   4.729   6.737  0.8570 -0.4714 -0.3077
  116OSM     OF12154   2.021   4.726   6.649 -0.3857 -0.4587 -0.1755
  116OSM    C2F12155   1.947   4.692   6.882 -0.5952  0.9729 -0.1590
  116OSM    H2F12156   1.861   4.628   6.911 -0.1214  0.8331  0.9927
  116OSM    H2G12157   1.927   4.778   6.949 -2.5169 -0.6489  1.5017
  116OSM    C3F12158   2.068   4.613   6.924  0.3949  0.6691  0.7965
  116OSM    H3F12159   2.100   4.549   6.839 -0.5575 -0.2417  1.1054
  116OSM    H3G12160   2.040   4.542   7.005 -0.4254 -0.2779 -0.2734
  116OSM    C4F12161   2.186   4.701   6.964  0.4618  0.3374 -0.6593
  116OSM    H4F12162   2.202   4.765   6.875 -0.9776 -0.8331 -1.8055
  116OSM    H4G12163   2.276   4.638   6.981  1.1069  1.2483 -0.6266
  116OSM    C5F12164   2.168   4.780   7.106 -0.2158  0.3542  0.0107
  116OSM    H5F12165   2.073   4.835   7.093  1.1194  2.6312 -0.7066
  116OSM    H5G12166   2.259   4.843   7.115 -0.5339  0.8049  0.0615
  116OSM    C6F12167   2.176   4.681   7.222 -0.3771  0.2756 -0.5713
  116OSM    H6F12168   2.243   4.598   7.192 -1.7394 -0.2741 -2.3027
  116OSM    H6G12169   2.074   4.644   7.245 -0.8353  0.5343 -2.0213
  116OSM    C7F12170   2.232   4.740   7.357 -0.3869 -0.1313  0.4768
  116OSM    H7F12171   2.160   4.810   7.402 -0.9778  0.0005 -0.6352
  116OSM    H7G12172   2.314   4.809   7.329 -0.9377  0.3792  0.1156
  116OSM    C8F12173   2.282   4.634   7.454 -0.4795  0.4047 -0.5201
  116OSM    H8F12174   2.328   4.684   7.542 -0.2289 -1.7430  0.6383
  116OSM    H8G12175   2.367   4.589   7.399 -1.2253 -0.2194 -1.1801
  116OSM    C9F12176   2.171   4.542   7.492  0.0375  0.2877  0.3880
  116OSM    H9F12177   2.171   4.447   7.437  2.0998  1.0956 -1.1009
  116OSM   C10F12178   2.087   4.568   7.596  0.1364  0.1650  0.2414
  116OSM   H10F12179   2.024   4.480   7.616  2.8286 -2.1098 -0.5277
  116OSM   C11F12180   2.073   4.685   7.682 -0.1489 -0.0409 -0.5470
  116OSM   H11F12181   1.966   4.710   7.699 -0.0743  1.1026 -1.5708
  116OSM   H11G12182   2.118   4.766   7.619 -0.0445  0.9490  0.7595
  116OSM   C12F12183   2.148   4.665   7.811 -0.3842 -0.2291  0.0053
  116OSM   H12F12184   2.177   4.762   7.856  0.3448 -0.2148 -0.4813
  116OSM   H12G12185   2.248   4.618   7.801 -0.6691 -0.8298 -0.0998
  116OSM   C13F12186   2.070   4.581   7.916 -0.5361 -0.3472  0.5241
  116OSM   H13F12187   2.036   4.494   7.856  1.5569 -0.8837  0.0385
  116OSM   H13G12188   1.977   4.633   7.947 -0.3646  0.8588 -0.8721
  116OSM   C14F12189   2.150   4.547   8.042 -0.1668  0.1664  0.6528
  116OSM   H14F12190   2.084   4.494   8.115 -2.0680  1.1690 -0.2643
  116OSM   H14G12191   2.208   4.633   8.082 -0.5918  1.4728 -1.4172
  116OSM   C15F12192   2.265   4.450   8.018 -0.1805  0.1089 -0.0274
  116OSM   H15F12193   2.319   4.484   7.926 -0.8207  0.5117 -0.2600
  116OSM   H15G12194   2.220   4.358   7.973  3.1276 -1.2486 -0.9050
  116OSM   C16F12195   2.351   4.419   8.148 -0.1710 -0.1887  0.0667
  116OSM   H16F12196   2.430   4.496   8.161  1.0179 -1.2595 -0.6266
  116OSM   H16G12197   2.411   4.329   8.123  0.7961 -0.1607  2.0548
  116OSM   C17F12198   2.281   4.393   8.279 -0.6526  0.2883  0.3906
  116OSM   H17F12199   2.210   4.313   8.249 -0.7922  0.4981  0.1576
  116OSM   H17G12200   2.208   4.471   8.309 -1.4073 -0.2658  0.0268
  116OSM   C18F12201   2.386   4.359   8.382  0.7358  0.0615 -0.2134
  116OSM   H18F12202   2.464   4.437   8.393  0.3674  0.3478  0.4089
  116OSM   H18G12203   2.443   4.268   8.354 -0.7097 -0.3702 -2.0103
  116OSM   H18H12204   2.344   4.339   8.483  1.9162  0.8448  0.4485
  117OSM      N12205   1.890   0.311   6.137  0.2344  0.9807 -0.3083
  117OSM    C1512206   1.968   0.300   6.019  0.0070  0.1285  0.0402
  117OSM   H15A12207   2.071   0.271   6.030  0.3265  0.7291 -1.2372
  117OSM   H15B12208   1.967   0.396   5.970  1.2931  0.3080  0.3542
  117OSM   H15C12209   1.924   0.233   5.945  0.5246  0.8594 -0.9528
  117OSM    C1412210   1.752   0.310   6.096 -0.4104 -0.4909 -0.1184
  117OSM   H14A12211   1.692   0.272   6.177 -0.0141  0.1800  0.4942
  117OSM   H14B12212   1.729   0.260   6.003 -4.1187 -0.3357  0.5589
  117OSM   H14C12213   1.718   0.411   6.077  2.7656  0.5318 -0.9572
  117OSM    C1312214   1.915   0.194   6.230 -0.1115  0.2278 -1.0117
  117OSM   H13A12215   1.896   0.109   6.166  0.1472 -0.8634  0.3051
  117OSM   H13B12216   1.845   0.194   6.311  0.7510 -0.1478 -0.2477
  117OSM   H13C12217   2.018   0.179   6.259  0.3998 -0.3719 -2.9761
  117OSM    C1212218   1.918   0.444   6.215  0.4495  0.2097  0.8431
  117OSM   H12A12219   2.013   0.439   6.268  1.2548  0.2553 -0.5533
  117OSM   H12B12220   1.840   0.451   6.289 -2.2254  2.6119 -1.9443
  117OSM    C1112221   1.916   0.578   6.127  0.6600  0.6996  0.1383
  117OSM   H11A12222   1.992   0.577   6.045  2.2933 -2.7829  1.5105
  117OSM   H11B12223   1.938   0.657   6.202  0.9985  1.0267 -0.2978
  117OSM      P12224   1.686   0.710   6.087  0.1870 -0.4126  0.0081
  117OSM    O1312225   1.726   0.839   6.031 -0.5567 -0.1784 -0.5986
  117OSM    O1412226   1.554   0.667   6.042 -0.4136 -0.1106  0.2068
  117OSM    O1112227   1.687   0.719   6.246  0.7855  0.2097 -0.1573
  117OSM    O1212228   1.786   0.596   6.072 -0.0614 -0.1084  0.2565
  117OSM    C1S12229   1.624   0.619   6.330 -0.3328 -0.0965 -0.4290
  117OSM    H1S12230   1.702   0.542   6.348 -0.8740 -0.0750  2.5876
  117OSM    H1T12231   1.535   0.569   6.287 -0.8927  0.9036 -0.4625
  117OSM     NF12232   1.521   0.576   6.557  0.2469  0.3084 -0.0571
  117OSM    HNF12233   1.423   0.562   6.555  0.0456  1.3364  0.9855
  117OSM    C2S12234   1.577   0.676   6.465 -0.6612  0.1486  0.3420
  117OSM    H2S12235   1.661   0.734   6.509  0.1925 -0.0393 -0.9740
  117OSM    C3S12236   1.467   0.787   6.434 -0.4149 -0.3465  0.2315
  117OSM    H3S12237   1.392   0.735   6.371  0.3449  0.2079 -1.1844
  117OSM     O312238   1.525   0.884   6.350  0.0804 -0.3519  0.0112
  117OSM    HO312239   1.610   0.853   6.321 -0.1239 -1.3609  0.4335
  117OSM    C4S12240   1.405   0.844   6.552  0.1786  0.4231 -0.2524
  117OSM    H4S12241   1.303   0.802   6.556  0.4740 -0.3540 -0.7343
  117OSM    C5S12242   1.442   0.945   6.641 -0.2041 -0.2615  0.2631
  117OSM    H5S12243   1.532   1.003   6.619 -0.1625 -0.4130  0.0359
  117OSM    C6S12244   1.366   1.008   6.754  0.2989  0.3610  0.0918
  117OSM    H6S12245   1.257   0.987   6.749  0.3905  0.0821 -1.1169
  117OSM    H6T12246   1.371   1.118   6.746  0.6764  0.3640  0.3527
  117OSM    C7S12247   1.434   0.973   6.885 -0.2142 -0.3424 -0.3648
  117OSM    H7S12248   1.544   0.985   6.891 -0.2684  0.8277 -1.3919
  117OSM    H7T12249   1.415   0.865   6.902  1.0958 -0.3912  1.0034
  117OSM    C8S12250   1.370   1.053   6.994 -0.2041  0.2123  0.1200
  117OSM    H8S12251   1.264   1.032   7.020  0.4288 -1.6416  1.4854
  117OSM    H8T12252   1.372   1.160   6.966  1.6102  0.2836  0.4038
  117OSM    C9S12253   1.435   1.024   7.135  0.1924 -0.1574 -0.9027
  117OSM    H9S12254   1.546   1.021   7.133  0.2103 -1.1245  0.1186
  117OSM    H9T12255   1.410   0.919   7.164  0.4590  0.3573  1.4121
  117OSM   C10S12256   1.381   1.124   7.241  0.0748 -0.3242  0.0557
  117OSM   H10S12257   1.272   1.109   7.227  0.2986  0.2760 -3.1612
  117OSM   H10T12258   1.393   1.229   7.207 -0.1263  0.3726  1.9798
  117OSM   C11S12259   1.431   1.091   7.383 -0.6008  0.1701 -0.4469
  117OSM   H11S12260   1.536   1.126   7.380 -0.6291  0.1701 -2.0698
  117OSM   H11T12261   1.455   0.983   7.395  1.8627  0.2312 -3.5407
  117OSM   C12S12262   1.355   1.149   7.509 -0.8590  0.2828  0.0062
  117OSM   H12S12263   1.263   1.087   7.506  0.5810 -1.9568 -0.0344
  117OSM   H12T12264   1.345   1.258   7.492  0.8934  0.3965 -0.5460
  117OSM   C13S12265   1.437   1.115   7.634  0.0383  0.5533 -0.6852
  117OSM   H13S12266   1.533   1.170   7.620  2.2695 -2.6660  0.7504
  117OSM   H13T12267   1.464   1.008   7.628 -0.7612  0.3200 -0.1535
  117OSM   C14S12268   1.373   1.132   7.770  0.3269  0.2822  0.2036
  117OSM   H14S12269   1.441   1.099   7.851 -0.8905 -0.3850  0.9790
  117OSM   H14T12270   1.293   1.054   7.776  0.3931 -0.3711 -4.2446
  117OSM   C15S12271   1.318   1.273   7.798 -0.7647  0.3716  0.1925
  117OSM   H15S12272   1.261   1.317   7.714 -0.1790 -0.4241 -0.6516
  117OSM   H15T12273   1.417   1.321   7.816  1.8104 -3.1833 -2.8568
  117OSM   C16S12274   1.232   1.269   7.922  0.1125  0.1730  0.1883
  117OSM   H16S12275   1.155   1.190   7.911  0.1568  0.0834  0.5146
  117OSM   H16T12276   1.177   1.366   7.928  0.3632  0.2673  1.0824
  117OSM   C17S12277   1.312   1.254   8.061  0.5631 -0.0145 -0.0025
  117OSM   H17S12278   1.381   1.341   8.072 -0.8062  1.1154  0.0224
  117OSM   H17T12279   1.369   1.160   8.050 -1.8592 -1.6214  0.6012
  117OSM   C18S12280   1.221   1.264   8.192 -0.4178 -0.5514  0.1350
  117OSM   H18S12281   1.285   1.205   8.261  1.3192  1.7326  0.6205
  117OSM   H18T12282   1.118   1.226   8.176 -0.8362  0.8034 -0.5122
  117OSM   H18U12283   1.216   1.369   8.227 -0.9596  0.0539 -1.6281
  117OSM    C1F12284   1.600   0.491   6.613 -0.0891 -0.2072 -0.9656
  117OSM     OF12285   1.719   0.498   6.602 -0.6967  0.7257  1.0179
  117OSM    C2F12286   1.534   0.386   6.697  0.5538  0.7223  0.3222
  117OSM    H2F12287   1.523   0.298   6.630  2.0386 -0.3188  1.3829
  117OSM    H2G12288   1.431   0.419   6.725  0.8796  1.3941  0.7274
  117OSM    C3F12289   1.619   0.360   6.820 -0.5511  0.6966  0.0415
  117OSM    H3F12290   1.633   0.449   6.885  0.5331  0.9677 -0.5454
  117OSM    H3G12291   1.717   0.318   6.790  0.6150  0.2482  3.8757
  117OSM    C4F12292   1.574   0.238   6.911 -0.3006 -0.5168  0.5116
  117OSM    H4F12293   1.571   0.143   6.852 -2.5614  0.1551 -0.5494
  117OSM    H4G12294   1.467   0.249   6.938 -0.1918 -0.3196  0.8630
  117OSM    C5F12295   1.666   0.207   7.028 -0.4401 -0.1822 -0.4335
  117OSM    H5F12296   1.771   0.204   6.993 -0.2330  2.9089 -0.3549
  117OSM    H5G12297   1.632   0.113   7.076 -2.6461 -0.0867 -1.6652
  117OSM    C6F12298   1.658   0.328   7.128  0.1472 -0.4060  0.0749
  117OSM    H6F12299   1.551   0.345   7.152 -0.4313 -1.1436 -1.7584
  117OSM    H6G12300   1.701   0.427   7.101 -2.9104  1.9166  2.8744
  117OSM    C7F12301   1.740   0.287   7.262  0.1168  0.1561  0.2299
  117OSM    H7F12302   1.840   0.255   7.225  1.3038  4.5833 -1.1138
  117OSM    H7G12303   1.693   0.192   7.295  1.2779 -1.1760 -1.7212
  117OSM    C8F12304   1.737   0.398   7.365 -0.3748  0.5205 -0.1972
  117OSM    H8F12305   1.740   0.502   7.328  0.2796  0.3448 -0.6575
  117OSM    H8G12306   1.824   0.398   7.435  0.5567  0.6050 -1.3222
  117OSM    C9F12307   1.607   0.383   7.444 -0.7442 -0.8277  0.5215
  117OSM    H9F12308   1.517   0.360   7.386 -0.7547 -0.9299  0.5772
  117OSM   C10F12309   1.596   0.375   7.579 -0.1767 -1.0005  0.2914
  117OSM   H10F12310   1.495   0.373   7.621 -0.5686 -0.1887 -0.5944
  117OSM   C11F12311   1.713   0.412   7.671  0.3856 -0.3063  0.4180
  117OSM   H11F12312   1.763   0.507   7.642  0.5081 -0.1892  0.9919
  117OSM   H11G12313   1.790   0.333   7.662  1.6819  0.6578  2.3122
  117OSM   C12F12314   1.686   0.421   7.819 -0.5751  0.4844 -0.4092
  117OSM   H12F12315   1.649   0.326   7.863 -0.9710  0.1257 -1.4972
  117OSM   H12G12316   1.617   0.506   7.836 -0.2876  0.5566  0.4356
  117OSM   C13F12317   1.807   0.464   7.910 -0.6441 -0.4628  0.2056
  117OSM   H13F12318   1.819   0.570   7.881  2.7167 -0.2919  1.7151
  117OSM   H13G12319   1.906   0.420   7.885 -0.2721  0.2486  0.4140
  117OSM   C14F12320   1.766   0.450   8.054  0.6910  0.5955  0.3068
  117OSM   H14F12321   1.855   0.466   8.119  0.1742  1.4522  0.8235
  117OSM   H14G12322   1.727   0.347   8.068  1.5420  0.0310 -1.1882
  117OSM   C15F12323   1.659   0.545   8.100  0.1315  0.4912  0.5724
  117OSM   H15F12324   1.567   0.526   8.041  0.0614 -0.7509  1.0567
  117OSM   H15G12325   1.694   0.648   8.076  1.3728 -0.5122 -2.3584
  117OSM   C16F12326   1.626   0.516   8.257 -0.5574 -0.3939  0.2391
  117OSM   H16F12327   1.613   0.406   8.270 -0.7390 -0.2430  1.4486
  117OSM   H16G12328   1.529   0.567   8.276 -1.2679 -0.9001 -1.7161
  117OSM   C17F12329   1.728   0.565   8.350 -0.3053  0.5891 -0.6373
  117OSM   H17F12330   1.828   0.518   8.336 -1.0483 -0.6729 -2.0223
  117OSM   H17G12331   1.747   0.672   8.329  0.5517  0.7579  0.8387
  117OSM   C18F12332   1.690   0.543   8.499 -0.1479  0.3126  0.1668
  117OSM   H18F12333   1.645   0.443   8.517 -2.0683  0.8093 -1.4876
  117OSM   H18G12334   1.618   0.624   8.525 -0.9941 -0.8755  1.6773
  117OSM   H18H12335   1.780   0.550   8.563  0.3267 -1.0996 -0.3124
  118OSM      N12336   4.325   3.707   6.223 -0.7700 -0.3951  0.2699
  118OSM    C1512337   4.290   3.680   6.078 -0.6472  0.2990 -0.1949
  118OSM   H15A12338   4.197   3.627   6.073 -0.1472 -1.0642  2.8640
  118OSM   H15B12339   4.366   3.616   6.036 -0.4475 -0.0679  0.7073
  118OSM   H15C12340   4.282   3.778   6.032 -3.4159  0.7496  1.0583
  118OSM    C1412341   4.376   3.575   6.283  0.1216  0.0897 -0.5212
  118OSM   H14A12342   4.428   3.498   6.229  0.1613 -2.3679  2.6758
  118OSM   H14B12343   4.292   3.517   6.316  0.3647  0.0526  0.0497
  118OSM   H14C12344   4.428   3.593   6.376  0.2107 -2.4784  0.0064
  118OSM    C1312345   4.442   3.796   6.230 -0.2005  0.6784 -0.4453
  118OSM   H13A12346   4.516   3.739   6.175 -0.7173 -2.7385  2.0544
  118OSM   H13B12347   4.477   3.815   6.330 -4.9485 -0.6414  1.7616
  118OSM   H13C12348   4.423   3.890   6.181  0.5047  0.3266 -1.4390
  118OSM    C1212349   4.218   3.761   6.312  0.2320  0.0807  1.2504
  118OSM   H12A12350   4.185   3.854   6.267  1.6377  2.2471  4.3489
  118OSM   H12B12351   4.268   3.804   6.397  1.3116 -1.3228  1.3564
  118OSM    C1112352   4.095   3.676   6.342  0.5071 -0.5538 -0.3666
  118OSM   H11A12353   4.041   3.740   6.415  1.6675  0.2511 -0.1856
  118OSM   H11B12354   4.133   3.588   6.398 -1.8979  0.1199  2.6205
  118OSM      P12355   3.980   3.527   6.174 -0.3521  0.4380 -0.0230
  118OSM    O1312356   3.854   3.544   6.101 -0.7456 -0.1171 -0.1052
  118OSM    O1412357   4.086   3.463   6.093  0.0695 -0.3847  0.1136
  118OSM    O1112358   3.957   3.439   6.299 -0.3161 -0.4198  0.1789
  118OSM    O1212359   4.019   3.667   6.219 -0.2956 -0.0446 -1.0950
  118OSM    C1S12360   4.027   3.325   6.335 -0.0216 -0.1351 -0.4601
  118OSM    H1S12361   4.137   3.337   6.327 -0.1213  1.8879  0.4507
  118OSM    H1T12362   3.992   3.247   6.265  2.6089 -0.4979 -1.4599
  118OSM     NF12363   4.084   3.177   6.529  0.1836 -0.7091  0.1784
  118OSM    HNF12364   4.052   3.083   6.538 -1.6792 -0.0918  0.4814
  118OSM    C2S12365   3.999   3.287   6.490 -0.0353 -0.1733 -0.1148
  118OSM    H2S12366   4.024   3.376   6.551  0.4645 -0.7264  0.4999
  118OSM    C3S12367   3.852   3.257   6.517 -0.1169  0.1443 -0.2956
  118OSM    H3S12368   3.842   3.171   6.448 -0.5983 -0.6024  0.6725
  118OSM     O312369   3.776   3.372   6.486 -0.3361 -0.4271 -0.0769
  118OSM    HO312370   3.839   3.415   6.427  0.4228 -0.6797  0.5250
  118OSM    C4S12371   3.833   3.207   6.649  0.3806  0.0587  0.8079
  118OSM    H4S12372   3.815   3.098   6.646 -1.5093  0.3030 -2.9617
  118OSM    C5S12373   3.822   3.281   6.763  0.3153  0.7948 -0.1977
  118OSM    H5S12374   3.841   3.390   6.763  1.7284  0.5707 -0.2643
  118OSM    C6S12375   3.796   3.225   6.898 -0.2608 -0.7960  0.0220
  118OSM    H6S12376   3.717   3.289   6.941 -0.3392  0.4471 -1.8758
  118OSM    H6T12377   3.887   3.246   6.959 -1.4973 -0.2661  1.7555
  118OSM    C7S12378   3.761   3.077   6.914 -0.6521  0.3409  0.0967
  118OSM    H7S12379   3.830   3.014   6.854 -0.1354  0.5060  0.5059
  118OSM    H7T12380   3.664   3.080   6.860 -1.0152  0.5471  0.7461
  118OSM    C8S12381   3.758   3.036   7.057 -0.0465 -0.1437  0.0307
  118OSM    H8S12382   3.694   3.106   7.115  1.2704 -0.2604  1.6974
  118OSM    H8T12383   3.862   3.035   7.096 -0.2925 -2.7069  0.7997
  118OSM    C9S12384   3.709   2.893   7.091 -0.5564  0.2253 -0.2715
  118OSM    H9S12385   3.779   2.815   7.055 -0.6651  0.2399 -0.5202
  118OSM    H9T12386   3.610   2.864   7.048 -1.7216 -0.0643  2.3810
  118OSM   C10S12387   3.706   2.845   7.244 -0.8631 -0.0854  0.4233
  118OSM   H10S12388   3.686   2.736   7.241  3.1294 -0.9673 -1.1038
  118OSM   H10T12389   3.627   2.896   7.302  1.3839  3.0599  0.9956
  118OSM   C11S12390   3.832   2.869   7.320 -0.4762  0.1066 -0.2471
  118OSM   H11S12391   3.831   2.975   7.353 -0.1723  0.3590 -1.0241
  118OSM   H11T12392   3.918   2.845   7.254  0.2863  0.0934  0.7261
  118OSM   C12S12393   3.827   2.791   7.455 -0.0709  1.0601 -1.2077
  118OSM   H12S12394   3.844   2.685   7.426 -1.3471  0.6412 -0.4966
  118OSM   H12T12395   3.720   2.799   7.486 -0.1676  0.2650 -1.3219
  118OSM   C13S12396   3.920   2.849   7.556  0.0674  0.3516 -0.1259
  118OSM   H13S12397   3.907   2.959   7.552  1.5504  0.5624  0.1834
  118OSM   H13T12398   4.026   2.818   7.540 -0.6664 -0.9500 -3.2755
  118OSM   C14S12399   3.870   2.809   7.688  0.1256  0.1172 -0.1042
  118OSM   H14S12400   3.907   2.705   7.699  1.4603  0.2013 -2.9309
  118OSM   H14T12401   3.760   2.800   7.693 -0.1258  1.6057 -1.8538
  118OSM   C15S12402   3.936   2.883   7.797 -0.1119 -0.3865  0.4811
  118OSM   H15S12403   3.899   2.987   7.810  1.9394  0.3685  0.6333
  118OSM   H15T12404   4.043   2.889   7.769 -0.2229 -1.0345 -0.1048
  118OSM   C16S12405   3.927   2.818   7.933 -0.3044  0.4411 -0.0899
  118OSM   H16S12406   3.989   2.726   7.942 -0.2993  0.2809 -1.6263
  118OSM   H16T12407   3.826   2.777   7.955 -0.2637  2.3116  5.2123
  118OSM   C17S12408   3.970   2.903   8.053 -0.6315 -0.3897  0.6024
  118OSM   H17S12409   3.885   2.963   8.092 -1.7540 -0.4068 -1.6286
  118OSM   H17T12410   4.049   2.971   8.014  0.0925 -3.2287 -3.6265
  118OSM   C18S12411   4.034   2.825   8.174  0.6085 -0.5765  0.8414
  118OSM   H18S12412   4.030   2.886   8.267  1.0019 -1.4306  1.4336
  118OSM   H18T12413   4.138   2.793   8.150  0.5026 -2.9784  3.1061
  118OSM   H18U12414   3.974   2.732   8.189  0.0826 -0.2779  0.6131
  118OSM    C1F12415   4.207   3.201   6.549 -0.6889  0.9744  0.3001
  118OSM     OF12416   4.263   3.309   6.518 -0.1398  0.2890  0.0059
  118OSM    C2F12417   4.285   3.085   6.606 -0.2354  0.9684 -0.4722
  118OSM    H2F12418   4.367   3.066   6.534 -0.8552 -0.6497 -0.7922
  118OSM    H2G12419   4.222   2.994   6.609  0.2309  0.6302 -0.9203
  118OSM    C3F12420   4.344   3.111   6.750 -0.5191  0.0279 -0.1166
  118OSM    H3F12421   4.399   3.207   6.752 -1.7784  0.7626  0.4827
  118OSM    H3G12422   4.419   3.034   6.777  0.4017  0.8042 -0.4016
  118OSM    C4F12423   4.233   3.114   6.860 -0.6686 -0.4329  0.2370
  118OSM    H4F12424   4.187   3.014   6.867 -0.7936 -0.4095 -0.2189
  118OSM    H4G12425   4.161   3.185   6.814 -0.2973  1.0599  1.8505
  118OSM    C5F12426   4.285   3.170   6.994  0.0750  0.7893  0.0192
  118OSM    H5F12427   4.322   3.275   6.985  0.0195  0.9265  1.2549
  118OSM    H5G12428   4.371   3.116   7.038  0.4483  1.9574  0.7771
  118OSM    C6F12429   4.174   3.151   7.096  0.6279  0.3247 -0.4519
  118OSM    H6F12430   4.139   3.045   7.104  0.1847  0.5061  0.0753
  118OSM    H6G12431   4.089   3.216   7.065  1.1607  0.5307 -1.5391
  118OSM    C7F12432   4.210   3.196   7.241  0.1447 -0.6917  0.6985
  118OSM    H7F12433   4.220   3.306   7.228 -0.0188 -0.8290 -0.8014
  118OSM    H7G12434   4.311   3.163   7.271  0.1035 -1.9985 -0.4830
  118OSM    C8F12435   4.102   3.162   7.345 -0.1702 -0.1822  0.0470
  118OSM    H8F12436   4.100   3.052   7.363  1.8678 -0.4633 -1.0510
  118OSM    H8G12437   4.006   3.203   7.307 -0.9089 -0.3314  1.6720
  118OSM    C9F12438   4.111   3.241   7.470 -0.5575 -0.3550 -1.3244
  118OSM    H9F12439   4.032   3.315   7.491 -1.3332 -1.1751 -1.2523
  118OSM   C10F12440   4.186   3.203   7.577 -0.0206 -1.0524  0.3581
  118OSM   H10F12441   4.180   3.263   7.669  1.4989 -0.2346 -0.0427
  118OSM   C11F12442   4.287   3.083   7.572  0.0323  0.0105  0.9837
  118OSM   H11F12443   4.385   3.106   7.526  0.7228 -1.0928  1.8607
  118OSM   H11G12444   4.231   3.001   7.523 -0.1830  0.6834  0.0566
  118OSM   C12F12445   4.314   3.044   7.715 -0.1818 -0.2931 -0.0948
  118OSM   H12F12446   4.214   3.028   7.761 -0.6394  3.7199  0.6336
  118OSM   H12G12447   4.364   3.121   7.777 -2.1235 -0.3616  1.6870
  118OSM   C13F12448   4.404   2.919   7.702  0.2531 -0.3850 -0.2934
  118OSM   H13F12449   4.508   2.958   7.697  0.7446 -1.5376  0.5807
  118OSM   H13G12450   4.387   2.867   7.605  1.8871 -3.2275  0.8403
  118OSM   C14F12451   4.402   2.803   7.809  0.2622  0.3404  0.8502
  118OSM   H14F12452   4.312   2.737   7.806 -0.4565  1.2309 -2.5900
  118OSM   H14G12453   4.414   2.845   7.911 -1.3415  1.0701  0.7780
  118OSM   C15F12454   4.530   2.713   7.786  0.2671  0.0084 -0.0501
  118OSM   H15F12455   4.622   2.773   7.798  1.4144 -1.8913  1.2015
  118OSM   H15G12456   4.524   2.684   7.679  0.1565  3.0834 -0.9617
  118OSM   C16F12457   4.540   2.583   7.870  0.6823  0.2585 -0.1137
  118OSM   H16F12458   4.626   2.523   7.836 -0.0739 -0.2189 -1.2599
  118OSM   H16G12459   4.443   2.529   7.876 -0.4880  2.0885 -1.4056
  118OSM   C17F12460   4.579   2.611   8.015 -0.4144  0.4421  0.1685
  118OSM   H17F12461   4.497   2.664   8.067 -0.1930  0.4250  0.5399
  118OSM   H17G12462   4.663   2.683   8.014 -0.4034  0.5211 -2.8360
  118OSM   C18F12463   4.604   2.487   8.105 -0.0269  0.1835  0.3427
  118OSM   H18F12464   4.700   2.436   8.084 -0.6229 -0.9538  0.2633
  118OSM   H18G12465   4.531   2.404   8.115  0.4314 -0.1813  0.7083
  118OSM   H18H12466   4.613   2.526   8.209  0.4184  0.3485  0.2432
  119OSM      N12467   5.207   1.656   5.812 -0.5218  0.6825  0.4932
  119OSM    C1512468   5.362   1.634   5.808  0.0479  0.1353  0.2678
  119OSM   H15A12469   5.372   1.531   5.838 -3.7077 -0.8297 -1.1279
  119OSM   H15B12470   5.418   1.707   5.864 -1.1021 -0.2907  2.0617
  119OSM   H15C12471   5.402   1.622   5.709 -0.1840 -2.1059  0.4063
  119OSM    C1412472   5.175   1.799   5.786 -0.8299  0.1567 -0.2278
  119OSM   H14A12473   5.201   1.861   5.870 -0.6571 -1.9012  1.3231
  119OSM   H14B12474   5.069   1.809   5.765 -1.2318 -0.9256  1.1112
  119OSM   H14C12475   5.232   1.833   5.701 -0.7291  1.0136  0.1783
  119OSM    C1312476   5.161   1.569   5.697  0.8075 -0.8188  0.1185
  119OSM   H13A12477   5.054   1.561   5.701  0.8040 -0.1937  2.1597
  119OSM   H13B12478   5.198   1.469   5.715  0.5987 -0.7877  0.7447
  119OSM   H13C12479   5.193   1.607   5.601 -1.4320 -2.9384 -1.5881
  119OSM    C1212480   5.143   1.607   5.935 -1.5071  0.3004 -0.1919
  119OSM   H12A12481   5.042   1.643   5.924 -0.9062  1.5223 -2.4839
  119OSM   H12B12482   5.188   1.650   6.023 -2.4698 -0.0287  0.4765
  119OSM    C1112483   5.130   1.455   5.970 -0.0154 -0.1880 -0.3951
  119OSM   H11A12484   5.054   1.420   5.897  1.8595  0.9329 -3.0479
  119OSM   H11B12485   5.081   1.451   6.070 -0.3530  0.3235 -0.5315
  119OSM      P12486   5.242   1.227   5.902 -0.1986 -0.0906  0.5418
  119OSM    O1312487   5.188   1.229   5.763  0.5651  0.1087  0.0030
  119OSM    O1412488   5.374   1.158   5.921  0.0715  0.5422  0.5122
  119OSM    O1112489   5.138   1.159   6.004  0.0484  0.4699 -0.0351
  119OSM    O1212490   5.250   1.377   5.959 -0.2730  0.0219 -0.2046
  119OSM    C1S12491   5.162   1.141   6.141  0.4690 -0.7862 -0.3807
  119OSM    H1S12492   5.257   1.191   6.169 -0.0059  0.4182 -0.8720
  119OSM    H1T12493   5.171   1.031   6.155  1.1457 -0.7950 -0.8540
  119OSM     NF12494   5.090   1.196   6.368 -0.0941 -0.2341 -0.5594
  119OSM    HNF12495   5.071   1.113   6.419 -0.4151  1.0249  1.4584
  119OSM    C2S12496   5.051   1.198   6.234  0.9882 -0.0557  0.5482
  119OSM    H2S12497   5.034   1.305   6.207 -0.5510 -0.0431  1.5238
  119OSM    C3S12498   4.913   1.133   6.190 -0.3036  0.1071 -0.3453
  119OSM    H3S12499   4.936   1.026   6.169 -0.0474  0.0861  0.0408
  119OSM     O312500   4.864   1.191   6.071  0.2917 -0.5566  0.4008
  119OSM    HO312501   4.940   1.242   6.043  1.3751 -1.6693  1.2351
  119OSM    C4S12502   4.818   1.128   6.300  0.6848 -0.5075 -0.4814
  119OSM    H4S12503   4.814   1.029   6.348 -0.3022  0.0668  0.6727
  119OSM    C5S12504   4.722   1.215   6.349  0.5029  0.2026 -0.0973
  119OSM    H5S12505   4.713   1.316   6.307  1.8434 -0.9769 -3.6081
  119OSM    C6S12506   4.627   1.177   6.462 -0.5244  0.3473 -0.1024
  119OSM    H6S12507   4.601   1.069   6.464  0.1744  0.1252 -1.6322
  119OSM    H6T12508   4.537   1.240   6.451 -1.1339 -0.4173  0.3785
  119OSM    C7S12509   4.714   1.212   6.591 -0.1294 -0.2641 -0.1562
  119OSM    H7S12510   4.728   1.322   6.591  1.5792 -0.4378 -1.5574
  119OSM    H7T12511   4.810   1.157   6.602  0.6652 -0.0255 -4.1897
  119OSM    C8S12512   4.629   1.181   6.716 -0.0147 -0.0278 -0.5465
  119OSM    H8S12513   4.591   1.077   6.719  0.0832 -0.0427  0.6357
  119OSM    H8T12514   4.539   1.246   6.719 -0.5208 -0.5979  3.9741
  119OSM    C9S12515   4.712   1.204   6.849  0.0315 -0.0192  0.2713
  119OSM    H9S12516   4.718   1.310   6.883 -1.4184 -0.7698  3.1786
  119OSM    H9T12517   4.813   1.168   6.822 -0.2683  0.0347 -0.9911
  119OSM   C10S12518   4.662   1.112   6.958 -0.0777  0.3597 -0.3808
  119OSM   H10S12519   4.689   1.005   6.945 -0.5376  0.3614 -1.3901
  119OSM   H10T12520   4.552   1.124   6.964 -0.0551  0.9342 -0.9979
  119OSM   C11S12521   4.710   1.156   7.097 -0.5790 -0.2277  0.6939
  119OSM   H11S12522   4.653   1.247   7.124 -0.2523  0.3282 -0.4317
  119OSM   H11T12523   4.814   1.195   7.094 -1.1575  1.4105 -2.3191
  119OSM   C12S12524   4.694   1.045   7.201 -0.3647 -0.2803  0.0984
  119OSM   H12S12525   4.793   0.995   7.212 -0.4204 -0.0392  1.8617
  119OSM   H12T12526   4.609   0.976   7.181  0.0169 -0.6331 -0.3426
  119OSM   C13S12527   4.689   1.098   7.349 -0.2363  0.3187 -0.1212
  119OSM   H13S12528   4.613   1.179   7.349  0.8403  1.5021 -3.2629
  119OSM   H13T12529   4.784   1.155   7.364 -0.6151  1.7118 -2.5516
  119OSM   C14S12530   4.669   0.980   7.455 -0.4033  0.1033 -0.4499
  119OSM   H14S12531   4.755   0.912   7.439  2.0849  2.4757  1.8079
  119OSM   H14T12532   4.577   0.920   7.436  0.5753 -1.9203  0.8976
  119OSM   C15S12533   4.657   1.024   7.604  0.5376  0.0424 -0.1844
  119OSM   H15S12534   4.550   1.044   7.626  0.0261 -2.6091  0.0586
  119OSM   H15T12535   4.716   1.117   7.611  1.7631 -0.8177  1.6784
  119OSM   C16S12536   4.707   0.917   7.698 -0.8358 -0.1080 -0.0962
  119OSM   H16S12537   4.739   0.969   7.791  1.5376 -0.5700 -0.5853
  119OSM   H16T12538   4.799   0.866   7.662  0.6994  0.5441  2.6272
  119OSM   C17S12539   4.600   0.813   7.755 -0.6626  0.3499 -0.7349
  119OSM   H17S12540   4.542   0.777   7.668 -0.9463  1.1043 -0.8658
  119OSM   H17T12541   4.528   0.878   7.808  0.8944  1.8950 -0.4074
  119OSM   C18S12542   4.667   0.699   7.837 -0.2362 -0.4736  0.2795
  119OSM   H18S12543   4.720   0.748   7.922 -0.4174 -4.4220  2.9140
  119OSM   H18T12544   4.740   0.641   7.776 -1.8148 -1.1705 -1.0058
  119OSM   H18U12545   4.601   0.622   7.881 -0.3541  0.2504  1.4028
  119OSM    C1F12546   5.181   1.282   6.420  0.3029 -0.1159 -0.1858
  119OSM     OF12547   5.238   1.365   6.353  0.8212  0.1576  0.3010
  119OSM    C2F12548   5.210   1.279   6.565  0.7278  0.6764 -0.5154
  119OSM    H2F12549   5.315   1.309   6.584  0.7169 -0.2507  1.2526
  119OSM    H2G12550   5.190   1.172   6.585 -0.3203  1.0246  0.4483
  119OSM    C3F12551   5.107   1.353   6.653  0.2437  0.3780  0.4694
  119OSM    H3F12552   5.003   1.332   6.619  0.5889  0.0341 -0.4077
  119OSM    H3G12553   5.119   1.461   6.628 -3.4539  0.5215 -1.3613
  119OSM    C4F12554   5.110   1.316   6.800 -0.5385 -0.5056 -0.1498
  119OSM    H4F12555   5.098   1.206   6.806  2.7379 -0.9326  0.4880
  119OSM    H4G12556   5.035   1.380   6.851  0.9383  0.2948  1.1095
  119OSM    C5F12557   5.244   1.355   6.866  0.0983  0.9045 -0.3655
  119OSM    H5F12558   5.254   1.465   6.879  1.0465  0.7144  0.6083
  119OSM    H5G12559   5.322   1.306   6.803  0.9166 -1.7913  2.5067
  119OSM    C6F12560   5.269   1.294   7.011 -0.3533  0.1609 -0.4005
  119OSM    H6F12561   5.376   1.318   7.030 -0.2287 -0.7396  0.1173
  119OSM    H6G12562   5.259   1.184   7.025 -1.1149  0.5482  2.7740
  119OSM    C7F12563   5.172   1.361   7.115 -0.2994 -0.1675 -0.2111
  119OSM    H7F12564   5.067   1.341   7.084 -0.4486  2.1849 -1.4219
  119OSM    H7G12565   5.185   1.471   7.116 -1.4745  0.0095  2.0265
  119OSM    C8F12566   5.201   1.333   7.263 -0.0444 -0.2563  0.5471
  119OSM    H8F12567   5.151   1.417   7.317 -0.2784  0.2991 -0.4933
  119OSM    H8G12568   5.308   1.361   7.274 -0.0456 -0.7046  1.7531
  119OSM    C9F12569   5.155   1.202   7.315 -0.3071 -0.4060 -1.0388
  119OSM    H9F12570   5.118   1.140   7.232  0.0020 -1.5608 -0.3437
  119OSM   C10F12571   5.178   1.148   7.435 -0.2518  0.1055 -0.5114
  119OSM   H10F12572   5.133   1.049   7.453 -1.1635  0.0714 -2.7528
  119OSM   C11F12573   5.245   1.196   7.560 -0.0383 -0.4639 -0.4224
  119OSM   H11F12574   5.305   1.287   7.542  0.6971 -0.4906  1.6186
  119OSM   H11G12575   5.310   1.119   7.607 -1.8609 -0.1340  2.9499
  119OSM   C12F12576   5.141   1.232   7.659 -0.4791 -0.4492 -0.0266
  119OSM   H12F12577   5.063   1.154   7.678 -0.6755 -0.2176  0.1323
  119OSM   H12G12578   5.085   1.325   7.637  2.0065  0.8268 -1.2717
  119OSM   C13F12579   5.200   1.252   7.793  0.5830  0.7074 -0.3324
  119OSM   H13F12580   5.297   1.304   7.785  0.6441  0.6300 -0.1151
  119OSM   H13G12581   5.239   1.157   7.836  0.6092  0.7190 -0.3304
  119OSM   C14F12582   5.120   1.318   7.909  0.3941 -0.2583 -0.1257
  119OSM   H14F12583   5.035   1.247   7.919  0.5792 -0.7986 -2.0511
  119OSM   H14G12584   5.084   1.420   7.886  3.2600  0.9906  0.4377
  119OSM   C15F12585   5.187   1.344   8.048 -0.1702 -1.1280  0.7107
  119OSM   H15F12586   5.240   1.253   8.085  2.0436  0.5583  1.9228
  119OSM   H15G12587   5.099   1.372   8.110 -0.2002 -2.7842  1.4680
  119OSM   C16F12588   5.286   1.453   8.041  0.8907 -0.8252 -0.1530
  119OSM   H16F12589   5.256   1.540   7.977 -0.1859  1.0634  2.7256
  119OSM   H16G12590   5.385   1.422   8.004  0.8973 -1.2294  0.2051
  119OSM   C17F12591   5.311   1.529   8.171 -0.7183 -0.1472  0.2747
  119OSM   H17F12592   5.333   1.458   8.254  1.4821  0.1647  0.0028
  119OSM   H17G12593   5.220   1.582   8.205 -1.4450 -2.2194  1.7739
  119OSM   C18F12594   5.430   1.625   8.150  0.6722  0.0119 -0.7077
  119OSM   H18F12595   5.416   1.688   8.060 -3.6459 -0.9745 -0.9501
  119OSM   H18G12596   5.522   1.563   8.139 -0.4722 -1.5026 -2.6894
  119OSM   H18H12597   5.451   1.690   8.237  1.0438 -0.3631 -0.5172
  120OSM      N12598   2.088   5.396   6.552 -0.2089 -0.1565  0.2310
  120OSM    C1512599   2.032   5.514   6.626  0.4714  0.2714  0.0501
  120OSM   H15A12600   1.999   5.489   6.726 -1.0585  1.2929 -0.1640
  120OSM   H15B12601   1.942   5.551   6.579  0.5151  0.5669  0.1926
  120OSM   H15C12602   2.109   5.590   6.626  1.3461 -0.5921  0.7976
  120OSM    C1412603   1.970   5.315   6.507  0.4962 -0.2162 -0.3978
  120OSM   H14A12604   1.916   5.285   6.596 -0.9808 -0.6117 -1.3828
  120OSM   H14B12605   2.001   5.223   6.460  2.1147 -0.8657  1.7964
  120OSM   H14C12606   1.909   5.373   6.439  3.1545  1.9820 -1.0416
  120OSM    C1312607   2.164   5.448   6.436 -0.6116 -0.0636  0.1065
  120OSM   H13A12608   2.208   5.362   6.388 -2.8157 -0.8657 -0.6026
  120OSM   H13B12609   2.243   5.516   6.465 -0.5983  0.7297 -1.6723
  120OSM   H13C12610   2.097   5.494   6.364 -0.4498  0.6160  0.3828
  120OSM    C1212611   2.169   5.310   6.646  0.4870 -0.1499 -0.6474
  120OSM   H12A12612   2.203   5.227   6.585 -0.9606 -1.9638  0.8785
  120OSM   H12B12613   2.106   5.265   6.722 -0.2055 -0.3081 -1.2972
  120OSM    C1112614   2.287   5.376   6.719 -0.1390  0.3901  0.5554
  120OSM   H11A12615   2.336   5.296   6.779  0.3930  1.4735  1.5921
  120OSM   H11B12616   2.253   5.449   6.795  1.4960  0.1959  1.5184
  120OSM      P12617   2.475   5.365   6.541 -0.2023 -0.0075  0.2741
  120OSM    O1312618   2.420   5.231   6.513  0.0118  0.1021  0.5062
  120OSM    O1412619   2.507   5.443   6.420  0.2762  0.4300  0.0316
  120OSM    O1112620   2.605   5.334   6.628  0.0801  0.2644  0.1665
  120OSM    O1212621   2.375   5.449   6.627  0.3379  0.9407  0.7593
  120OSM    C1S12622   2.654   5.442   6.708 -0.1223 -0.5132 -0.2544
  120OSM    H1S12623   2.581   5.526   6.708 -2.2534 -2.2138 -2.6190
  120OSM    H1T12624   2.748   5.479   6.661 -1.0083  2.0652 -0.1380
  120OSM     NF12625   2.766   5.509   6.922  0.0979 -0.2285 -0.1670
  120OSM    HNF12626   2.864   5.520   6.912 -0.1161  1.3048 -0.8400
  120OSM    C2S12627   2.697   5.396   6.856 -0.4229 -0.0727 -0.1613
  120OSM    H2S12628   2.604   5.370   6.911  0.4282 -1.1098  0.8511
  120OSM    C3S12629   2.781   5.266   6.855 -0.2416 -0.0380  0.4184
  120OSM    H3S12630   2.874   5.282   6.796 -0.5753 -2.5767 -0.9476
  120OSM     O312631   2.723   5.159   6.780 -0.2166  0.1255 -0.0874
  120OSM    HO312632   2.650   5.195   6.730 -1.7022 -2.3462  0.1136
  120OSM    C4S12633   2.818   5.238   7.000 -0.2916  0.2331 -0.4381
  120OSM    H4S12634   2.896   5.297   7.050  1.8015 -2.6987  0.0291
  120OSM    C5S12635   2.752   5.157   7.087 -0.9569 -0.3693  0.7466
  120OSM    H5S12636   2.657   5.108   7.062 -2.0110  1.9237 -0.0534
  120OSM    C6S12637   2.792   5.138   7.232 -0.0468 -0.7892 -0.5581
  120OSM    H6S12638   2.859   5.218   7.270 -1.9791  0.8181 -0.3929
  120OSM    H6T12639   2.841   5.039   7.238 -0.3718 -1.0770 -2.1740
  120OSM    C7S12640   2.663   5.124   7.311  0.0907 -0.7926 -0.0259
  120OSM    H7S12641   2.596   5.047   7.268  0.7529 -0.8878 -0.9007
  120OSM    H7T12642   2.598   5.214   7.317  1.7994  0.7002 -2.4871
  120OSM    C8S12643   2.702   5.077   7.458 -0.1884  0.0507  1.1163
  120OSM    H8S12644   2.780   5.143   7.501  1.4709 -2.1922  1.7067
  120OSM    H8T12645   2.755   4.980   7.461 -1.0367 -0.4057  2.4378
  120OSM    C9S12646   2.583   5.084   7.550 -0.1476 -0.2835  0.2168
  120OSM    H9S12647   2.491   5.041   7.505 -2.2581  1.8634  2.1768
  120OSM    H9T12648   2.553   5.182   7.593 -1.5235  0.3136 -1.9418
  120OSM   C10S12649   2.603   4.997   7.678  0.3016  0.1580 -0.5848
  120OSM   H10S12650   2.664   5.055   7.751 -0.0433  0.5239 -0.5801
  120OSM   H10T12651   2.662   4.910   7.644  1.3076  0.7608 -0.4366
  120OSM   C11S12652   2.478   4.945   7.744  0.2139  0.0791  0.4317
  120OSM   H11S12653   2.422   4.883   7.670  0.5433 -2.6941  2.3747
  120OSM   H11T12654   2.402   5.020   7.775  1.3064  0.9885  0.9799
  120OSM   C12S12655   2.504   4.847   7.854 -0.3581  0.4221  0.5031
  120OSM   H12S12656   2.575   4.766   7.825 -0.4286  0.4298  0.3052
  120OSM   H12T12657   2.413   4.788   7.874 -0.5677  0.8999  0.9644
  120OSM   C13S12658   2.567   4.895   7.987  1.0691  0.2274  0.5987
  120OSM   H13S12659   2.649   4.960   7.951  2.6727 -1.0300  1.7946
  120OSM   H13T12660   2.617   4.815   8.047  0.6445 -1.2302 -0.9161
  120OSM   C14S12661   2.465   4.952   8.081  0.2138 -0.8369  0.1633
  120OSM   H14S12662   2.374   4.988   8.029  0.5347  0.2984  0.3605
  120OSM   H14T12663   2.503   5.049   8.120 -3.4788  1.6853 -1.8841
  120OSM   C15S12664   2.436   4.847   8.201 -0.4451 -0.1081 -0.7520
  120OSM   H15S12665   2.532   4.804   8.237 -0.6611  1.0006  1.3332
  120OSM   H15T12666   2.365   4.765   8.176  0.0583 -0.4572 -1.0449
  120OSM   C16S12667   2.359   4.920   8.310  0.1615  0.0216 -0.2672
  120OSM   H16S12668   2.257   4.932   8.268 -0.1302 -0.8067  0.1917
  120OSM   H16T12669   2.418   5.013   8.329 -1.7796  1.5941 -1.5088
  120OSM   C17S12670   2.340   4.833   8.434 -0.0707  0.8702  0.0947
  120OSM   H17S12671   2.437   4.830   8.488 -0.0424  1.0850  0.0574
  120OSM   H17T12672   2.313   4.730   8.402  0.8554  0.3529  0.9072
  120OSM   C18S12673   2.237   4.879   8.538 -0.2538  0.9771 -0.1171
  120OSM   H18S12674   2.134   4.906   8.505 -0.7274  1.0783  1.3367
  120OSM   H18T12675   2.272   4.972   8.588 -0.1791  2.1864 -2.2795
  120OSM   H18U12676   2.221   4.794   8.608 -2.8358  2.6955  1.5905
  120OSM    C1F12677   2.684   5.613   6.963 -0.5149 -0.4459 -0.4049
  120OSM     OF12678   2.563   5.599   6.967 -0.0974  0.1582 -0.1706
  120OSM    C2F12679   2.748   5.742   7.009  0.1602  0.7142  0.5941
  120OSM    H2F12680   2.679   5.817   6.964  1.5329  2.7227  1.6524
  120OSM    H2G12681   2.848   5.768   6.968  0.5593  0.5762  1.4555
  120OSM    C3F12682   2.742   5.755   7.167  0.1557 -0.9175  0.0127
  120OSM    H3F12683   2.639   5.737   7.204  0.3312  0.1587  1.0851
  120OSM    H3G12684   2.772   5.858   7.197 -0.2709 -0.4407 -1.1537
  120OSM    C4F12685   2.826   5.656   7.246 -0.2688 -0.3750  0.1987
  120OSM    H4F12686   2.858   5.713   7.336  1.3635 -1.5988  0.4448
  120OSM    H4G12687   2.916   5.629   7.187 -0.2769 -0.3734  0.1858
  120OSM    C5F12688   2.743   5.535   7.292  0.0226 -0.1208 -0.5342
  120OSM    H5F12689   2.796   5.439   7.276 -1.1346 -1.0155  0.7052
  120OSM    H5G12690   2.639   5.535   7.252 -0.7406  3.5894  1.0406
  120OSM    C6F12691   2.719   5.539   7.446 -0.7642 -0.1216  0.1309
  120OSM    H6F12692   2.669   5.444   7.475  0.4345 -0.5636  0.8416
  120OSM    H6G12693   2.661   5.630   7.469  1.4449  0.6185  3.5087
  120OSM    C7F12694   2.848   5.531   7.527  0.5541  0.5396  0.8291
  120OSM    H7F12695   2.924   5.610   7.506 -0.3026  0.8654 -1.2309
  120OSM    H7G12696   2.897   5.433   7.510  0.0106  0.1036  1.7164
  120OSM    C8F12697   2.815   5.545   7.682 -0.3685 -0.0389  0.6787
  120OSM    H8F12698   2.787   5.652   7.692  0.8947  0.3715  0.0531
  120OSM    H8G12699   2.909   5.535   7.742 -0.1992  2.0526  0.8291
  120OSM    C9F12700   2.725   5.440   7.739  0.4495 -0.1282 -0.0398
  120OSM    H9F12701   2.618   5.436   7.712  0.8723 -2.7368 -1.6870
  120OSM   C10F12702   2.763   5.328   7.805 -0.8413 -0.0015 -0.1269
  120OSM   H10F12703   2.683   5.259   7.835 -1.2047 -0.1314 -1.3504
  120OSM   C11F12704   2.900   5.267   7.840 -0.2495 -0.9114 -0.6898
  120OSM   H11F12705   2.979   5.310   7.774 -0.2010 -0.9922 -0.6848
  120OSM   H11G12706   2.904   5.158   7.820 -1.6780 -1.8770  3.3862
  120OSM   C12F12707   2.942   5.287   7.990  0.3573  0.0238 -0.6071
  120OSM   H12F12708   2.920   5.392   8.016 -0.3876 -0.0779 -0.7955
  120OSM   H12G12709   3.052   5.278   7.998  0.3114  0.3194  0.4938
  120OSM   C13F12710   2.878   5.175   8.083 -0.2246 -0.4940 -0.0497
  120OSM   H13F12711   2.787   5.143   8.029  1.2432 -1.4647 -2.0641
  120OSM   H13G12712   2.863   5.225   8.182  3.1772  0.1887  0.2452
  120OSM   C14F12713   2.975   5.060   8.114  1.0252 -0.0799  0.5693
  120OSM   H14F12714   3.057   5.095   8.180  2.1624 -0.6732 -0.4887
  120OSM   H14G12715   3.023   5.017   8.024  1.4240  1.6911 -0.1126
  120OSM   C15F12716   2.893   4.943   8.184 -0.2507  0.6238  0.3557
  120OSM   H15F12717   2.959   4.854   8.182 -1.6833 -0.4948  1.4227
  120OSM   H15G12718   2.809   4.922   8.115  0.2409  0.0299 -0.0797
  120OSM   C16F12719   2.829   4.952   8.324  1.0164  0.2676  0.1080
  120OSM   H16F12720   2.805   4.847   8.352 -0.3375  1.0885  2.2750
  120OSM   H16G12721   2.741   5.020   8.327  2.2099  1.8592  0.3552
  120OSM   C17F12722   2.907   5.011   8.428 -0.0890 -0.4615  0.2611
  120OSM   H17F12723   2.935   5.117   8.408  1.2583 -0.7454  0.5541
  120OSM   H17G12724   3.004   4.958   8.436  0.1242 -0.3697 -1.4282
  120OSM   C18F12725   2.828   5.021   8.557  0.3872  0.0083 -0.1390
  120OSM   H18F12726   2.773   4.926   8.572 -0.5829  0.9803  3.2239
  120OSM   H18G12727   2.751   5.100   8.547 -0.2973 -0.4974  1.0385
  120OSM   H18H12728   2.894   5.052   8.641  0.9262  3.1312 -1.5676
  121OSM      N12729   4.386   1.706   5.562 -0.3774  0.3678  0.1498
  121OSM    C1512730   4.430   1.576   5.633 -0.0153 -0.3305 -0.2491
  121OSM   H15A12731   4.383   1.577   5.730 -0.3841  1.2237 -0.4156
  121OSM   H15B12732   4.535   1.577   5.659  0.1199 -0.7360 -0.7537
  121OSM   H15C12733   4.413   1.484   5.578  1.2934 -0.7353 -0.0207
  121OSM    C1412734   4.395   1.688   5.416  0.4372 -0.1648 -0.0228
  121OSM   H14A12735   4.490   1.654   5.377  0.7797 -1.3011  1.6558
  121OSM   H14B12736   4.362   1.779   5.369 -1.9328 -0.5758  0.7143
  121OSM   H14C12737   4.318   1.621   5.382  0.5753 -0.1502 -0.3671
  121OSM    C1312738   4.239   1.723   5.599 -0.3357  0.2202 -0.0676
  121OSM   H13A12739   4.222   1.752   5.702 -1.7165 -1.8288  0.3397
  121OSM   H13B12740   4.189   1.631   5.573  3.0873 -1.4768 -1.1222
  121OSM   H13C12741   4.195   1.800   5.537 -0.2512  0.0363 -0.3527
  121OSM    C1212742   4.465   1.828   5.604  0.8099 -0.3543  0.5608
  121OSM   H12A12743   4.423   1.919   5.562 -1.3722 -2.0591 -1.2670
  121OSM   H12B12744   4.562   1.811   5.560  0.5482  3.1281 -1.8285
  121OSM    C1112745   4.491   1.857   5.754 -0.1891 -0.1211  0.0398
  121OSM   H11A12746   4.390   1.888   5.787  0.1248 -0.0635  0.9731
  121OSM   H11B12747   4.562   1.943   5.761  1.3227 -1.4191  1.5577
  121OSM      P12748   4.519   1.714   5.976 -0.0592 -0.3534  0.1892
  121OSM    O1312749   4.376   1.689   6.001 -0.1453 -0.9422  0.4430
  121OSM    O1412750   4.615   1.611   6.027 -0.3307  0.1135 -0.2675
  121OSM    O1112751   4.546   1.860   6.030 -0.0506 -0.0259  0.2304
  121OSM    O1212752   4.548   1.745   5.819  0.0855  0.0091 -0.3796
  121OSM    C1S12753   4.451   1.946   6.100 -0.0777  0.6519  0.7272
  121OSM    H1S12754   4.354   1.894   6.113  0.3373 -0.6608 -1.0203
  121OSM    H1T12755   4.424   2.030   6.034  1.3883 -0.9763 -2.1714
  121OSM     NF12756   4.421   2.047   6.322  0.1679  0.0642 -0.6611
  121OSM    HNF12757   4.400   2.144   6.327  0.3921  0.0295  1.7352
  121OSM    C2S12758   4.513   1.999   6.222  0.1965  0.5352  0.1656
  121OSM    H2S12759   4.564   1.913   6.270 -2.4608 -0.8452  0.6888
  121OSM    C3S12760   4.624   2.105   6.186 -0.4877 -0.1968 -0.2183
  121OSM    H3S12761   4.578   2.199   6.149 -1.0498 -1.1236 -2.0251
  121OSM     O312762   4.712   2.056   6.089  0.3999  0.1696  0.7020
  121OSM    HO312763   4.671   1.979   6.049  2.2414  0.6402 -2.3771
  121OSM    C4S12764   4.707   2.139   6.302  0.8871 -1.3945  0.4676
  121OSM    H4S12765   4.768   2.063   6.353  2.0091  0.0270  1.2890
  121OSM    C5S12766   4.706   2.265   6.353 -0.5533 -0.5577  0.3059
  121OSM    H5S12767   4.655   2.347   6.301 -1.2466 -1.0041  0.2741
  121OSM    C6S12768   4.782   2.298   6.477 -0.2137 -0.2910 -0.8436
  121OSM    H6S12769   4.834   2.396   6.472 -0.7435 -0.0086 -0.8452
  121OSM    H6T12770   4.857   2.218   6.495 -2.6804 -2.3843  0.8619
  121OSM    C7S12771   4.690   2.311   6.602 -0.6005  0.8857 -1.2528
  121OSM    H7S12772   4.641   2.211   6.605 -0.1560  0.6872  0.3208
  121OSM    H7T12773   4.611   2.387   6.587 -0.5853  0.7038 -2.3159
  121OSM    C8S12774   4.758   2.343   6.736  0.4036  0.0974  0.4442
  121OSM    H8S12775   4.777   2.452   6.736 -2.9148  0.7872  0.5875
  121OSM    H8T12776   4.846   2.278   6.754 -1.6804 -3.0538  0.0439
  121OSM    C9S12777   4.655   2.317   6.849  0.1190  0.6255  0.2851
  121OSM    H9S12778   4.603   2.218   6.847  0.5354  0.3851  0.9723
  121OSM    H9T12779   4.571   2.389   6.856 -1.8116 -1.3105 -1.2655
  121OSM   C10S12780   4.715   2.327   6.992  0.6606  0.1833  0.4008
  121OSM   H10S12781   4.759   2.429   6.990  0.4349  0.3146  1.4174
  121OSM   H10T12782   4.789   2.245   7.002 -2.2233 -2.6483  0.0631
  121OSM   C11S12783   4.600   2.319   7.093  0.4903  0.5425 -0.5391
  121OSM   H11S12784   4.549   2.220   7.096  0.6720  0.4464 -0.5900
  121OSM   H11T12785   4.519   2.394   7.077  0.0765  0.4749  1.1034
  121OSM   C12S12786   4.652   2.352   7.232 -0.1071  0.2598  0.5695
  121OSM   H12S12787   4.661   2.462   7.243  0.1070  0.2435  0.5613
  121OSM   H12T12788   4.749   2.298   7.242  0.0633  0.0161 -1.8402
  121OSM   C13S12789   4.551   2.316   7.353 -0.2604  0.1779 -0.1647
  121OSM   H13S12790   4.519   2.212   7.333 -0.2362 -0.2043  1.6189
  121OSM   H13T12791   4.471   2.393   7.344  1.7576  2.3506 -0.6938
  121OSM   C14S12792   4.617   2.320   7.493  0.1413 -0.7308 -0.5928
  121OSM   H14S12793   4.538   2.293   7.566 -0.4852  3.3639  0.4888
  121OSM   H14T12794   4.640   2.426   7.513  0.5004 -0.7976 -0.6417
  121OSM   C15S12795   4.733   2.230   7.529  0.0079 -0.2398 -0.3952
  121OSM   H15S12796   4.822   2.238   7.463  0.6514  2.5683  0.6559
  121OSM   H15T12797   4.700   2.124   7.522  0.6499 -0.8321  3.4834
  121OSM   C16S12798   4.788   2.260   7.673 -0.7768  0.1418  0.2644
  121OSM   H16S12799   4.720   2.255   7.761  1.7230 -3.1034  2.2354
  121OSM   H16T12800   4.829   2.362   7.668 -2.1843  0.6702 -1.7822
  121OSM   C17S12801   4.913   2.178   7.713  0.0288  0.4258  0.3288
  121OSM   H17S12802   4.991   2.217   7.645 -0.4035  0.2462 -0.2837
  121OSM   H17T12803   4.902   2.069   7.698 -3.2307  0.4363  1.6383
  121OSM   C18S12804   4.944   2.217   7.857 -0.3774 -0.0830 -0.2186
  121OSM   H18S12805   4.851   2.205   7.916 -0.9160 -1.7507 -1.3374
  121OSM   H18T12806   4.994   2.316   7.860 -0.1956 -0.0135 -3.0421
  121OSM   H18U12807   5.022   2.145   7.891 -0.4486 -0.3504 -0.6195
  121OSM    C1F12808   4.344   1.960   6.376  0.4394  0.6250  0.1274
  121OSM     OF12809   4.355   1.841   6.352 -0.3154  0.1565 -0.4355
  121OSM    C2F12810   4.230   2.012   6.460 -1.0742  0.3137  0.3226
  121OSM    H2F12811   4.137   1.965   6.423 -2.3264  3.0474 -0.1929
  121OSM    H2G12812   4.218   2.121   6.446 -1.1527  0.6510  2.6297
  121OSM    C3F12813   4.226   1.971   6.615 -0.1720 -0.1904 -0.4368
  121OSM    H3F12814   4.208   1.861   6.620 -0.6634 -0.0583  1.8134
  121OSM    H3G12815   4.135   2.025   6.647  0.0334  0.0759 -0.3025
  121OSM    C4F12816   4.351   2.020   6.694  0.0632 -0.4286  0.0615
  121OSM    H4F12817   4.383   2.123   6.666  1.4211 -0.9742 -0.4746
  121OSM    H4G12818   4.436   1.954   6.666  0.7854  0.4644  0.0766
  121OSM    C5F12819   4.337   2.032   6.844  0.2506 -0.1841 -0.8363
  121OSM    H5F12820   4.436   2.063   6.884  0.3877  0.1851 -1.4578
  121OSM    H5G12821   4.305   1.934   6.884 -0.0637 -0.1924 -1.1034
  121OSM    C6F12822   4.227   2.119   6.904 -0.2489  0.1282 -0.3032
  121OSM    H6F12823   4.125   2.077   6.889 -1.1693  1.9986  0.2649
  121OSM    H6G12824   4.220   2.215   6.848  0.2512 -0.2630 -1.0444
  121OSM    C7F12825   4.262   2.164   7.047 -0.6431  0.3292  0.0851
  121OSM    H7F12826   4.168   2.212   7.083 -1.6556 -0.1359 -1.8300
  121OSM    H7G12827   4.336   2.247   7.041 -1.1578  0.6773 -1.9679
  121OSM    C8F12828   4.297   2.049   7.149  0.2468  0.1214  0.0275
  121OSM    H8F12829   4.339   2.104   7.236  1.8674  1.9188 -1.8009
  121OSM    H8G12830   4.374   1.980   7.107  0.9185 -1.0426  2.9329
  121OSM    C9F12831   4.187   1.958   7.191 -0.2257  0.2192  0.1041
  121OSM    H9F12832   4.093   1.984   7.140 -0.4284 -1.9609 -0.7239
  121OSM   C10F12833   4.206   1.882   7.299  0.5685  0.4963 -0.2739
  121OSM   H10F12834   4.121   1.816   7.324  0.5605  1.0736  1.3632
  121OSM   C11F12835   4.331   1.861   7.374 -0.5583 -0.0584  0.1830
  121OSM   H11F12836   4.414   1.912   7.321 -1.1405 -0.7392 -1.4413
  121OSM   H11G12837   4.357   1.753   7.385  0.4400  0.3605  2.5103
  121OSM   C12F12838   4.327   1.904   7.519  0.0003 -0.0812  0.6776
  121OSM   H12F12839   4.429   1.899   7.564 -0.2794 -1.2797  1.2053
  121OSM   H12G12840   4.259   1.837   7.575 -0.5134 -0.2257 -0.1019
  121OSM   C13F12841   4.291   2.056   7.539  0.2813  0.6402 -0.2725
  121OSM   H13F12842   4.184   2.063   7.509  0.6604  1.7881 -1.4272
  121OSM   H13G12843   4.347   2.112   7.462  1.5733 -2.9621 -2.1803
  121OSM   C14F12844   4.308   2.094   7.687 -0.3713  0.2216 -0.3353
  121OSM   H14F12845   4.261   2.017   7.751 -1.7026 -0.1951 -1.7517
  121OSM   H14G12846   4.261   2.191   7.716  1.2730  0.3372  2.3512
  121OSM   C15F12847   4.452   2.116   7.741  0.0184  0.6820  0.0938
  121OSM   H15F12848   4.473   2.211   7.794  1.6794  0.1455  0.4590
  121OSM   H15G12849   4.528   2.102   7.661 -0.5926 -3.2065  0.0043
  121OSM   C16F12850   4.482   1.998   7.835  0.8174  0.4811 -0.0394
  121OSM   H16F12851   4.479   1.905   7.774  0.8193 -0.6001  1.5488
  121OSM   H16G12852   4.391   1.979   7.895  0.4256  0.2550 -0.7010
  121OSM   C17F12853   4.621   1.998   7.907  0.6052 -0.7429  0.4064
  121OSM   H17F12854   4.710   1.989   7.841  0.1084 -4.1525 -0.0075
  121OSM   H17G12855   4.617   1.894   7.947  1.1347 -0.5597  0.9346
  121OSM   C18F12856   4.630   2.093   8.020 -0.3074 -0.0876 -0.5261
  121OSM   H18F12857   4.542   2.085   8.088  1.5553 -0.6847  1.9530
  121OSM   H18G12858   4.622   2.198   7.983 -0.4990  1.2189  2.8481
  121OSM   H18H12859   4.713   2.081   8.092 -1.3764  0.8399  0.9145
  122OSM      N12860   3.254   3.153   5.920 -0.4778  0.3163  0.1467
  122OSM    C1512861   3.206   3.070   6.029 -0.3285  1.0143 -0.2368
  122OSM   H15A12862   3.241   3.112   6.121 -0.8511 -1.9957  1.4536
  122OSM   H15B12863   3.235   2.967   6.017 -1.5303  0.4976  1.0563
  122OSM   H15C12864   3.098   3.070   6.036 -0.3359 -2.1815  1.4160
  122OSM    C1412865   3.398   3.182   5.944 -0.4154  0.4991  0.2761
  122OSM   H14A12866   3.441   3.185   5.845 -2.4821 -0.1825 -0.7018
  122OSM   H14B12867   3.440   3.093   5.989 -0.9926 -1.0328 -2.0193
  122OSM   H14C12868   3.418   3.281   5.983 -1.2181  0.5831  0.4889
  122OSM    C1312869   3.243   3.073   5.795  0.8834 -0.6471 -0.2147
  122OSM   H13A12870   3.282   3.135   5.716  2.4118 -0.2426  0.8178
  122OSM   H13B12871   3.136   3.059   5.781  0.5950 -1.5400  2.2888
  122OSM   H13C12872   3.308   2.987   5.799  0.9112 -0.6475 -0.6553
  122OSM    C1212873   3.166   3.284   5.922  0.0162  0.0255 -0.0633
  122OSM   H12A12874   3.161   3.322   6.023 -3.4066  0.3022 -0.2005
  122OSM   H12B12875   3.061   3.265   5.902 -0.0010 -1.0642  0.9547
  122OSM    C1112876   3.199   3.408   5.831 -0.4700  0.6133 -0.1842
  122OSM   H11A12877   3.130   3.492   5.853 -2.1110 -0.9732  1.0470
  122OSM   H11B12878   3.168   3.381   5.728 -2.7018 -0.5062  0.7220
  122OSM      P12879   3.400   3.557   5.938  0.2454  0.1910 -0.4362
  122OSM    O1312880   3.517   3.607   5.860 -0.0602  0.1013  0.1827
  122OSM    O1412881   3.292   3.652   5.973 -0.1142  0.0483  0.1106
  122OSM    O1112882   3.448   3.466   6.061 -0.3327  0.3057 -0.4594
  122OSM    O1212883   3.339   3.450   5.838  0.1306  0.1562  0.3534
  122OSM    C1S12884   3.545   3.522   6.152  0.0448  0.9203 -0.0005
  122OSM    H1S12885   3.561   3.631   6.143 -3.6433  1.7877  1.9216
  122OSM    H1T12886   3.645   3.472   6.154 -0.9078 -1.1112  2.1243
  122OSM     NF12887   3.589   3.565   6.386  0.2714 -0.3555 -0.3664
  122OSM    HNF12888   3.652   3.504   6.431  1.7073  1.4229  0.1585
  122OSM    C2S12889   3.492   3.506   6.298  0.0402 -0.1867 -0.6018
  122OSM    H2S12890   3.405   3.576   6.298 -1.0955 -1.5464  0.1583
  122OSM    C3S12891   3.448   3.355   6.337 -0.1354  0.2118 -0.2792
  122OSM    H3S12892   3.537   3.293   6.311 -1.2977 -1.7858  0.2131
  122OSM     O312893   3.344   3.298   6.254 -0.1152 -0.2548 -0.5860
  122OSM    HO312894   3.364   3.334   6.168 -1.3019  3.3833  0.4750
  122OSM    C4S12895   3.409   3.348   6.482  0.1793 -0.6536  0.2938
  122OSM    H4S12896   3.331   3.421   6.508 -2.0784 -2.9284  0.3440
  122OSM    C5S12897   3.465   3.266   6.576  0.3763 -0.0867 -0.3349
  122OSM    H5S12898   3.556   3.209   6.554  0.2108 -0.1607 -0.8497
  122OSM    C6S12899   3.422   3.252   6.721 -0.3232  0.5106 -1.7509
  122OSM    H6S12900   3.515   3.255   6.781 -2.1221  1.6225  1.1813
  122OSM    H6T12901   3.401   3.143   6.730  0.7936  0.3061 -1.5889
  122OSM    C7S12902   3.319   3.352   6.781  0.3493  0.1920 -0.3545
  122OSM    H7S12903   3.215   3.349   6.742 -1.1574 -0.1726  3.2459
  122OSM    H7T12904   3.361   3.453   6.758 -0.7725  0.1904 -2.7084
  122OSM    C8S12905   3.291   3.328   6.934  0.1228  0.8103  0.3549
  122OSM    H8S12906   3.211   3.401   6.961 -1.1141 -0.6262  0.6839
  122OSM    H8T12907   3.385   3.349   6.990 -0.4867  3.3941  0.5605
  122OSM    C9S12908   3.242   3.184   6.958 -0.3044  0.1438 -0.5214
  122OSM    H9S12909   3.318   3.106   6.937 -0.0207  0.2489  0.0820
  122OSM    H9T12910   3.165   3.173   6.879 -0.0080  2.2543 -1.1515
  122OSM   C10S12911   3.191   3.149   7.103  0.1063  0.2535  0.1013
  122OSM   H10S12912   3.106   3.079   7.118 -0.9421  1.3247 -0.7328
  122OSM   H10T12913   3.157   3.242   7.153 -0.1020  0.8958 -1.1984
  122OSM   C11S12914   3.299   3.079   7.187 -0.4550  0.2252 -0.1340
  122OSM   H11S12915   3.402   3.115   7.165 -1.3059  2.7584 -0.2308
  122OSM   H11T12916   3.316   2.970   7.177  0.7579  0.1719  1.9262
  122OSM   C12S12917   3.270   3.105   7.334 -0.1242 -0.3620 -0.2783
  122OSM   H12S12918   3.171   3.062   7.359 -1.1075  2.2013  0.4879
  122OSM   H12T12919   3.262   3.213   7.359 -0.8026 -1.1485  3.4942
  122OSM   C13S12920   3.381   3.048   7.425  0.1947 -0.2261  0.0004
  122OSM   H13S12921   3.463   3.122   7.438  0.8610 -0.7403 -1.0917
  122OSM   H13T12922   3.426   2.963   7.371  1.7740  1.1916 -1.0052
  122OSM   C14S12923   3.335   3.005   7.560  0.3400 -0.8216 -0.5898
  122OSM   H14S12924   3.270   2.915   7.550  0.4780 -1.5561  3.5023
  122OSM   H14T12925   3.283   3.091   7.608  0.3840  0.3353 -2.5028
  122OSM   C15S12926   3.447   2.972   7.653 -1.4651  0.1079 -0.3225
  122OSM   H15S12927   3.537   3.037   7.648 -0.4455 -1.2405  0.0842
  122OSM   H15T12928   3.490   2.876   7.619 -0.0779  0.4938  0.3022
  122OSM   C16S12929   3.384   2.942   7.785 -0.0636 -0.3790  0.9332
  122OSM   H16S12930   3.318   2.853   7.780  0.2075 -0.5876  0.9888
  122OSM   H16T12931   3.336   3.036   7.818  0.1028  0.5486 -1.2946
  122OSM   C17S12932   3.495   2.905   7.890  0.0161 -0.0375  0.0976
  122OSM   H17S12933   3.567   2.988   7.877 -1.0624  0.8342 -0.4020
  122OSM   H17T12934   3.547   2.811   7.861  0.3504 -0.0744  0.7901
  122OSM   C18S12935   3.442   2.892   8.028  0.0376 -0.2781  0.6163
  122OSM   H18S12936   3.506   2.828   8.092  0.0865  0.4712  1.3294
  122OSM   H18T12937   3.342   2.847   8.011  1.0718 -2.3081 -0.3938
  122OSM   H18U12938   3.417   2.991   8.073  1.1518  0.6417 -0.7093
  122OSM    C1F12939   3.619   3.694   6.407 -0.2988  0.5028  0.1320
  122OSM     OF12940   3.545   3.779   6.359  0.1446  0.6199  0.5207
  122OSM    C2F12941   3.745   3.724   6.482 -0.7893 -0.2312  0.0053
  122OSM    H2F12942   3.781   3.822   6.444 -0.6149 -0.4900 -0.5204
  122OSM    H2G12943   3.819   3.641   6.483 -1.0889 -0.5085  1.5877
  122OSM    C3F12944   3.735   3.763   6.629 -0.7112 -1.0993 -0.0264
  122OSM    H3F12945   3.656   3.841   6.637  1.0498  0.7088  0.5358
  122OSM    H3G12946   3.826   3.821   6.652 -2.2505  1.1829  0.6546
  122OSM    C4F12947   3.713   3.648   6.727  0.0203 -0.3808  0.0375
  122OSM    H4F12948   3.802   3.583   6.714  0.6733  0.2869  1.0119
  122OSM    H4G12949   3.621   3.589   6.712  0.0868 -0.5926  0.4543
  122OSM    C5F12950   3.726   3.695   6.871  0.2312  0.6507 -0.7736
  122OSM    H5F12951   3.649   3.771   6.897 -0.7075 -0.2790 -0.7570
  122OSM    H5G12952   3.824   3.737   6.901  1.2007 -1.7154 -0.4512
  122OSM    C6F12953   3.703   3.577   6.974  0.2532 -0.2486 -0.0216
  122OSM    H6F12954   3.793   3.513   6.960 -0.8793 -1.7235 -0.7373
  122OSM    H6G12955   3.613   3.515   6.959 -1.4922  1.6426  1.8581
  122OSM    C7F12956   3.697   3.640   7.113  0.0361 -0.5423 -0.3568
  122OSM    H7F12957   3.590   3.664   7.130 -0.3352 -1.8865 -0.6902
  122OSM    H7G12958   3.765   3.728   7.111  0.8029 -1.1411 -1.3892
  122OSM    C8F12959   3.739   3.539   7.224 -0.6690  0.9367 -0.3648
  122OSM    H8F12960   3.749   3.598   7.317  2.0455 -0.5594  0.4240
  122OSM    H8G12961   3.846   3.515   7.206 -1.1135 -0.1765 -1.7098
  122OSM    C9F12962   3.642   3.416   7.240 -1.2535 -0.1671 -0.2726
  122OSM    H9F12963   3.611   3.366   7.147  0.7113 -3.0576  0.4813
  122OSM   C10F12964   3.590   3.372   7.357 -0.1720  0.2117 -0.0142
  122OSM   H10F12965   3.515   3.291   7.356 -0.2332  0.2315  1.3435
  122OSM   C11F12966   3.618   3.435   7.492  0.9307 -1.2770  0.1778
  122OSM   H11F12967   3.552   3.385   7.567  0.2861 -2.5824 -1.2002
  122OSM   H11G12968   3.601   3.544   7.480  1.3378 -1.1499  0.7005
  122OSM   C12F12969   3.756   3.419   7.557  0.0387 -0.3473 -0.3454
  122OSM   H12F12970   3.834   3.480   7.506  0.4132 -1.6226 -1.3347
  122OSM   H12G12971   3.790   3.314   7.542  0.7277 -0.0641 -0.7996
  122OSM   C13F12972   3.752   3.456   7.710  0.7288 -0.6757 -0.2014
  122OSM   H13F12973   3.671   3.384   7.735 -2.4290  2.7043  0.1392
  122OSM   H13G12974   3.708   3.556   7.728 -0.5519 -0.9272 -1.7200
  122OSM   C14F12975   3.885   3.434   7.782  0.2310  0.0740 -0.0182
  122OSM   H14F12976   3.941   3.529   7.766  0.9920 -0.5575 -1.3184
  122OSM   H14G12977   3.935   3.361   7.714 -0.5505 -0.6928  0.2240
  122OSM   C15F12978   3.878   3.388   7.926 -0.5685 -0.1668 -0.1400
  122OSM   H15F12979   3.816   3.297   7.940 -1.5879  0.4801 -0.3629
  122OSM   H15G12980   3.838   3.471   7.988  0.1051 -0.2343  0.3964
  122OSM   C16F12981   4.023   3.360   7.980  0.4786 -0.7480 -0.6925
  122OSM   H16F12982   4.089   3.446   7.954  0.3023 -0.5548 -0.5100
  122OSM   H16G12983   4.052   3.265   7.931  0.7261 -0.7876 -0.4738
  122OSM   C17F12984   4.015   3.331   8.136 -0.6798 -0.5995 -0.7358
  122OSM   H17F12985   3.927   3.264   8.143 -0.9047 -0.3104 -0.7842
  122OSM   H17G12986   3.993   3.416   8.204  3.0204  1.7148 -2.0950
  122OSM   C18F12987   4.138   3.255   8.198  1.0233 -0.2334  0.2968
  122OSM   H18F12988   4.137   3.267   8.308 -0.4974  0.3239  0.2454
  122OSM   H18G12989   4.227   3.308   8.159  0.0273  1.5371  0.3486
  122OSM   H18H12990   4.133   3.151   8.158 -0.1920 -0.6155  1.3614
  123OSM      N12991   1.251   4.838   6.058  0.0223  0.4899  0.3969
  123OSM    C1512992   1.144   4.936   6.044 -0.1747  0.8227 -0.3424
  123OSM   H15A12993   1.174   5.039   6.027 -0.2898  0.7090 -1.3178
  123OSM   H15B12994   1.094   4.949   6.138  0.9318 -0.1932  0.4086
  123OSM   H15C12995   1.070   4.910   5.969 -0.4265  0.9338 -0.1334
  123OSM    C1412996   1.180   4.705   6.058  0.0941 -0.2246  0.1590
  123OSM   H14A12997   1.255   4.628   6.072  1.1764  0.5070 -1.2681
  123OSM   H14B12998   1.132   4.686   5.963  0.4511  2.2282 -0.5736
  123OSM   H14C12999   1.102   4.712   6.132  0.5660 -0.4077  0.6795
  123OSM    C1313000   1.336   4.837   5.934  0.9951 -0.3391  0.2805
  123OSM   H13A13001   1.388   4.743   5.927 -2.5552 -2.5127  0.4060
  123OSM   H13B13002   1.401   4.922   5.921  0.1219 -0.0242 -3.2378
  123OSM   H13C13003   1.268   4.833   5.850  0.8359  1.0997  0.3255
  123OSM    C1213004   1.334   4.861   6.181  0.5410  0.1672 -0.8437
  123OSM   H12A13005   1.414   4.928   6.152  0.0734  0.7626 -0.7697
  123OSM   H12B13006   1.393   4.773   6.201  2.1080  1.0237 -1.5403
  123OSM    C1113007   1.258   4.908   6.311  0.5275 -0.0166 -0.5488
  123OSM   H11A13008   1.242   5.018   6.301 -1.5856 -0.1807  0.5051
  123OSM   H11B13009   1.315   4.895   6.405  1.0528  0.6050 -0.7674
  123OSM      P13010   1.055   4.835   6.469  0.3420  0.1278 -0.1270
  123OSM    O1313011   0.912   4.857   6.447 -0.4453  0.4312  0.0723
  123OSM    O1413012   1.087   4.714   6.550  0.2829 -0.3493  0.2138
  123OSM    O1113013   1.111   4.962   6.552 -0.3446  0.2163 -0.0415
  123OSM    O1213014   1.142   4.835   6.336 -0.0776 -0.7405  0.0656
  123OSM    C1S13015   1.067   4.971   6.683 -0.1381 -0.4369 -0.2753
  123OSM    H1S13016   1.088   4.882   6.745 -0.9975 -1.1379 -0.9551
  123OSM    H1T13017   0.958   4.992   6.680  0.6080  4.5998 -1.2389
  123OSM     NF13018   1.115   5.090   6.897  0.2620 -0.1995 -0.2459
  123OSM    HNF13019   1.063   5.168   6.932  2.0929  1.1127 -0.3189
  123OSM    C2S13020   1.150   5.087   6.756  0.0396  0.2707 -0.7449
  123OSM    H2S13021   1.259   5.068   6.750  0.4104  2.1956 -0.8762
  123OSM    C3S13022   1.127   5.224   6.684 -0.8836  0.2421 -0.3146
  123OSM    H3S13023   1.018   5.245   6.685 -0.5935  1.8488  0.9932
  123OSM     O313024   1.154   5.226   6.544 -0.4539  0.0647 -0.7558
  123OSM    HO313025   1.153   5.135   6.516 -3.1861  0.0183 -0.7543
  123OSM    C4S13026   1.204   5.333   6.754 -0.1649 -0.5327 -0.1532
  123OSM    H4S13027   1.308   5.306   6.778 -0.2047 -2.0676 -1.5132
  123OSM    C5S13028   1.144   5.443   6.813  0.0084 -0.5668 -0.5001
  123OSM    H5S13029   1.036   5.461   6.823 -0.1028 -1.9547  1.5088
  123OSM    C6S13030   1.223   5.538   6.900  0.9533  0.3157  0.4675
  123OSM    H6S13031   1.213   5.634   6.845  2.5049  0.2470  0.0291
  123OSM    H6T13032   1.331   5.514   6.903  0.9914  0.3485 -0.4168
  123OSM    C7S13033   1.154   5.557   7.036  0.1280  0.4631 -0.4344
  123OSM    H7S13034   1.046   5.579   7.023 -0.5127 -1.4868  1.0614
  123OSM    H7T13035   1.199   5.644   7.089 -0.4781  1.2080 -1.1084
  123OSM    C8S13036   1.171   5.437   7.130  0.4979 -0.8052  0.1949
  123OSM    H8S13037   1.281   5.422   7.125  0.5306 -0.2619 -2.5096
  123OSM    H8T13038   1.114   5.349   7.094 -0.0333 -0.7797  0.9575
  123OSM    C9S13039   1.102   5.464   7.268 -0.3964 -0.6038  0.3426
  123OSM    H9S13040   0.995   5.484   7.247 -0.4292 -1.2257 -0.1297
  123OSM    H9T13041   1.149   5.556   7.308  0.2399  1.3107 -4.1671
  123OSM   C10S13042   1.119   5.348   7.368  0.3186 -0.0846 -0.1883
  123OSM   H10S13043   1.226   5.331   7.392 -0.0394  0.0854  1.7340
  123OSM   H10T13044   1.078   5.259   7.316 -0.7917  0.9360 -1.1041
  123OSM   C11S13045   1.058   5.373   7.509 -0.0144  0.0634 -0.2433
  123OSM   H11S13046   0.948   5.391   7.508 -0.3513 -1.7592  0.1579
  123OSM   H11T13047   1.099   5.461   7.563  0.6156 -0.3482 -0.0336
  123OSM   C12S13048   1.076   5.245   7.597  0.2737  0.4545  0.3794
  123OSM   H12S13049   1.186   5.228   7.603  0.6988  2.5660 -0.4460
  123OSM   H12T13050   1.024   5.159   7.549 -1.4715  1.4764  0.3815
  123OSM   C13S13051   1.010   5.274   7.737  0.2098  0.1499 -0.1435
  123OSM   H13S13052   0.904   5.306   7.737  0.1637  0.0151 -1.1701
  123OSM   H13T13053   1.075   5.353   7.781 -0.4652  1.7698 -1.9536
  123OSM   C14S13054   1.034   5.149   7.830  0.3285  0.1035 -1.1128
  123OSM   H14S13055   1.142   5.125   7.817 -0.0696 -2.9090  0.2767
  123OSM   H14T13056   0.977   5.058   7.802  1.3258 -0.7061 -0.6239
  123OSM   C15S13057   1.019   5.176   7.977  0.5118 -0.2263 -0.2975
  123OSM   H15S13058   0.909   5.187   7.986  0.8448  3.1207  0.9717
  123OSM   H15T13059   1.053   5.277   8.006  0.0227 -0.1200 -0.0831
  123OSM   C16S13060   1.084   5.073   8.066 -0.3230  0.7217  0.0141
  123OSM   H16S13061   1.190   5.055   8.036 -1.1469 -0.4033 -2.3897
  123OSM   H16T13062   1.031   4.977   8.050  1.7254 -0.3630 -0.6704
  123OSM   C17S13063   1.086   5.110   8.217  0.1753  0.4349 -0.4133
  123OSM   H17S13064   0.986   5.151   8.243  1.2506  2.7308  0.3593
  123OSM   H17T13065   1.145   5.201   8.239  0.5038  0.3912 -1.0861
  123OSM   C18S13066   1.122   4.993   8.307  0.3528  0.6363 -0.0070
  123OSM   H18S13067   1.226   4.959   8.288  0.1654 -0.2540  0.5080
  123OSM   H18T13068   1.053   4.906   8.300 -0.0260  0.8727  0.6873
  123OSM   H18U13069   1.113   5.031   8.410  1.1943 -3.1504  1.6331
  123OSM    C1F13070   1.151   4.995   6.979 -0.4250 -0.4948  0.3792
  123OSM     OF13071   1.227   4.899   6.948 -0.0294 -0.7339 -0.3686
  123OSM    C2F13072   1.081   4.993   7.111 -0.4548 -0.1697 -0.0280
  123OSM    H2F13073   0.988   5.052   7.102 -0.1649  0.3726  0.4514
  123OSM    H2G13074   1.146   5.040   7.188 -1.3568  1.7206 -0.3506
  123OSM    C3F13075   1.053   4.848   7.157  0.0622 -0.7755 -0.5465
  123OSM    H3F13076   1.144   4.784   7.146  0.1866 -0.6506 -0.2569
  123OSM    H3G13077   0.979   4.822   7.079  1.5000  2.4675 -3.2571
  123OSM    C4F13078   0.981   4.840   7.286  0.7156  0.1034  0.1287
  123OSM    H4F13079   0.903   4.761   7.290  2.6697 -1.9156  2.5289
  123OSM    H4G13080   0.916   4.928   7.303  1.9600  1.6129 -2.3677
  123OSM    C5F13081   1.065   4.837   7.422  0.7152 -0.1389  0.1257
  123OSM    H5F13082   1.105   4.936   7.450  1.0401 -0.7366  1.9273
  123OSM    H5G13083   1.154   4.772   7.409  0.2475 -0.5673 -1.1130
  123OSM    C6F13084   0.987   4.778   7.537 -0.3120 -0.1792  0.7312
  123OSM    H6F13085   1.050   4.745   7.622 -0.6293 -0.8732  0.7051
  123OSM    H6G13086   0.945   4.685   7.492  0.5348 -0.8184  1.2188
  123OSM    C7F13087   0.888   4.871   7.591  0.4365 -0.6605 -0.6213
  123OSM    H7F13088   0.811   4.904   7.518 -0.6094  0.0410  0.7433
  123OSM    H7G13089   0.940   4.963   7.625  0.8632 -1.3157  0.5677
  123OSM    C8F13090   0.802   4.812   7.705  0.2938 -0.0131  0.3667
  123OSM    H8F13091   0.866   4.751   7.772  0.1451 -1.1092 -0.4518
  123OSM    H8G13092   0.741   4.727   7.667  0.0453  0.6851 -0.8425
  123OSM    C9F13093   0.706   4.906   7.765  0.2263 -0.2811 -0.4035
  123OSM    H9F13094   0.654   4.974   7.695  0.2801 -0.2315 -0.3955
  123OSM   C10F13095   0.687   4.916   7.897 -0.3834 -1.6262 -0.3108
  123OSM   H10F13096   0.623   4.993   7.941 -0.7634 -2.5303  0.7712
  123OSM   C11F13097   0.754   4.824   7.994 -0.3162 -0.6100  0.3054
  123OSM   H11F13098   0.858   4.855   8.018  0.2759 -1.5787 -0.9021
  123OSM   H11G13099   0.773   4.725   7.949 -2.0768 -0.6450 -0.4203
  123OSM   C12F13100   0.693   4.810   8.138  0.2193 -0.0063  0.8524
  123OSM   H12F13101   0.756   4.738   8.195 -0.9387 -0.3076  1.8004
  123OSM   H12G13102   0.591   4.769   8.124  0.6647 -1.1201  0.7264
  123OSM   C13F13103   0.694   4.935   8.225 -0.6520 -0.1969 -0.2977
  123OSM   H13F13104   0.633   5.017   8.181 -0.7588 -0.9579 -1.6206
  123OSM   H13G13105   0.800   4.968   8.227 -0.5476 -0.3786 -1.6920
  123OSM   C14F13106   0.646   4.908   8.371 -0.1597 -0.3459 -0.1713
  123OSM   H14F13107   0.711   4.832   8.420 -1.5992 -0.4234  1.6866
  123OSM   H14G13108   0.545   4.864   8.360  0.9932 -3.0349 -0.7898
  123OSM   C15F13109   0.648   5.040   8.458  0.6580  0.9468  0.4469
  123OSM   H15F13110   0.610   5.003   8.555 -1.1696 -0.1458 -0.6150
  123OSM   H15G13111   0.571   5.114   8.429 -0.1851  0.2820  0.9607
  123OSM   C16F13112   0.784   5.110   8.466 -0.1157  0.0587  0.0632
  123OSM   H16F13113   0.810   5.163   8.372 -2.0973 -0.3429 -0.7519
  123OSM   H16G13114   0.859   5.028   8.473  0.9641  0.5707 -3.6617
  123OSM   C17F13115   0.804   5.202   8.584 -0.0353 -0.0939 -0.0224
  123OSM   H17F13116   0.782   5.152   8.681 -1.5272  0.2058 -0.1766
  123OSM   H17G13117   0.739   5.292   8.574  0.4996  0.2751 -0.2453
  123OSM   C18F13118   0.952   5.259   8.598 -0.0127 -0.4953  0.4006
  123OSM   H18F13119   1.009   5.279   8.505 -0.7872 -3.1271 -0.7269
  123OSM   H18G13120   1.008   5.189   8.664  0.6367  1.6778  2.2707
  123OSM   H18H13121   0.939   5.353   8.656  2.3861  1.0803 -1.4493
  124OSM      N13122   3.072   1.242   5.991 -0.7056 -0.1934  0.4142
  124OSM    C1513123   3.206   1.309   5.991  0.2509  1.0272 -0.3563
  124OSM   H15A13124   3.260   1.243   6.057 -2.3280 -0.7359  0.1545
  124OSM   H15B13125   3.209   1.407   6.035  1.2792  0.9875 -0.3105
  124OSM   H15C13126   3.259   1.297   5.898 -1.2597 -1.6699 -0.9761
  124OSM    C1413127   2.981   1.334   5.917 -0.0842  0.5517 -0.2337
  124OSM   H14A13128   2.998   1.440   5.929 -2.3014  0.8803  0.6455
  124OSM   H14B13129   2.877   1.318   5.946  0.3118  0.5314  1.2808
  124OSM   H14C13130   2.987   1.320   5.810  0.5488  1.1381 -0.2797
  124OSM    C1313131   3.059   1.116   5.917 -0.3704 -0.2231  0.2461
  124OSM   H13A13132   3.106   1.026   5.954  0.5086 -0.6372 -1.7480
  124OSM   H13B13133   3.109   1.128   5.823 -1.2869 -1.1247 -0.3731
  124OSM   H13C13134   2.955   1.089   5.903 -0.4195 -0.4577  0.9836
  124OSM    C1213135   3.022   1.231   6.133  0.5745 -0.1627 -0.3440
  124OSM   H12A13136   3.084   1.171   6.198  1.0420  1.8617  1.1719
  124OSM   H12B13137   2.920   1.195   6.136 -0.5454  2.6643 -1.0225
  124OSM    C1113138   3.024   1.361   6.214 -0.2123 -0.2009  0.2943
  124OSM   H11A13139   3.127   1.403   6.216 -0.3170  0.1263 -0.6551
  124OSM   H11B13140   3.007   1.326   6.318 -3.7125  0.5837  0.1096
  124OSM      P13141   2.773   1.437   6.207  0.0333 -0.1457 -0.0609
  124OSM    O1313142   2.703   1.545   6.138 -0.8439 -0.1338 -0.1608
  124OSM    O1413143   2.723   1.303   6.166 -0.5546  0.1586 -0.3889
  124OSM    O1113144   2.775   1.450   6.371 -0.5855  0.0400  0.1343
  124OSM    O1213145   2.925   1.454   6.176 -0.2689 -0.3084  0.0823
  124OSM    C1S13146   2.738   1.574   6.435  0.5858  0.1574  0.2055
  124OSM    H1S13147   2.629   1.587   6.415  0.6734  1.9658  0.7458
  124OSM    H1T13148   2.784   1.667   6.396  1.5743 -0.1003  0.7157
  124OSM     NF13149   2.689   1.669   6.657  0.0346 -0.0722 -0.1627
  124OSM    HNF13150   2.736   1.756   6.672 -0.9905  0.3071  1.0305
  124OSM    C2S13151   2.757   1.560   6.585  0.3035 -0.3200 -0.5434
  124OSM    H2S13152   2.713   1.466   6.624  0.9089 -0.0907  0.7241
  124OSM    C3S13153   2.907   1.558   6.611  0.0181 -0.2112 -0.1831
  124OSM    H3S13154   2.945   1.659   6.582  1.1889 -0.6704 -0.2857
  124OSM     O313155   2.982   1.464   6.534  0.3258  0.2461  0.2451
  124OSM    HO313156   2.911   1.439   6.474 -0.3550  1.8229  0.3210
  124OSM    C4S13157   2.934   1.550   6.759 -0.9186  0.6244  0.6048
  124OSM    H4S13158   2.887   1.464   6.810  1.2158 -2.0254 -1.5660
  124OSM    C5S13159   3.023   1.624   6.827  0.2505 -0.2547 -0.2918
  124OSM    H5S13160   3.090   1.691   6.772  2.2347 -3.2602 -1.8161
  124OSM    C6S13161   3.036   1.628   6.977  0.0554 -0.7352  0.2594
  124OSM    H6S13162   2.996   1.727   7.008  0.1507 -0.0374 -1.6759
  124OSM    H6T13163   3.140   1.616   7.012  0.1272 -2.5323 -0.4207
  124OSM    C7S13164   2.958   1.517   7.046  0.2398 -0.2190 -0.3445
  124OSM    H7S13165   3.001   1.420   7.015  3.5837 -0.2189  3.4753
  124OSM    H7T13166   2.850   1.517   7.016  0.1064 -0.6364  0.1300
  124OSM    C8S13167   2.970   1.520   7.197  0.3879 -0.2588 -0.0883
  124OSM    H8S13168   2.921   1.430   7.240 -0.9635  0.8635  0.8019
  124OSM    H8T13169   2.915   1.604   7.245  2.2348  0.0514  1.5898
  124OSM    C9S13170   3.113   1.521   7.243  0.6730  0.2733 -0.7109
  124OSM    H9S13171   3.163   1.619   7.229  0.8059  0.7513  2.4558
  124OSM    H9T13172   3.167   1.445   7.182 -0.4098 -1.2869  0.1905
  124OSM   C10S13173   3.117   1.496   7.393 -0.3172  0.7954  0.1171
  124OSM   H10S13174   3.059   1.403   7.413  1.4981 -0.0876  1.5507
  124OSM   H10T13175   3.071   1.584   7.444 -0.6630  1.5470 -1.4150
  124OSM   C11S13176   3.262   1.475   7.441 -0.1400 -0.7000 -0.5975
  124OSM   H11S13177   3.333   1.553   7.405  0.1689 -0.1849  1.0309
  124OSM   H11T13178   3.305   1.386   7.389  3.4441 -0.4382  1.5249
  124OSM   C12S13179   3.275   1.452   7.594  0.6637  0.1496  0.2254
  124OSM   H12S13180   3.378   1.417   7.615  0.8585  0.2324 -0.5815
  124OSM   H12T13181   3.204   1.371   7.622  0.3527 -0.0485 -1.0788
  124OSM   C13S13182   3.238   1.576   7.668  0.7909  0.2616  0.0323
  124OSM   H13S13183   3.135   1.606   7.638  0.1519  0.1769  2.0259
  124OSM   H13T13184   3.309   1.660   7.652 -0.8488  2.2139  2.3111
  124OSM   C14S13185   3.216   1.535   7.811  1.2195  0.4067 -0.1545
  124OSM   H14S13186   3.313   1.524   7.864  1.2295  0.5443 -0.1428
  124OSM   H14T13187   3.155   1.442   7.815  2.0961 -0.1652  0.0358
  124OSM   C15S13188   3.130   1.631   7.901  0.0519  0.0965 -0.2262
  124OSM   H15S13189   3.038   1.662   7.847 -0.8415  0.6393  1.5275
  124OSM   H15T13190   3.196   1.721   7.905  1.5593 -0.8468 -2.2372
  124OSM   C16S13191   3.097   1.581   8.042 -0.0020  0.4700  0.6443
  124OSM   H16S13192   3.199   1.571   8.084  1.0352  0.4612 -1.6728
  124OSM   H16T13193   3.046   1.486   8.016 -0.3744  0.9582 -0.4837
  124OSM   C17S13194   2.994   1.674   8.113 -0.2480  0.0477  0.1667
  124OSM   H17S13195   2.897   1.678   8.059  0.9985  1.1891 -2.1438
  124OSM   H17T13196   3.037   1.775   8.096  0.0072  0.0532  0.8014
  124OSM   C18S13197   2.980   1.646   8.271 -0.4388  0.3274  0.1555
  124OSM   H18S13198   2.889   1.701   8.303  0.0636 -0.1413  2.5786
  124OSM   H18T13199   3.063   1.704   8.315  1.5186  0.4348 -3.3143
  124OSM   H18U13200   2.988   1.538   8.298  3.3982  0.6020  0.7059
  124OSM    C1F13201   2.560   1.674   6.674 -0.9048 -0.3060  0.8461
  124OSM     OF13202   2.489   1.591   6.623  0.7363 -0.0489 -0.5375
  124OSM    C2F13203   2.504   1.794   6.750  0.3985  0.3914  0.0037
  124OSM    H2F13204   2.451   1.843   6.665  0.7817  0.9374  0.0723
  124OSM    H2G13205   2.582   1.862   6.791 -0.1309  1.7744 -1.1887
  124OSM    C3F13206   2.402   1.740   6.849 -0.3780 -0.2948  0.0014
  124OSM    H3F13207   2.324   1.690   6.787 -1.9887  2.2124 -0.1177
  124OSM    H3G13208   2.354   1.829   6.894  0.0651  1.1769 -2.2893
  124OSM    C4F13209   2.442   1.644   6.959 -0.5093 -0.0074  0.0281
  124OSM    H4F13210   2.507   1.560   6.926 -0.1874  0.0751  0.4352
  124OSM    H4G13211   2.350   1.600   7.002 -0.9107  1.0350  0.2580
  124OSM    C5F13212   2.524   1.718   7.072 -0.3157 -0.4318  0.4682
  124OSM    H5F13213   2.464   1.785   7.138  0.0677 -1.0145  1.4219
  124OSM    H5G13214   2.607   1.772   7.020 -0.6794 -0.3946 -0.0843
  124OSM    C6F13215   2.575   1.623   7.181  0.7015  0.3489  0.1215
  124OSM    H6F13216   2.644   1.549   7.137 -0.7372 -0.8086 -0.2842
  124OSM    H6G13217   2.483   1.573   7.218 -0.8228  1.3585 -2.0985
  124OSM    C7F13218   2.638   1.697   7.304  0.0449  0.2592  0.7008
  124OSM    H7F13219   2.572   1.783   7.328  2.0897  1.8614  0.7670
  124OSM    H7G13220   2.739   1.732   7.274  0.9602 -2.1161  0.8102
  124OSM    C8F13221   2.651   1.608   7.424 -0.0555  0.3509  0.5740
  124OSM    H8F13222   2.721   1.660   7.493 -0.8819  0.5121  1.3161
  124OSM    H8G13223   2.698   1.514   7.388  1.1404  0.7001  1.1622
  124OSM    C9F13224   2.516   1.581   7.487  0.4268 -0.2353 -0.2982
  124OSM    H9F13225   2.449   1.529   7.417  0.2734 -1.4614  0.7072
  124OSM   C10F13226   2.482   1.606   7.615 -0.5030 -0.0037  0.3245
  124OSM   H10F13227   2.381   1.574   7.645  0.4574 -3.0988  0.6203
  124OSM   C11F13228   2.559   1.662   7.733 -0.3503 -0.0447  0.2993
  124OSM   H11F13229   2.651   1.714   7.698 -0.4415  0.4855  0.8269
  124OSM   H11G13230   2.599   1.577   7.792 -0.2438 -0.3700 -0.2284
  124OSM   C12F13231   2.472   1.758   7.817 -0.2999 -0.4025  0.1037
  124OSM   H12F13232   2.382   1.792   7.760  0.5038  1.2590 -0.2373
  124OSM   H12G13233   2.520   1.852   7.851  0.0344 -1.4179  2.6683
  124OSM   C13F13234   2.434   1.699   7.952  0.2335  0.1036  0.1945
  124OSM   H13F13235   2.402   1.595   7.935  1.0903  0.2577 -2.8503
  124OSM   H13G13236   2.353   1.760   7.998 -0.7449  0.6185 -2.0777
  124OSM   C14F13237   2.561   1.698   8.046 -0.6050 -0.0986 -0.5365
  124OSM   H14F13238   2.616   1.792   8.024  1.0316 -1.1080 -0.9704
  124OSM   H14G13239   2.642   1.632   8.006 -1.2759 -0.1365 -1.8985
  124OSM   C15F13240   2.542   1.669   8.191 -0.5981  0.0679  0.0831
  124OSM   H15F13241   2.639   1.665   8.245 -0.1703 -0.6918 -0.7028
  124OSM   H15G13242   2.501   1.566   8.203 -0.7796  0.2748  1.2925
  124OSM   C16F13243   2.458   1.774   8.257 -0.3891 -0.4536  0.1652
  124OSM   H16F13244   2.354   1.781   8.220 -0.9768 -0.3143  1.7567
  124OSM   H16G13245   2.502   1.876   8.252 -1.8467  0.1661 -0.6816
  124OSM   C17F13246   2.444   1.727   8.407  0.1274  0.2116  0.4842
  124OSM   H17F13247   2.545   1.707   8.450 -0.2783 -3.5121  0.0208
  124OSM   H17G13248   2.399   1.626   8.404 -0.2393  0.3076  1.9493
  124OSM   C18F13249   2.374   1.825   8.494 -0.1853  0.3238  0.2625
  124OSM   H18F13250   2.278   1.867   8.457 -1.3211 -4.0359 -2.4365
  124OSM   H18G13251   2.440   1.905   8.533 -1.3105  0.8922  1.0517
  124OSM   H18H13252   2.349   1.775   8.590  1.2285  0.2812  0.6333
  125OSM      N13253   5.193   0.345   6.034 -0.0887  0.0140 -0.8730
  125OSM    C1513254   5.203   0.234   5.931  0.0567  0.9234 -0.9427
  125OSM   H15A13255   5.197   0.255   5.825  0.7042 -0.1091 -1.1937
  125OSM   H15B13256   5.126   0.163   5.958  1.3279 -0.2270 -0.2598
  125OSM   H15C13257   5.293   0.178   5.951 -0.9948  0.2358  2.4369
  125OSM    C1413258   5.219   0.288   6.172  0.6237  0.6488  0.1721
  125OSM   H14A13259   5.129   0.233   6.195  0.0789  0.3434 -2.3918
  125OSM   H14B13260   5.227   0.379   6.230 -0.3122  3.0949 -3.1699
  125OSM   H14C13261   5.309   0.229   6.166  0.5177  0.5989 -2.3177
  125OSM    C1313262   5.308   0.440   6.004  0.4443 -0.4267 -0.4986
  125OSM   H13A13263   5.298   0.473   5.901  3.7297  0.2730 -0.7065
  125OSM   H13B13264   5.402   0.394   6.031 -1.0971 -2.8165  1.1156
  125OSM   H13C13265   5.302   0.526   6.068  2.4204 -0.4119 -0.2722
  125OSM    C1213266   5.064   0.422   6.019  0.7661 -0.1199 -0.2512
  125OSM   H12A13267   4.991   0.368   5.960 -3.2944  2.5239  1.8722
  125OSM   H12B13268   5.083   0.509   5.959  1.5272 -0.0851  0.0387
  125OSM    C1113269   4.986   0.451   6.155 -0.1046  0.3928  0.1010
  125OSM   H11A13270   4.971   0.352   6.204 -3.7150 -0.1909 -1.8064
  125OSM   H11B13271   4.879   0.477   6.136 -0.5455 -0.8220  0.7887
  125OSM      P13272   5.084   0.701   6.195  0.3677  0.6743  0.2279
  125OSM    O1313273   5.219   0.735   6.244 -0.4498 -0.2584 -0.3988
  125OSM    O1413274   5.057   0.726   6.047  0.0211 -0.9011  0.0437
  125OSM    O1113275   4.986   0.790   6.275 -0.2849  0.0991 -0.0680
  125OSM    O1213276   5.064   0.544   6.226  0.3665 -0.3840 -0.0612
  125OSM    C1S13277   4.886   0.737   6.362 -0.1147  0.0865  0.4844
  125OSM    H1S13278   4.868   0.629   6.344 -0.6083 -0.4394  3.5318
  125OSM    H1T13279   4.785   0.778   6.341  0.1957  1.0944  0.8689
  125OSM     NF13280   4.808   0.692   6.591 -0.7241 -0.4954  0.0269
  125OSM    HNF13281   4.724   0.744   6.609 -1.4082 -1.1105 -1.3103
  125OSM    C2S13282   4.916   0.754   6.519  0.1281  0.9296 -0.1434
  125OSM    H2S13283   5.014   0.708   6.544 -0.7881  0.1449  2.3318
  125OSM    C3S13284   4.929   0.905   6.562  0.1871  0.6253 -0.7982
  125OSM    H3S13285   4.835   0.951   6.524 -1.2162 -0.5818  0.9893
  125OSM     O313286   5.045   0.962   6.502  0.0443  0.4295 -0.4015
  125OSM    HO313287   5.061   0.908   6.425 -3.5160 -0.7343 -0.4701
  125OSM    C4S13288   4.939   0.916   6.715 -1.0670 -0.5098 -0.0192
  125OSM    H4S13289   4.840   0.938   6.758 -1.7909 -0.4028 -1.6604
  125OSM    C5S13290   5.048   0.921   6.790  0.3418 -0.2571 -0.1472
  125OSM    H5S13291   5.148   0.911   6.744  0.1953  1.0045 -0.8011
  125OSM    C6S13292   5.056   0.937   6.938 -0.4493 -0.1435 -1.4759
  125OSM    H6S13293   4.989   1.012   6.984  0.1879  1.0191 -2.3712
  125OSM    H6T13294   5.158   0.976   6.962 -0.0524 -1.7138 -0.4845
  125OSM    C7S13295   5.045   0.804   7.018 -0.0630 -0.1995  0.3720
  125OSM    H7S13296   5.115   0.738   6.962  0.6403 -0.7412  1.8275
  125OSM    H7T13297   4.943   0.759   7.025 -0.1115 -0.1053  0.2718
  125OSM    C8S13298   5.102   0.809   7.158  0.1236 -0.1691 -0.0792
  125OSM    H8S13299   5.038   0.873   7.223  0.1716  0.7059 -0.8600
  125OSM    H8T13300   5.201   0.859   7.148 -0.8774  2.0079  0.1614
  125OSM    C9S13301   5.135   0.673   7.218  0.4912  0.2413  0.8121
  125OSM    H9S13302   5.230   0.642   7.169 -1.4893 -1.8324 -2.0877
  125OSM    H9T13303   5.067   0.595   7.177 -0.5503  1.6972 -0.3226
  125OSM   C10S13304   5.129   0.665   7.368  0.1673 -0.4576 -0.1769
  125OSM   H10S13305   5.142   0.557   7.391 -0.8208 -1.0963 -2.3590
  125OSM   H10T13306   5.028   0.683   7.412  1.2434 -0.7365  2.6411
  125OSM   C11S13307   5.238   0.752   7.442 -0.3827 -0.4638 -1.5243
  125OSM   H11S13308   5.212   0.860   7.438 -0.7730 -0.4688  0.2044
  125OSM   H11T13309   5.330   0.719   7.388 -2.0882 -2.6602 -3.2825
  125OSM   C12S13310   5.250   0.727   7.591 -0.7618  0.0448  0.3454
  125OSM   H12S13311   5.348   0.754   7.635 -0.8033 -0.4204  0.7361
  125OSM   H12T13312   5.247   0.617   7.607 -0.4663  0.0617  0.5121
  125OSM   C13S13313   5.123   0.784   7.663 -0.4137 -0.0001  0.2368
  125OSM   H13S13314   5.030   0.724   7.660  0.3971 -1.3751  1.2522
  125OSM   H13T13315   5.089   0.875   7.609  0.8275  1.0213  1.1245
  125OSM   C14S13316   5.151   0.824   7.808  0.3235  0.1081 -0.1590
  125OSM   H14S13317   5.231   0.902   7.816 -0.8940  1.3326  0.4844
  125OSM   H14T13318   5.181   0.736   7.870 -0.1746 -1.7407 -2.4326
  125OSM   C15S13319   5.018   0.871   7.872  1.0476 -0.0738 -0.6191
  125OSM   H15S13320   4.939   0.793   7.867 -0.2857  1.1173  0.8187
  125OSM   H15T13321   4.977   0.956   7.814 -2.3583 -1.5305 -0.5788
  125OSM   C16S13322   5.051   0.905   8.016  0.3379 -0.4255 -0.6327
  125OSM   H16S13323   5.115   0.996   8.018  0.5473 -0.5862  0.1986
  125OSM   H16T13324   5.115   0.824   8.057 -0.3757 -1.6339 -1.8309
  125OSM   C17S13325   4.923   0.933   8.106 -0.1771 -0.1862 -0.7763
  125OSM   H17S13326   4.942   0.897   8.210  0.8430 -2.1670 -1.5900
  125OSM   H17T13327   4.839   0.875   8.063 -1.5126 -1.8466  3.4851
  125OSM   C18S13328   4.892   1.085   8.110 -0.0718  0.0261 -0.3164
  125OSM   H18S13329   4.982   1.150   8.118  0.2140 -0.4936  1.1149
  125OSM   H18T13330   4.825   1.099   8.197  0.2735 -3.1990  0.6208
  125OSM   H18U13331   4.831   1.105   8.020 -0.1575 -0.6534 -0.4180
  125OSM    C1F13332   4.794   0.565   6.599  0.3483 -0.1512 -0.5659
  125OSM     OF13333   4.855   0.485   6.527  0.2847 -0.5368  0.5669
  125OSM    C2F13334   4.677   0.517   6.687 -0.1456 -0.4767 -0.1221
  125OSM    H2F13335   4.607   0.457   6.625 -0.2258 -0.2415 -0.2587
  125OSM    H2G13336   4.629   0.605   6.735  1.6070 -0.0445  0.9413
  125OSM    C3F13337   4.744   0.416   6.795  0.6507  1.1775  0.2288
  125OSM    H3F13338   4.812   0.349   6.738  0.6174  1.6210 -0.3478
  125OSM    H3G13339   4.660   0.349   6.824 -0.3719  2.4769  0.3722
  125OSM    C4F13340   4.815   0.482   6.912 -0.1199  0.2068 -0.1363
  125OSM    H4F13341   4.890   0.557   6.880  2.3230 -2.0603 -0.0821
  125OSM    H4G13342   4.889   0.412   6.958 -1.0344 -0.0674  0.9565
  125OSM    C5F13343   4.726   0.547   7.021 -0.3198  0.0124  0.1163
  125OSM    H5F13344   4.657   0.616   6.967  0.0408 -0.2147 -0.6594
  125OSM    H5G13345   4.780   0.611   7.094  0.7541  0.3762 -0.9603
  125OSM    C6F13346   4.639   0.450   7.099 -0.4792 -0.0532  0.2742
  125OSM    H6F13347   4.691   0.355   7.124  0.9299  1.0390  1.6323
  125OSM    H6G13348   4.565   0.411   7.025 -1.8985  1.2409  0.9616
  125OSM    C7F13349   4.561   0.507   7.219  0.3729 -0.2909 -0.6630
  125OSM    H7F13350   4.462   0.457   7.229  0.3228 -0.6192 -2.4765
  125OSM    H7G13351   4.538   0.611   7.190  0.0515  0.0927  0.8530
  125OSM    C8F13352   4.634   0.509   7.352 -0.4998 -0.1746 -0.3414
  125OSM    H8F13353   4.717   0.582   7.343  1.2884 -2.0998 -0.2602
  125OSM    H8G13354   4.685   0.410   7.357  0.2117  0.0482 -2.3834
  125OSM    C9F13355   4.552   0.533   7.477  0.2576 -0.8294  0.0370
  125OSM    H9F13356   4.517   0.637   7.479 -0.6361 -1.0985  2.7002
  125OSM   C10F13357   4.532   0.452   7.583 -0.5096  0.1175  0.4981
  125OSM   H10F13358   4.479   0.497   7.668 -0.1284  0.9474  0.3011
  125OSM   C11F13359   4.583   0.314   7.599 -0.1735 -0.0802 -0.0537
  125OSM   H11F13360   4.693   0.319   7.591  0.0028  0.4262  2.2219
  125OSM   H11G13361   4.543   0.251   7.516 -0.8156  0.6341 -0.3078
  125OSM   C12F13362   4.552   0.241   7.728  0.1932  0.3189 -0.0395
  125OSM   H12F13363   4.613   0.149   7.729  1.1773  0.9433  1.1254
  125OSM   H12G13364   4.445   0.213   7.737  0.3350 -0.9186 -1.7492
  125OSM   C13F13365   4.600   0.313   7.855 -0.3972  0.1210 -0.0451
  125OSM   H13F13366   4.585   0.422   7.842  0.2982 -0.0466 -2.6061
  125OSM   H13G13367   4.711   0.307   7.850 -0.3971  0.9369 -1.1508
  125OSM   C14F13368   4.533   0.253   7.980  0.2905  0.4039  0.0609
  125OSM   H14F13369   4.556   0.144   7.970 -0.4111  0.4656 -3.8244
  125OSM   H14G13370   4.423   0.264   7.975  0.4137  1.1698 -1.2597
  125OSM   C15F13371   4.583   0.310   8.115 -0.9389 -0.0056  0.1448
  125OSM   H15F13372   4.559   0.419   8.109  0.9881  0.4595  0.2249
  125OSM   H15G13373   4.694   0.300   8.112 -0.8759  0.2532  1.2580
  125OSM   C16F13374   4.528   0.225   8.227 -0.0528 -0.3488 -0.5121
  125OSM   H16F13375   4.558   0.119   8.207  0.9542  0.1206 -1.6519
  125OSM   H16G13376   4.418   0.224   8.216  0.0017 -1.0000 -1.0780
  125OSM   C17F13377   4.570   0.269   8.368  0.4335 -0.5277 -0.4897
  125OSM   H17F13378   4.680   0.280   8.376  0.2242  0.4567  1.7546
  125OSM   H17G13379   4.517   0.201   8.439  0.3033 -1.5008 -1.4892
  125OSM   C18F13380   4.503   0.414   8.395 -0.0616  0.1462 -0.0325
  125OSM   H18F13381   4.530   0.455   8.495 -4.1288  2.1720  0.4815
  125OSM   H18G13382   4.392   0.405   8.383 -0.0309 -0.1132 -0.1204
  125OSM   H18H13383   4.549   0.482   8.321  1.9150 -0.7944  0.2904
  126OSM      N13384   0.650   3.883   6.181  0.2202  0.3012 -0.4498
  126OSM    C1513385   0.779   3.961   6.167  0.1363  0.6741 -0.0131
  126OSM   H15A13386   0.791   4.007   6.070  2.2953  0.1224 -0.0607
  126OSM   H15B13387   0.861   3.892   6.183  1.0292  1.6995  0.0001
  126OSM   H15C13388   0.785   4.044   6.236  2.3948 -0.8015  1.7287
  126OSM    C1413389   0.531   3.965   6.195 -0.1551  0.1060  0.3402
  126OSM   H14A13390   0.534   4.047   6.124  0.1131 -0.6618 -0.5612
  126OSM   H14B13391   0.520   4.007   6.294 -3.5242 -1.8747  0.9745
  126OSM   H14C13392   0.442   3.909   6.169 -0.6849 -0.4068  3.0047
  126OSM    C1313393   0.630   3.820   6.050 -0.1618  0.5299  0.8047
  126OSM   H13A13394   0.715   3.756   6.032  0.2458  1.1253  0.5492
  126OSM   H13B13395   0.639   3.887   5.966 -0.3057  1.2919  1.3835
  126OSM   H13C13396   0.539   3.763   6.039  0.5788 -0.6669  0.7002
  126OSM    C1213397   0.661   3.789   6.305 -0.2267 -0.1189  0.4002
  126OSM   H12A13398   0.735   3.712   6.289  0.0081  0.2014 -0.0587
  126OSM   H12B13399   0.572   3.729   6.316 -1.0807  1.0185 -0.0554
  126OSM    C1113400   0.709   3.840   6.451  0.7514  0.4775  0.6403
  126OSM   H11A13401   0.701   3.749   6.514 -2.9088 -0.9751 -1.6352
  126OSM   H11B13402   0.635   3.912   6.493  0.1078 -0.4110  1.0553
  126OSM      P13403   0.966   3.789   6.496 -0.5978  0.1926  0.0629
  126OSM    O1313404   0.940   3.662   6.430 -0.0939  0.1881 -0.9226
  126OSM    O1413405   1.103   3.849   6.471  0.5512 -0.2765  0.1718
  126OSM    O1113406   0.947   3.777   6.656 -0.0082 -0.0982  0.2157
  126OSM    O1213407   0.848   3.883   6.456  0.3771 -0.3309  0.3828
  126OSM    C1S13408   0.920   3.879   6.749 -0.5906 -0.5624  0.2568
  126OSM    H1S13409   0.810   3.897   6.753 -0.6748 -1.3634  2.9633
  126OSM    H1T13410   0.978   3.967   6.713  1.4880 -2.4580 -1.2617
  126OSM     NF13411   0.895   3.919   6.993 -0.6405 -0.2113  0.1692
  126OSM    HNF13412   0.938   3.992   7.045  0.4129  0.0768 -1.0506
  126OSM    C2S13413   0.967   3.842   6.889  0.2331  0.0586 -0.2394
  126OSM    H2S13414   0.943   3.734   6.896 -0.4731  0.1607 -1.0033
  126OSM    C3S13415   1.125   3.841   6.888 -0.2054 -0.9213  0.2122
  126OSM    H3S13416   1.145   3.948   6.863 -2.0531 -0.3222  1.1456
  126OSM     O313417   1.181   3.771   6.779 -0.3415  0.3678  0.2627
  126OSM    HO313418   1.113   3.753   6.714  0.3652 -1.8071  0.0519
  126OSM    C4S13419   1.179   3.804   7.021 -0.1505 -0.2703 -0.5795
  126OSM    H4S13420   1.213   3.882   7.091  0.6941 -0.5487 -0.6695
  126OSM    C5S13421   1.204   3.675   7.061  0.0284 -0.3515  0.7023
  126OSM    H5S13422   1.170   3.591   6.999  0.2942  0.9343 -1.2868
  126OSM    C6S13423   1.265   3.620   7.183 -0.2131 -0.3659  0.0721
  126OSM    H6S13424   1.347   3.554   7.147 -0.0334  0.0493 -0.2961
  126OSM    H6T13425   1.181   3.559   7.221 -1.3551  0.6446 -0.7493
  126OSM    C7S13426   1.317   3.728   7.279 -0.2443  0.8878 -0.3806
  126OSM    H7S13427   1.233   3.799   7.294 -0.6275  0.3314  0.1021
  126OSM    H7T13428   1.410   3.768   7.232  1.4125 -0.3520  1.6760
  126OSM    C8S13429   1.353   3.679   7.415 -0.2101 -0.4184  0.1978
  126OSM    H8S13430   1.443   3.616   7.399 -1.1791 -1.5500 -0.9101
  126OSM    H8T13431   1.266   3.628   7.461 -0.8928 -1.2594 -1.9114
  126OSM    C9S13432   1.396   3.797   7.504  0.2988 -0.2849 -0.3585
  126OSM    H9S13433   1.303   3.858   7.506  0.2206 -0.3301 -1.7210
  126OSM    H9T13434   1.473   3.853   7.447 -0.8315  0.8362 -0.8349
  126OSM   C10S13435   1.439   3.755   7.645  0.6156 -0.9037  0.2149
  126OSM   H10S13436   1.543   3.727   7.670  2.3322  1.7376 -3.2003
  126OSM   H10T13437   1.388   3.662   7.677 -0.4326  0.0584  1.4598
  126OSM   C11S13438   1.389   3.869   7.736 -0.1109  0.1110  0.3050
  126OSM   H11S13439   1.280   3.874   7.718 -0.0769  0.8732  0.2885
  126OSM   H11T13440   1.447   3.962   7.717 -0.4095  0.2526  0.0799
  126OSM   C12S13441   1.396   3.838   7.886 -0.0090  0.2864 -0.3957
  126OSM   H12S13442   1.329   3.751   7.901  0.1084  0.3613  0.6460
  126OSM   H12T13443   1.357   3.928   7.938  2.2792  0.8487  0.4801
  126OSM   C13S13444   1.537   3.801   7.948  0.6596  0.9585 -0.0336
  126OSM   H13S13445   1.600   3.884   7.912 -0.5700  1.4636 -1.0874
  126OSM   H13T13446   1.566   3.708   7.894 -0.4486  0.5693  0.0166
  126OSM   C14S13447   1.537   3.775   8.101  0.4620  0.2352  0.2609
  126OSM   H14S13448   1.455   3.703   8.119  2.1617 -1.6560  0.8870
  126OSM   H14T13449   1.530   3.873   8.152  1.4597  0.8363 -0.7010
  126OSM   C15S13450   1.671   3.712   8.135 -1.1367  0.2261  0.3366
  126OSM   H15S13451   1.750   3.786   8.110 -2.1675  0.6936 -1.6909
  126OSM   H15T13452   1.699   3.630   8.066  2.1159  2.3579 -1.1384
  126OSM   C16S13453   1.681   3.674   8.283  0.2787  0.2338 -0.6736
  126OSM   H16S13454   1.777   3.621   8.298 -0.0377 -0.0425  0.4744
  126OSM   H16T13455   1.600   3.600   8.297  1.3890 -1.1065 -1.0831
  126OSM   C17S13456   1.662   3.787   8.384 -0.4397 -0.0489 -0.5862
  126OSM   H17S13457   1.561   3.832   8.391  0.3300  1.4543  2.0919
  126OSM   H17T13458   1.729   3.872   8.359 -1.0503  1.0410  1.3356
  126OSM   C18S13459   1.685   3.742   8.527 -0.3734  0.1436  0.0701
  126OSM   H18S13460   1.794   3.742   8.546 -0.2967 -0.2824 -0.3516
  126OSM   H18T13461   1.638   3.645   8.555  2.2144 -0.5938  2.2596
  126OSM   H18U13462   1.646   3.819   8.597 -0.1143  0.7649 -0.4724
  126OSM    C1F13463   0.758   3.914   7.007  0.1340  0.2075  0.1044
  126OSM     OF13464   0.682   3.855   6.929  1.0167 -0.4545 -0.1781
  126OSM    C2F13465   0.721   3.974   7.135 -0.7453 -0.3110 -0.4248
  126OSM    H2F13466   0.803   4.041   7.171 -1.4891 -0.0994  0.9624
  126OSM    H2G13467   0.708   3.904   7.220 -0.3929 -0.4927 -0.5188
  126OSM    C3F13468   0.596   4.069   7.123 -0.5646  0.9819  1.1144
  126OSM    H3F13469   0.504   4.010   7.104 -0.9629  0.3030  4.5508
  126OSM    H3G13470   0.614   4.135   7.036 -5.3115 -1.6923 -2.4047
  126OSM    C4F13471   0.567   4.145   7.255 -0.3177 -0.4032  0.0326
  126OSM    H4F13472   0.500   4.230   7.234  2.5688  2.0610  0.0445
  126OSM    H4G13473   0.665   4.193   7.277 -0.5506  1.2423 -2.1722
  126OSM    C5F13474   0.519   4.050   7.361 -0.3170  0.5208  0.0350
  126OSM    H5F13475   0.609   3.993   7.392  0.3777  0.5448 -1.8079
  126OSM    H5G13476   0.444   3.987   7.308 -0.6424  2.0692 -1.4433
  126OSM    C6F13477   0.454   4.118   7.484  0.3437 -0.0110 -0.4566
  126OSM    H6F13478   0.352   4.146   7.453  0.2129 -2.5662 -2.7195
  126OSM    H6G13479   0.516   4.207   7.507  1.6438 -0.5275 -1.8079
  126OSM    C7F13480   0.450   4.015   7.599  0.4778  0.0954 -0.2085
  126OSM    H7F13481   0.554   3.975   7.595  0.1541 -0.7042 -0.9151
  126OSM    H7G13482   0.376   3.936   7.572  0.2752  0.0731  0.4047
  126OSM    C8F13483   0.439   4.081   7.732 -0.2415  0.1479  0.6285
  126OSM    H8F13484   0.514   4.163   7.733  0.3185 -0.3550  2.0162
  126OSM    H8G13485   0.460   4.005   7.809 -0.7329  0.3721  0.9948
  126OSM    C9F13486   0.300   4.140   7.746  0.0840  0.5354 -0.0748
  126OSM    H9F13487   0.258   4.189   7.657  2.0111  0.3107 -1.1652
  126OSM   C10F13488   0.227   4.120   7.859  0.9327 -0.0179 -0.4452
  126OSM   H10F13489   0.126   4.163   7.861  0.2889 -1.4839  0.2453
  126OSM   C11F13490   0.254   4.041   7.986 -0.1997 -0.8383 -0.5803
  126OSM   H11F13491   0.351   3.988   7.984 -0.5573 -1.8062  2.5097
  126OSM   H11G13492   0.176   3.964   8.003 -0.9908  0.3853  1.8683
  126OSM   C12F13493   0.254   4.133   8.120 -0.5698 -0.0656  0.1525
  126OSM   H12F13494   0.254   4.062   8.206 -1.6712 -1.1951 -0.7473
  126OSM   H12G13495   0.168   4.202   8.122 -1.1536 -0.7961  1.4336
  126OSM   C13F13496   0.390   4.209   8.133  0.3992  0.1285  0.0031
  126OSM   H13F13497   0.408   4.258   8.035 -1.2835 -1.6886 -1.2962
  126OSM   H13G13498   0.473   4.136   8.143 -0.6702 -0.8113  3.1741
  126OSM   C14F13499   0.387   4.313   8.246 -0.1915  1.1299 -0.7739
  126OSM   H14F13500   0.288   4.362   8.256 -0.4864  0.4889 -0.5733
  126OSM   H14G13501   0.466   4.391   8.234 -0.1477  1.4617  1.2826
  126OSM   C15F13502   0.417   4.242   8.386 -0.1842 -1.3578  0.3763
  126OSM   H15F13503   0.528   4.229   8.395  0.2359 -0.7874 -2.7987
  126OSM   H15G13504   0.365   4.145   8.399 -1.6421 -0.4844  1.2917
  126OSM   C16F13505   0.386   4.339   8.506  0.6686  0.6579  0.6869
  126OSM   H16F13506   0.364   4.273   8.593  0.9672 -1.4742 -0.7795
  126OSM   H16G13507   0.288   4.388   8.486 -0.1604 -0.7391  1.1372
  126OSM   C17F13508   0.501   4.439   8.529 -0.4147 -0.6460  0.4369
  126OSM   H17F13509   0.574   4.430   8.446  0.3489  2.4642  0.6455
  126OSM   H17G13510   0.554   4.434   8.626  2.7432 -1.1690 -1.1845
  126OSM   C18F13511   0.448   4.579   8.514  0.5350  0.3216 -0.3752
  126OSM   H18F13512   0.528   4.646   8.553  0.6711  0.5472 -1.0346
  126OSM   H18G13513   0.356   4.598   8.573  1.9657  3.2859  1.1353
  126OSM   H18H13514   0.434   4.609   8.408  0.1699 -0.5036 -0.5659
  127OSM      N13515   0.858   6.780   6.255 -0.5149  0.6618  0.0400
  127OSM    C1513516   0.761   6.750   6.147  0.3691  0.7188 -0.2464
  127OSM   H15A13517   0.762   6.831   6.076 -1.8355  0.9591 -0.0861
  127OSM   H15B13518   0.665   6.740   6.196  1.6652 -1.9821  2.0584
  127OSM   H15C13519   0.783   6.658   6.095  1.4060  0.5520  0.4663
  127OSM    C1413520   0.977   6.840   6.188 -0.1595  0.0486  0.0392
  127OSM   H14A13521   1.004   6.789   6.097 -0.0765  1.6421 -0.8668
  127OSM   H14B13522   1.060   6.843   6.257 -0.7380  0.6189  0.7294
  127OSM   H14C13523   0.958   6.938   6.147  0.2680  0.5695  1.0405
  127OSM    C1313524   0.808   6.869   6.353  0.4776 -0.6216  0.2780
  127OSM   H13A13525   0.883   6.907   6.421  1.8124  0.1638 -1.5406
  127OSM   H13B13526   0.724   6.818   6.399  0.1221 -0.0377  0.2930
  127OSM   H13C13527   0.762   6.954   6.304 -0.5053 -2.5670 -2.3817
  127OSM    C1213528   0.903   6.650   6.321 -0.1231 -0.7070 -0.8362
  127OSM   H12A13529   0.814   6.610   6.367 -0.6014 -0.3224 -1.4058
  127OSM   H12B13530   0.974   6.678   6.396  0.2132  1.2193 -1.7883
  127OSM    C1113531   0.974   6.545   6.241 -0.1342  0.2967  0.3873
  127OSM   H11A13532   0.920   6.515   6.149 -0.8833 -0.1510  0.9682
  127OSM   H11B13533   0.975   6.460   6.311 -0.8439  0.5186  0.6760
  127OSM      P13534   1.219   6.477   6.216 -0.0740  0.2172  0.2956
  127OSM    O1313535   1.171   6.352   6.157 -0.1154  0.8844 -0.5940
  127OSM    O1413536   1.336   6.526   6.141 -0.7236 -0.3804 -0.2431
  127OSM    O1113537   1.241   6.469   6.371 -0.1146  0.4379  0.2574
  127OSM    O1213538   1.107   6.589   6.208 -0.2006 -0.1326  0.2103
  127OSM    C1S13539   1.265   6.593   6.438  0.0926 -0.1110  0.9228
  127OSM    H1S13540   1.199   6.676   6.403 -1.5910 -1.3481  1.0455
  127OSM    H1T13541   1.366   6.629   6.409 -0.1091 -1.0280 -1.0662
  127OSM     NF13542   1.269   6.709   6.654  0.6003  0.1769 -0.3351
  127OSM    HNF13543   1.353   6.738   6.699  0.6065 -1.7398  0.9867
  127OSM    C2S13544   1.267   6.574   6.594  0.3396 -0.2921  0.6395
  127OSM    H2S13545   1.166   6.533   6.616 -0.1828  0.0717 -0.9297
  127OSM    C3S13546   1.377   6.471   6.647  0.0101  0.5665 -1.0267
  127OSM    H3S13547   1.478   6.508   6.620  1.0631  0.0855  1.9121
  127OSM     O313548   1.368   6.340   6.592 -0.6733  0.3070 -0.2397
  127OSM    HO313549   1.287   6.339   6.540 -0.9763  0.3362  0.2288
  127OSM    C4S13550   1.347   6.464   6.800  0.5861 -0.4749 -0.1560
  127OSM    H4S13551   1.376   6.549   6.864 -1.3201 -0.2239  0.4422
  127OSM    C5S13552   1.274   6.365   6.857 -0.0783  0.3083 -0.1585
  127OSM    H5S13553   1.247   6.280   6.793 -2.5702  2.4361 -2.2178
  127OSM    C6S13554   1.231   6.341   6.999 -0.0530 -0.0255 -0.3710
  127OSM    H6S13555   1.305   6.279   7.054  0.4031  0.5860 -0.2832
  127OSM    H6T13556   1.134   6.288   7.003  0.1063 -0.3340  3.2750
  127OSM    C7S13557   1.208   6.454   7.102  0.2702  1.2854  0.3504
  127OSM    H7S13558   1.138   6.520   7.048 -2.8439 -1.7430  0.2927
  127OSM    H7T13559   1.313   6.490   7.109  1.4392 -1.6269 -0.5547
  127OSM    C8S13560   1.143   6.402   7.227 -0.0316  0.1722  0.2608
  127OSM    H8S13561   1.219   6.328   7.257 -0.0191  0.3093  0.5812
  127OSM    H8T13562   1.041   6.358   7.218 -0.3327  1.0412 -0.7537
  127OSM    C9S13563   1.127   6.516   7.327 -0.5010  0.4827 -0.2944
  127OSM    H9S13564   1.075   6.602   7.281 -1.5456  0.9519  1.6353
  127OSM    H9T13565   1.225   6.552   7.365  0.0563 -1.2165 -0.0370
  127OSM   C10S13566   1.058   6.477   7.457  0.5335 -0.1407  0.2408
  127OSM   H10S13567   1.099   6.384   7.502  1.5404  0.0009 -0.3696
  127OSM   H10T13568   0.949   6.475   7.435  0.3275  2.5441  0.6654
  127OSM   C11S13569   1.082   6.586   7.563  0.1705  1.0047  0.3781
  127OSM   H11S13570   1.055   6.684   7.518 -1.5491  2.5929  4.4153
  127OSM   H11T13571   1.192   6.581   7.578  0.2836 -1.6437 -0.6606
  127OSM   C12S13572   1.017   6.570   7.704  0.1236 -0.2285  0.3159
  127OSM   H12S13573   1.060   6.478   7.749 -0.7680 -1.1178 -0.6232
  127OSM   H12T13574   0.908   6.554   7.703 -0.1958  1.6259  1.0226
  127OSM   C13S13575   1.050   6.681   7.808 -0.2995  0.3215  0.7180
  127OSM   H13S13576   0.995   6.771   7.772 -0.3021 -0.4413 -1.3141
  127OSM   H13T13577   1.158   6.709   7.808 -0.5316  1.4364 -1.5134
  127OSM   C14S13578   1.002   6.644   7.953 -0.1314 -0.3138  0.2071
  127OSM   H14S13579   1.026   6.727   8.023  0.4174  0.8915 -1.3395
  127OSM   H14T13580   1.042   6.544   7.978 -1.4620 -0.8855  0.1216
  127OSM   C15S13581   0.851   6.623   7.962  0.8766 -0.2743 -0.3334
  127OSM   H15S13582   0.824   6.544   7.888  0.1605  2.0131 -2.6557
  127OSM   H15T13583   0.807   6.719   7.927 -0.9759 -1.1613 -0.5772
  127OSM   C16S13584   0.812   6.584   8.102  0.5728 -0.5045 -0.0904
  127OSM   H16S13585   0.853   6.657   8.175  2.3790 -0.9087 -0.6510
  127OSM   H16T13586   0.854   6.483   8.124  0.3229 -1.4772 -3.5742
  127OSM   C17S13587   0.655   6.590   8.127 -0.5663  0.0290 -0.2034
  127OSM   H17S13588   0.601   6.535   8.046  1.2882 -1.0028 -0.7962
  127OSM   H17T13589   0.616   6.695   8.132 -1.0674 -0.1954  0.8364
  127OSM   C18S13590   0.631   6.531   8.272 -0.0714 -0.9209 -0.2415
  127OSM   H18S13591   0.663   6.425   8.274  0.1230 -0.8775 -0.9887
  127OSM   H18T13592   0.522   6.538   8.296  0.0051 -0.8429  0.0912
  127OSM   H18U13593   0.678   6.582   8.359 -0.6487 -1.7916  0.6000
  127OSM    C1F13594   1.170   6.797   6.635 -0.2104  0.0648 -0.2869
  127OSM     OF13595   1.063   6.770   6.590  0.4329  0.2148  0.0026
  127OSM    C2F13596   1.200   6.929   6.694 -0.3871 -0.7366 -0.2113
  127OSM    H2F13597   1.135   7.002   6.640 -0.1093 -1.2602 -1.2839
  127OSM    H2G13598   1.307   6.952   6.677 -0.2748 -0.5517  0.6831
  127OSM    C3F13599   1.160   6.935   6.845  0.4784 -0.0740 -0.5252
  127OSM    H3F13600   1.058   6.902   6.873  0.6352  0.7279  1.0789
  127OSM    H3G13601   1.166   7.036   6.889  1.0749 -0.8608  1.2892
  127OSM    C4F13602   1.259   6.854   6.929 -0.2975  0.1971 -0.3481
  127OSM    H4F13603   1.362   6.871   6.892  0.1484  0.0665  0.7936
  127OSM    H4G13604   1.225   6.749   6.915 -1.1612  0.5879 -1.3808
  127OSM    C5F13605   1.238   6.881   7.073 -0.7013  0.0011  0.0962
  127OSM    H5F13606   1.141   6.840   7.106 -0.8099 -1.2603 -1.6973
  127OSM    H5G13607   1.236   6.990   7.097  0.5734 -0.3407  2.0054
  127OSM    C6F13608   1.350   6.816   7.162 -0.3914 -0.2571  0.4563
  127OSM    H6F13609   1.450   6.835   7.119 -1.6434  0.4953 -2.3299
  127OSM    H6G13610   1.328   6.707   7.163 -1.5886 -0.0337 -0.2455
  127OSM    C7F13611   1.349   6.858   7.307  0.5268  0.0796  0.5936
  127OSM    H7F13612   1.260   6.814   7.357  0.2911 -0.4286 -0.2473
  127OSM    H7G13613   1.331   6.967   7.297  1.0329 -0.0219 -2.2644
  127OSM    C8F13614   1.470   6.823   7.384 -0.5498  0.7096  0.4086
  127OSM    H8F13615   1.437   6.793   7.485 -1.3378 -1.6559 -0.4820
  127OSM    H8G13616   1.536   6.909   7.410 -1.0652  1.5409 -0.9355
  127OSM    C9F13617   1.542   6.705   7.322  0.0561 -0.1428 -0.1643
  127OSM    H9F13618   1.602   6.741   7.237 -0.6793  0.2970 -0.5070
  127OSM   C10F13619   1.533   6.574   7.363  0.5415  0.2324 -0.1738
  127OSM   H10F13620   1.592   6.496   7.313  1.1752 -0.4259  1.5311
  127OSM   C11F13621   1.449   6.530   7.485 -0.2871  0.1837 -0.0069
  127OSM   H11F13622   1.393   6.436   7.467 -1.3205  0.8445 -0.2991
  127OSM   H11G13623   1.370   6.607   7.497 -0.0162  0.2100  1.9973
  127OSM   C12F13624   1.550   6.525   7.605  0.1310  0.0838 -0.0927
  127OSM   H12F13625   1.586   6.629   7.620  0.8952  0.0005 -1.2516
  127OSM   H12G13626   1.631   6.453   7.583 -1.6614 -1.8536 -0.6530
  127OSM   C13F13627   1.472   6.491   7.735 -0.0175 -0.2426 -0.2027
  127OSM   H13F13628   1.452   6.381   7.739  0.2840 -0.3636 -1.3892
  127OSM   H13G13629   1.375   6.544   7.738 -1.4988 -2.6584 -1.4326
  127OSM   C14F13630   1.557   6.525   7.861 -0.3852 -0.8344  0.2214
  127OSM   H14F13631   1.592   6.630   7.859  0.2888 -1.0630 -0.3341
  127OSM   H14G13632   1.652   6.469   7.850 -0.7400 -1.3565 -0.2702
  127OSM   C15F13633   1.488   6.489   7.993 -0.0482  0.5404 -0.2528
  127OSM   H15F13634   1.561   6.473   8.076 -0.5167  1.5112  0.3581
  127OSM   H15G13635   1.453   6.385   7.978  2.6342 -0.4983  0.1383
  127OSM   C16F13636   1.379   6.582   8.044  0.2517  0.3286  0.3979
  127OSM   H16F13637   1.290   6.575   7.978  0.3077  0.2289  0.3345
  127OSM   H16G13638   1.414   6.688   8.045  2.3192 -0.3014  1.9335
  127OSM   C17F13639   1.310   6.557   8.183  0.2402  0.0251  0.2251
  127OSM   H17F13640   1.234   6.635   8.204  0.3051 -0.6925  3.6269
  127OSM   H17G13641   1.390   6.568   8.259  1.4337 -0.4548 -0.9224
  127OSM   C18F13642   1.257   6.416   8.207 -0.0974  0.0725 -0.1826
  127OSM   H18F13643   1.342   6.350   8.179  2.2752  1.8076  2.3598
  127OSM   H18G13644   1.172   6.393   8.140 -1.0176 -0.8266  1.2370
  127OSM   H18H13645   1.231   6.398   8.313 -1.0238  1.4795 -0.1493
  128OSM      N13646   6.557   2.767   6.217 -0.4219 -0.2680  0.4424
  128OSM    C1513647   6.618   2.742   6.078  0.1600  0.2840  0.3146
  128OSM   H15A13648   6.723   2.721   6.094 -0.0475 -1.9865 -0.9644
  128OSM   H15B13649   6.606   2.829   6.014  0.0571  0.1461  0.1455
  128OSM   H15C13650   6.581   2.660   6.019  2.4399  0.6203 -1.7539
  128OSM    C1413651   6.578   2.902   6.261  0.5954  0.4296 -0.2305
  128OSM   H14A13652   6.534   2.929   6.356  0.5133  1.6535 -0.6049
  128OSM   H14B13653   6.518   2.968   6.201  1.4511 -0.5671 -2.2628
  128OSM   H14C13654   6.680   2.938   6.256  0.1595  1.5179 -3.6265
  128OSM    C1313655   6.406   2.737   6.213  0.8006 -0.0253  0.6281
  128OSM   H13A13656   6.387   2.631   6.203  0.9634 -0.2045  2.0872
  128OSM   H13B13657   6.373   2.788   6.124  3.6812  2.3235  0.7514
  128OSM   H13C13658   6.358   2.763   6.306 -1.3808 -2.2022  0.2177
  128OSM    C1213659   6.611   2.668   6.318 -0.0954  0.4859 -0.0411
  128OSM   H12A13660   6.583   2.569   6.284 -1.0429  0.5864  0.4330
  128OSM   H12B13661   6.552   2.676   6.408  0.2042 -2.0942  0.4779
  128OSM    C1113662   6.764   2.675   6.355  0.9061 -0.0133 -0.3690
  128OSM   H11A13663   6.781   2.619   6.450 -1.1196  1.3524  0.8873
  128OSM   H11B13664   6.788   2.781   6.377 -1.1017  0.2313  0.9555
  128OSM      P13665   6.980   2.689   6.224 -0.4593  0.3594  0.8607
  128OSM    O1313666   7.054   2.638   6.107 -0.4561  0.1990 -0.6471
  128OSM    O1413667   6.974   2.842   6.221 -0.1492  0.4470 -0.5766
  128OSM    O1113668   7.058   2.646   6.354  0.7131  0.4905  0.0458
  128OSM    O1213669   6.842   2.621   6.249 -0.1481 -0.5193  0.1855
  128OSM    C1S13670   7.068   2.521   6.410  0.2470 -0.0623 -0.9814
  128OSM    H1S13671   7.133   2.452   6.352  0.0401 -2.2101  1.1463
  128OSM    H1T13672   6.968   2.472   6.416 -1.4567  3.3084  0.9948
  128OSM     NF13673   7.106   2.385   6.617 -0.0616 -0.0346  0.1982
  128OSM    HNF13674   7.023   2.348   6.660  1.0085 -1.8076  0.8456
  128OSM    C2S13675   7.101   2.525   6.564  0.3724  0.6144 -0.6148
  128OSM    H2S13676   7.193   2.586   6.574  0.9696 -0.5250  1.2692
  128OSM    C3S13677   7.004   2.611   6.639  0.5190 -0.1016 -0.3755
  128OSM    H3S13678   6.902   2.569   6.624  1.2879 -2.5558  0.7484
  128OSM     O313679   7.004   2.745   6.588  0.1803 -0.2877  0.1569
  128OSM    HO313680   7.028   2.725   6.497 -0.4325  0.2072 -0.1171
  128OSM    C4S13681   7.027   2.596   6.789  0.2723  0.4921  0.7423
  128OSM    H4S13682   6.964   2.523   6.843 -0.4920  2.5010  2.7022
  128OSM    C5S13683   7.107   2.680   6.860  0.9822  1.0460 -0.5210
  128OSM    H5S13684   7.148   2.763   6.801 -0.9408  1.2021 -1.7170
  128OSM    C6S13685   7.129   2.672   7.012  0.3288 -0.8769  0.1532
  128OSM    H6S13686   7.068   2.752   7.060  1.5403  1.1084 -1.4357
  128OSM    H6T13687   7.228   2.710   7.043  0.8384 -1.8825 -0.1909
  128OSM    C7S13688   7.107   2.537   7.084 -0.3954 -0.3880 -0.2069
  128OSM    H7S13689   7.130   2.459   7.008 -2.1624  1.0339 -2.3266
  128OSM    H7T13690   7.003   2.509   7.111  0.0312 -0.4148  1.5315
  128OSM    C8S13691   7.203   2.526   7.203  0.1012  0.3481 -0.0518
  128OSM    H8S13692   7.304   2.567   7.183 -0.4076  1.2837 -0.7902
  128OSM    H8T13693   7.215   2.422   7.241 -0.8895  0.8934  1.8824
  128OSM    C9S13694   7.151   2.603   7.330 -0.0810  0.7087  0.1693
  128OSM    H9S13695   7.054   2.564   7.367  0.6568 -1.0091  0.3933
  128OSM    H9T13696   7.143   2.711   7.304 -0.8691  0.5011 -0.4924
  128OSM   C10S13697   7.249   2.588   7.448  0.2342  0.9542  0.3123
  128OSM   H10S13698   7.343   2.637   7.414  0.1191  0.1176 -1.3062
  128OSM   H10T13699   7.266   2.480   7.468 -2.2054  0.2221 -1.0791
  128OSM   C11S13700   7.184   2.656   7.571 -0.3080 -0.0631  0.0869
  128OSM   H11S13701   7.105   2.587   7.605  0.8478 -1.8134 -0.5891
  128OSM   H11T13702   7.132   2.751   7.548  2.0698  0.9094 -1.7006
  128OSM   C12S13703   7.292   2.679   7.683  0.3222  1.4948  0.3210
  128OSM   H12S13704   7.381   2.733   7.643  1.2184 -0.5148 -0.5818
  128OSM   H12T13705   7.332   2.579   7.711 -2.8211 -0.3197 -1.1187
  128OSM   C13S13706   7.244   2.745   7.815  1.2283 -0.6206 -0.5146
  128OSM   H13S13707   7.169   2.678   7.862  0.4438  0.3889 -0.2998
  128OSM   H13T13708   7.204   2.846   7.795  0.2722 -0.8565  0.1471
  128OSM   C14S13709   7.345   2.776   7.920  0.4228  1.0415  0.1172
  128OSM   H14S13710   7.417   2.849   7.877 -0.1445  2.0045  0.7939
  128OSM   H14T13711   7.403   2.682   7.940  0.5561  0.5980 -2.1554
  128OSM   C15S13712   7.292   2.833   8.050 -0.3314 -0.8291  0.7666
  128OSM   H15S13713   7.242   2.749   8.103  1.1110 -3.6650 -2.0692
  128OSM   H15T13714   7.218   2.911   8.021  0.3050  0.5704  2.7136
  128OSM   C16S13715   7.403   2.905   8.130  0.4600  0.0070  0.1422
  128OSM   H16S13716   7.441   2.999   8.084  2.9877  0.1828  2.3883
  128OSM   H16T13717   7.490   2.845   8.163 -0.1904 -0.4500  1.0475
  128OSM   C17S13718   7.344   2.941   8.265  0.1837 -0.0236 -0.5435
  128OSM   H17S13719   7.318   2.843   8.311 -2.0506  0.3062 -0.9568
  128OSM   H17T13720   7.245   2.986   8.243  0.1643  0.1405 -0.1323
  128OSM   C18S13721   7.430   3.017   8.362 -0.2613 -0.5911 -0.4169
  128OSM   H18S13722   7.388   3.019   8.464 -0.4136 -1.1308 -0.4665
  128OSM   H18T13723   7.448   3.120   8.324  0.2018 -0.4371  0.2104
  128OSM   H18U13724   7.526   2.962   8.371 -1.0587 -1.8248  0.8758
  128OSM    C1F13725   7.206   2.302   6.580 -0.5311 -0.4598  0.2147
  128OSM     OF13726   7.295   2.332   6.499 -0.6716  0.5218 -0.9046
  128OSM    C2F13727   7.189   2.163   6.625 -0.5870 -0.0579  0.5303
  128OSM    H2F13728   7.195   2.092   6.540  1.6084  0.9817 -0.2476
  128OSM    H2G13729   7.093   2.145   6.678  0.5106 -1.9676  1.9811
  128OSM    C3F13730   7.293   2.129   6.733  0.0259  0.1835 -0.3210
  128OSM    H3F13731   7.398   2.149   6.705  0.3119 -0.3777  0.3237
  128OSM    H3G13732   7.292   2.021   6.757 -1.3170 -0.0244 -1.2037
  128OSM    C4F13733   7.268   2.198   6.871 -0.6078  0.1363  0.1325
  128OSM    H4F13734   7.165   2.196   6.912 -0.8460 -0.2150 -0.4642
  128OSM    H4G13735   7.287   2.307   6.865  2.6139 -0.2725  1.0129
  128OSM    C5F13736   7.352   2.129   6.983 -0.0135 -0.0009 -0.9892
  128OSM    H5F13737   7.458   2.136   6.951  0.2832 -0.2437 -0.0955
  128OSM    H5G13738   7.316   2.024   6.988 -2.4628  0.7919 -0.7401
  128OSM    C6F13739   7.337   2.192   7.119  0.5165 -0.8546  0.2582
  128OSM    H6F13740   7.234   2.168   7.154  0.2315  0.8185  0.6359
  128OSM    H6G13741   7.347   2.303   7.120  1.6261 -0.9388  0.0292
  128OSM    C7F13742   7.453   2.153   7.221  0.8099 -0.0698  0.4511
  128OSM    H7F13743   7.556   2.168   7.182  0.4169 -1.2851 -1.1218
  128OSM    H7G13744   7.451   2.044   7.238 -0.2960  0.0861  1.5334
  128OSM    C8F13745   7.435   2.224   7.357  0.3458  0.3380 -0.0351
  128OSM    H8F13746   7.447   2.329   7.322 -1.9855  0.8922  0.6465
  128OSM    H8G13747   7.510   2.174   7.421 -1.2455  0.7783  2.3087
  128OSM    C9F13748   7.309   2.202   7.436  0.2214  0.3359  0.4241
  128OSM    H9F13749   7.217   2.199   7.377  0.9544 -0.1598 -0.7431
  128OSM   C10F13750   7.299   2.177   7.566  0.2620 -0.3959  0.8676
  128OSM   H10F13751   7.201   2.154   7.610 -0.8232  0.1057 -1.2028
  128OSM   C11F13752   7.412   2.167   7.665 -0.3472 -0.1620 -0.0990
  128OSM   H11F13753   7.512   2.201   7.632 -0.0837 -1.9559 -1.2841
  128OSM   H11G13754   7.419   2.058   7.685 -2.2018  0.0515  2.2440
  128OSM   C12F13755   7.377   2.243   7.795 -0.4233  0.0070 -0.1036
  128OSM   H12F13756   7.268   2.227   7.813 -0.3621 -0.6081 -0.2427
  128OSM   H12G13757   7.400   2.350   7.780  0.3318  0.0591  1.3210
  128OSM   C13F13758   7.457   2.208   7.922  0.0549 -1.1077  0.3336
  128OSM   H13F13759   7.565   2.232   7.909 -0.3467  1.5259  1.4169
  128OSM   H13G13760   7.435   2.100   7.938 -0.4377 -1.0940 -0.1897
  128OSM   C14F13761   7.412   2.281   8.049  0.7519 -0.2868 -0.2354
  128OSM   H14F13762   7.401   2.201   8.125 -1.7755  0.3512  0.1685
  128OSM   H14G13763   7.315   2.334   8.033  2.2999  2.1842 -2.3492
  128OSM   C15F13764   7.511   2.380   8.111 -0.1527 -0.3681 -0.4392
  128OSM   H15F13765   7.528   2.464   8.040  0.9085 -0.5981 -0.4719
  128OSM   H15G13766   7.612   2.334   8.119  0.7614  1.6348  0.0951
  128OSM   C16F13767   7.463   2.416   8.251 -0.1935 -0.2930  0.2472
  128OSM   H16F13768   7.457   2.315   8.299 -0.3293 -0.5089 -0.2189
  128OSM   H16G13769   7.366   2.468   8.262  0.3853  0.2969  4.2048
  128OSM   C17F13770   7.563   2.509   8.323 -0.5070 -0.4802  0.0968
  128OSM   H17F13771   7.566   2.597   8.255 -2.4669  0.2090  0.8122
  128OSM   H17G13772   7.667   2.473   8.324  0.9885  3.0936 -2.7226
  128OSM   C18F13773   7.522   2.558   8.459  0.1422 -0.6874 -0.6411
  128OSM   H18F13774   7.415   2.589   8.458 -0.6905 -3.2687 -2.4711
  128OSM   H18G13775   7.594   2.628   8.507  0.5913 -1.5421 -0.0379
  128OSM   H18H13776   7.521   2.469   8.525 -0.6815  0.6878  1.3162
  129OSM      N13777   5.922   3.572   6.127 -0.8122 -0.2475 -0.0005
  129OSM    C1513778   5.884   3.651   6.003  0.8432  0.1081 -0.3835
  129OSM   H15A13779   5.781   3.682   6.010  1.4116  2.3485 -1.0357
  129OSM   H15B13780   5.886   3.591   5.913 -0.9211 -1.3456  0.4869
  129OSM   H15C13781   5.942   3.740   5.984 -0.3608  0.6005 -1.9888
  129OSM    C1413782   6.050   3.503   6.094  0.2893 -0.0063  0.0413
  129OSM   H14A13783   6.056   3.478   5.989  1.1018  0.9885 -0.1654
  129OSM   H14B13784   6.078   3.420   6.157 -0.3414  0.6276  1.1715
  129OSM   H14C13785   6.131   3.575   6.098 -0.6375  1.0134  0.8715
  129OSM    C1313786   5.924   3.657   6.248 -0.3251 -0.1907  0.2756
  129OSM   H13A13787   5.968   3.608   6.334  1.7586  3.6248  1.6485
  129OSM   H13B13788   5.826   3.699   6.265  0.6774  2.8452 -0.7454
  129OSM   H13C13789   5.984   3.745   6.230 -1.8572  0.8532  0.1444
  129OSM    C1213790   5.809   3.459   6.142 -0.0197  0.5788 -0.8046
  129OSM   H12A13791   5.837   3.387   6.217  0.5285  0.5323 -1.0445
  129OSM   H12B13792   5.821   3.401   6.051  0.9459  0.6639 -0.7422
  129OSM    C1113793   5.668   3.506   6.178 -0.3351  0.4280  0.5681
  129OSM   H11A13794   5.672   3.556   6.277  1.5919  0.7860  0.3337
  129OSM   H11B13795   5.606   3.413   6.186 -2.4200  1.7021  0.0345
  129OSM      P13796   5.554   3.741   6.112 -0.2221  0.2325  0.1418
  129OSM    O1313797   5.657   3.845   6.095 -0.1637  0.3128 -0.0519
  129OSM    O1413798   5.434   3.742   6.028  0.2167  0.3001  0.5206
  129OSM    O1113799   5.513   3.734   6.264 -0.4378 -0.0621 -0.2249
  129OSM    O1213800   5.611   3.597   6.088 -0.3452  0.2075 -0.7833
  129OSM    C1S13801   5.385   3.686   6.298 -0.8802 -0.1589 -0.1039
  129OSM    H1S13802   5.358   3.603   6.230  0.8968 -0.9065  0.0620
  129OSM    H1T13803   5.312   3.770   6.296  0.3325  0.9380 -0.0649
  129OSM     NF13804   5.247   3.570   6.470 -0.1928  0.1710 -0.5733
  129OSM    HNF13805   5.196   3.626   6.535 -0.6225 -1.2840  0.3946
  129OSM    C2S13806   5.385   3.628   6.445  0.2513 -0.1928  0.2057
  129OSM    H2S13807   5.458   3.544   6.445 -0.6872 -1.0593  1.7500
  129OSM    C3S13808   5.419   3.738   6.544 -0.1026  1.0263  0.2987
  129OSM    H3S13809   5.338   3.812   6.531 -0.3258  0.8060  0.4109
  129OSM     O313810   5.534   3.820   6.518 -0.0277 -0.4859 -0.2734
  129OSM    HO313811   5.546   3.819   6.423  1.1726 -0.4816 -0.1372
  129OSM    C4S13812   5.427   3.681   6.678  0.5238  0.0364 -0.4373
  129OSM    H4S13813   5.515   3.620   6.703  0.2550 -0.4224 -0.5957
  129OSM    C5S13814   5.339   3.701   6.778  0.5087 -0.2843  0.1398
  129OSM    H5S13815   5.247   3.761   6.766 -0.3816 -1.9563 -1.9994
  129OSM    C6S13816   5.343   3.650   6.920  0.1210  0.0950  0.4677
  129OSM    H6S13817   5.428   3.579   6.920 -0.7515 -1.0408 -1.3702
  129OSM    H6T13818   5.252   3.591   6.945  1.1401 -2.2477 -1.0166
  129OSM    C7S13819   5.356   3.750   7.038 -1.0200  0.4125  0.0697
  129OSM    H7S13820   5.256   3.797   7.056 -0.2768  1.5892  1.3059
  129OSM    H7T13821   5.433   3.827   7.019 -0.3792 -0.8613 -3.2148
  129OSM    C8S13822   5.371   3.672   7.177  0.3263  0.0161 -0.2335
  129OSM    H8S13823   5.415   3.739   7.254 -1.4682 -1.7238  2.4672
  129OSM    H8T13824   5.431   3.580   7.164 -0.2140 -0.2369 -1.0572
  129OSM    C9S13825   5.236   3.630   7.242 -0.5412  0.2204  0.5708
  129OSM    H9S13826   5.181   3.561   7.175  2.0847 -0.1873 -1.3009
  129OSM    H9T13827   5.170   3.717   7.267 -1.9374 -0.3330 -0.9750
  129OSM   C10S13828   5.264   3.556   7.367  0.2369  0.0201 -0.3346
  129OSM   H10S13829   5.336   3.603   7.437  0.7014  0.0445 -0.8265
  129OSM   H10T13830   5.317   3.465   7.332 -0.9889 -0.9182  0.1494
  129OSM   C11S13831   5.146   3.534   7.469  0.2315  0.5049  0.1227
  129OSM   H11S13832   5.071   3.477   7.410  3.5762 -3.0848 -1.1392
  129OSM   H11T13833   5.105   3.629   7.510 -1.8815 -1.0477  1.8304
  129OSM   C12S13834   5.191   3.458   7.595  0.1538  0.1569 -0.2252
  129OSM   H12S13835   5.275   3.516   7.640  1.6225 -2.1965  0.2761
  129OSM   H12T13836   5.225   3.354   7.577 -0.4623  0.3626 -3.0651
  129OSM   C13S13837   5.076   3.455   7.699  0.0663  0.4058  0.1418
  129OSM   H13S13838   4.994   3.387   7.667  0.7698  0.0681 -0.9528
  129OSM   H13T13839   5.028   3.555   7.708  2.3208  1.4889  0.9629
  129OSM   C14S13840   5.127   3.436   7.845  1.1454  0.0732  0.4294
  129OSM   H14S13841   5.215   3.500   7.869  0.9460  1.2213 -1.6042
  129OSM   H14T13842   5.141   3.327   7.860  2.7672  0.1781 -0.0805
  129OSM   C15S13843   5.011   3.473   7.944 -0.5170  0.4728 -0.2667
  129OSM   H15S13844   4.924   3.410   7.917 -1.5360  1.6370  0.1736
  129OSM   H15T13845   4.987   3.581   7.932  3.7061  1.4083 -2.1243
  129OSM   C16S13846   5.063   3.434   8.087  0.0651 -0.2723 -0.3072
  129OSM   H16S13847   5.152   3.496   8.111 -0.1835 -0.6273  1.7605
  129OSM   H16T13848   5.102   3.330   8.090 -0.6735 -0.6130 -1.7559
  129OSM   C17S13849   4.969   3.438   8.208  0.4116 -0.2040  0.5637
  129OSM   H17S13850   4.893   3.357   8.197 -0.3155  0.4783  0.4848
  129OSM   H17T13851   4.917   3.536   8.209  1.6194  0.4901 -1.1078
  129OSM   C18S13852   5.046   3.416   8.341  0.6249 -0.0188 -0.5341
  129OSM   H18S13853   5.101   3.513   8.348 -2.5201  2.0586 -2.2579
  129OSM   H18T13854   5.119   3.334   8.327  0.3762 -0.1168 -1.3459
  129OSM   H18U13855   4.991   3.412   8.437  2.5159  0.9789  0.6724
  129OSM    C1F13856   5.215   3.448   6.433 -0.3514 -0.9537 -0.0492
  129OSM     OF13857   5.287   3.384   6.354  0.3240  0.2943  0.3562
  129OSM    C2F13858   5.087   3.393   6.475  0.8061 -0.3706 -0.5864
  129OSM    H2F13859   5.035   3.359   6.383  0.4843 -1.4050 -0.0428
  129OSM    H2G13860   5.022   3.472   6.519  0.2710 -0.6920 -0.7812
  129OSM    C3F13861   5.122   3.264   6.548  0.3841  0.6999 -0.0226
  129OSM    H3F13862   5.174   3.186   6.489 -1.1357 -0.7313  0.4304
  129OSM    H3G13863   5.033   3.203   6.576 -0.0122  0.0467 -2.4589
  129OSM    C4F13864   5.202   3.293   6.679  1.0088  0.1803 -0.8859
  129OSM    H4F13865   5.135   3.333   6.757  1.2549 -0.4473 -0.3376
  129OSM    H4G13866   5.295   3.354   6.676  1.8321 -0.9066  0.8847
  129OSM    C5F13867   5.260   3.166   6.745  0.3582 -0.2521  0.8012
  129OSM    H5F13868   5.326   3.117   6.669  0.1308  1.5028 -0.6029
  129OSM    H5G13869   5.180   3.093   6.771  0.6837 -1.6299 -1.6913
  129OSM    C6F13870   5.329   3.191   6.878 -0.3965 -0.0207  0.3607
  129OSM    H6F13871   5.385   3.286   6.875  0.4302 -0.4445  1.7584
  129OSM    H6G13872   5.398   3.106   6.894 -0.3596 -0.5332 -2.0088
  129OSM    C7F13873   5.220   3.200   6.990 -0.3617  0.0375  0.3075
  129OSM    H7F13874   5.150   3.114   6.980 -2.3977  1.2846  2.9182
  129OSM    H7G13875   5.159   3.292   6.983  0.4626  0.4733 -2.4104
  129OSM    C8F13876   5.281   3.187   7.132  0.1450  0.5312  0.3585
  129OSM    H8F13877   5.348   3.274   7.149  0.5358  0.5325 -1.0704
  129OSM    H8G13878   5.347   3.098   7.126 -1.2723 -0.4774 -1.1033
  129OSM    C9F13879   5.175   3.185   7.234  0.2259  0.2042 -0.5008
  129OSM    H9F13880   5.087   3.250   7.220  0.1278  0.4532  1.0557
  129OSM   C10F13881   5.169   3.100   7.341 -0.3014 -0.1507 -0.3378
  129OSM   H10F13882   5.089   3.097   7.416  2.1017 -1.8340  2.3649
  129OSM   C11F13883   5.273   2.996   7.377  0.2977  0.0520  0.3752
  129OSM   H11F13884   5.328   2.957   7.289  0.1753 -1.8059  1.0836
  129OSM   H11G13885   5.216   2.909   7.417 -0.4775  0.1280 -0.5371
  129OSM   C12F13886   5.362   3.031   7.494 -0.0595 -0.9750  0.3163
  129OSM   H12F13887   5.415   3.126   7.474 -2.1212 -0.0350 -0.8708
  129OSM   H12G13888   5.436   2.949   7.508 -0.2319 -0.9920  1.1802
  129OSM   C13F13889   5.274   3.051   7.619  0.2345 -0.5589 -0.1176
  129OSM   H13F13890   5.212   2.963   7.647 -0.0955  0.1235  1.4039
  129OSM   H13G13891   5.193   3.121   7.591  0.6424 -0.3401 -0.7775
  129OSM   C14F13892   5.343   3.080   7.753  0.0221 -0.2476 -0.0057
  129OSM   H14F13893   5.375   3.186   7.767 -1.4198  0.3932 -1.3858
  129OSM   H14G13894   5.427   3.008   7.764 -1.5744 -1.9124  2.4212
  129OSM   C15F13895   5.251   3.043   7.868 -0.1110 -0.2812 -0.5524
  129OSM   H15F13896   5.234   2.934   7.869  2.1876 -0.6839 -0.8203
  129OSM   H15G13897   5.156   3.101   7.864  0.4026  0.6307  0.0644
  129OSM   C16F13898   5.317   3.084   8.002  0.6392 -0.1926  0.2838
  129OSM   H16F13899   5.339   3.193   8.014  0.4604 -0.0942 -0.2868
  129OSM   H16G13900   5.418   3.039   7.986  1.0206  0.5036  0.6510
  129OSM   C17F13901   5.248   3.053   8.136  0.2328  0.4833 -0.2070
  129OSM   H17F13902   5.213   2.948   8.143  1.8101 -0.1357 -1.0775
  129OSM   H17G13903   5.155   3.112   8.144 -2.3239 -2.8971 -2.4277
  129OSM   C18F13904   5.348   3.059   8.253 -0.3047 -0.2874 -0.0328
  129OSM   H18F13905   5.449   3.017   8.229  0.6744  1.3281  1.0572
  129OSM   H18G13906   5.302   3.013   8.342 -2.1742 -0.1460 -0.8869
  129OSM   H18H13907   5.380   3.164   8.271 -3.0333  0.5100  0.5720
  130OSM      N13908   4.462   1.020   6.005 -0.1218 -0.0928  0.9436
  130OSM    C1513909   4.589   0.994   6.075 -0.2123  0.2624  0.0778
  130OSM   H15A13910   4.623   1.076   6.137  1.3004  1.6035 -2.3413
  130OSM   H15B13911   4.671   0.958   6.015  1.2073  1.7894  0.9949
  130OSM   H15C13912   4.579   0.913   6.145  0.2630  1.0134  1.0486
  130OSM    C1413913   4.503   1.083   5.875 -0.6090 -0.2881 -0.3768
  130OSM   H14A13914   4.572   1.165   5.888 -1.5536  0.3428  1.0101
  130OSM   H14B13915   4.414   1.111   5.820 -0.9540 -1.1405 -0.2669
  130OSM   H14C13916   4.563   1.011   5.822 -1.2670 -0.7988 -0.4361
  130OSM    C1313917   4.384   0.888   5.977  0.6023  0.2075 -0.0904
  130OSM   H13A13918   4.445   0.838   5.904  0.8227 -2.3861  1.7236
  130OSM   H13B13919   4.287   0.915   5.939  0.6205  0.0837 -0.2253
  130OSM   H13C13920   4.386   0.834   6.071 -0.2974  1.2796  0.5858
  130OSM    C1213921   4.380   1.115   6.081  0.2086  0.2284 -0.2254
  130OSM   H12A13922   4.279   1.118   6.042 -0.3349  0.4103  1.1262
  130OSM   H12B13923   4.423   1.212   6.062  0.0296  0.1224 -1.2058
  130OSM    C1113924   4.366   1.114   6.236 -0.0184  0.1833  0.7474
  130OSM   H11A13925   4.322   1.213   6.260  1.3755  1.1559 -0.4755
  130OSM   H11B13926   4.470   1.108   6.274  0.4555  0.3592 -0.4859
  130OSM      P13927   4.143   0.974   6.232 -0.4404 -0.0793 -0.0098
  130OSM    O1313928   4.111   1.055   6.112 -0.5968 -0.2545  0.5154
  130OSM    O1413929   4.116   0.827   6.234 -0.1684 -0.1532  0.7252
  130OSM    O1113930   4.057   1.027   6.354 -0.0017  0.0526  0.0965
  130OSM    O1213931   4.293   0.999   6.277 -0.8562  0.7124 -0.1359
  130OSM    C1S13932   4.093   0.991   6.485 -0.5082 -0.3687 -0.0927
  130OSM    H1S13933   4.147   0.895   6.500  1.0063  0.7243  1.9675
  130OSM    H1T13934   3.995   0.984   6.538  0.4749  1.3945  2.1419
  130OSM     NF13935   4.183   1.069   6.715  0.0485  0.1720 -0.0585
  130OSM    HNF13936   4.133   1.130   6.777  0.0350 -0.8158  0.9315
  130OSM    C2S13937   4.170   1.098   6.568  0.1899  0.0547  0.2157
  130OSM    H2S13938   4.273   1.093   6.526 -0.1099  1.5823 -0.7917
  130OSM    C3S13939   4.115   1.244   6.541 -0.0094  0.6985 -0.2624
  130OSM    H3S13940   4.011   1.247   6.578 -0.3026  3.1783 -1.0614
  130OSM     O313941   4.107   1.278   6.401  0.0671  0.4255  0.1303
  130OSM    HO313942   4.084   1.194   6.360 -0.4326  0.2262  0.7857
  130OSM    C4S13943   4.195   1.345   6.616 -0.5759  0.1765 -1.1948
  130OSM    H4S13944   4.165   1.349   6.722  3.3215 -1.9227  0.2017
  130OSM    C5S13945   4.294   1.423   6.572  0.2858 -0.4032 -0.0008
  130OSM    H5S13946   4.326   1.412   6.468 -0.4516 -0.9408 -0.1810
  130OSM    C6S13947   4.378   1.521   6.654 -0.1835  0.1659 -0.3525
  130OSM    H6S13948   4.365   1.622   6.610 -0.4576  0.0501 -0.5348
  130OSM    H6T13949   4.486   1.492   6.647 -0.6757 -1.4565 -2.4036
  130OSM    C7S13950   4.343   1.536   6.797 -0.0137  0.1193 -0.2957
  130OSM    H7S13951   4.346   1.433   6.839 -2.4470  0.9271  2.1640
  130OSM    H7T13952   4.235   1.556   6.817  0.3278  0.9183  0.8323
  130OSM    C8S13953   4.423   1.639   6.873 -0.3717 -1.2471  0.8247
  130OSM    H8S13954   4.414   1.735   6.817 -0.5781 -1.2928  0.7756
  130OSM    H8T13955   4.528   1.603   6.870  0.0465 -0.0623  0.8570
  130OSM    C9S13956   4.376   1.647   7.023 -0.3370 -0.3192  0.9754
  130OSM    H9S13957   4.266   1.649   7.034 -0.3038  0.3668  1.1839
  130OSM    H9T13958   4.424   1.739   7.063 -1.9921 -0.0340  2.3917
  130OSM   C10S13959   4.410   1.508   7.090 -0.0458 -0.0466 -0.1770
  130OSM   H10S13960   4.520   1.496   7.087  0.0674  0.2737  1.6481
  130OSM   H10T13961   4.363   1.424   7.034  1.2045  1.1198 -3.2077
  130OSM   C11S13962   4.367   1.499   7.238 -0.6123 -0.1648 -0.0695
  130OSM   H11S13963   4.257   1.508   7.250 -0.2964  2.3392  1.6154
  130OSM   H11T13964   4.430   1.575   7.288 -0.1490  0.2023 -1.1781
  130OSM   C12S13965   4.418   1.366   7.299  0.0841  0.0674  0.4862
  130OSM   H12S13966   4.522   1.361   7.262 -0.0446  0.5681  0.0549
  130OSM   H12T13967   4.363   1.277   7.261  1.6070 -0.7092  0.0412
  130OSM   C13S13968   4.420   1.366   7.451 -0.3276 -0.5854 -0.0437
  130OSM   H13S13969   4.470   1.460   7.482 -0.8661  0.1218 -1.2359
  130OSM   H13T13970   4.492   1.285   7.478 -1.1193 -0.9724  0.9632
  130OSM   C14S13971   4.280   1.361   7.506 -0.2742 -0.2028  0.4929
  130OSM   H14S13972   4.223   1.268   7.485  0.5101 -0.0846 -2.6740
  130OSM   H14T13973   4.224   1.434   7.445  0.4319 -1.7438 -2.1621
  130OSM   C15S13974   4.272   1.399   7.660  0.5698 -0.0496 -0.5677
  130OSM   H15S13975   4.333   1.328   7.720  2.6816  1.8723 -0.2877
  130OSM   H15T13976   4.166   1.396   7.690  0.4847 -0.1434 -0.8721
  130OSM   C16S13977   4.326   1.533   7.694  0.3254 -0.4486 -1.1100
  130OSM   H16S13978   4.298   1.611   7.621  0.1392 -1.3626 -2.0503
  130OSM   H16T13979   4.436   1.523   7.697  0.3271 -0.3790  1.5840
  130OSM   C17S13980   4.281   1.575   7.832  0.2884 -1.0806 -0.4229
  130OSM   H17S13981   4.369   1.566   7.900  0.5581 -0.5831 -0.7011
  130OSM   H17T13982   4.214   1.499   7.876  0.4074 -1.0429 -0.1727
  130OSM   C18S13983   4.212   1.706   7.852 -0.2464  0.2563 -0.5439
  130OSM   H18S13984   4.221   1.719   7.961  0.0781  2.6729 -0.8005
  130OSM   H18T13985   4.102   1.706   7.834 -0.6392 -1.8567  1.4911
  130OSM   H18U13986   4.271   1.790   7.810 -0.7979  0.9695  0.0776
  130OSM    C1F13987   4.250   0.970   6.760  0.1657 -0.5204 -0.0904
  130OSM     OF13988   4.337   0.931   6.685  0.1024 -0.6140 -0.2058
  130OSM    C2F13989   4.223   0.920   6.898 -0.0078  0.3449  0.0102
  130OSM    H2F13990   4.169   0.823   6.898  1.1922 -0.3715  1.5736
  130OSM    H2G13991   4.150   0.990   6.944 -2.7867 -1.1665 -1.8335
  130OSM    C3F13992   4.349   0.904   6.989  0.0435 -0.0355  0.3495
  130OSM    H3F13993   4.408   0.996   7.010 -1.2220  0.6271  1.1836
  130OSM    H3G13994   4.423   0.837   6.940 -0.4876 -0.1414 -0.3234
  130OSM    C4F13995   4.321   0.841   7.124  0.7296  0.3078  0.0997
  130OSM    H4F13996   4.411   0.787   7.161  2.2501  2.3078 -0.5184
  130OSM    H4G13997   4.235   0.772   7.111 -0.5235  1.6483  0.9467
  130OSM    C5F13998   4.284   0.947   7.228  0.6159  0.5455 -0.5044
  130OSM    H5F13999   4.189   0.999   7.206 -0.1732 -0.7475 -0.3087
  130OSM    H5G14000   4.367   1.019   7.245 -0.4777  1.3130  2.0701
  130OSM    C6F14001   4.262   0.877   7.369  0.0370 -0.5937 -0.1065
  130OSM    H6F14002   4.354   0.818   7.388 -0.5232 -1.4725 -0.0368
  130OSM    H6G14003   4.164   0.825   7.367  0.9901 -2.7303  2.5798
  130OSM    C7F14004   4.248   0.981   7.479 -0.3947 -0.5430  0.3127
  130OSM    H7F14005   4.171   1.057   7.454  0.0102 -0.9575 -2.6421
  130OSM    H7G14006   4.341   1.042   7.483  0.7981 -2.2328 -0.2598
  130OSM    C8F14007   4.224   0.920   7.623  0.7740 -0.3580  0.5395
  130OSM    H8F14008   4.315   0.872   7.664  0.5843 -0.4808  0.8199
  130OSM    H8G14009   4.154   0.834   7.608  1.8320 -1.4230  1.4948
  130OSM    C9F14010   4.185   1.027   7.723 -0.3826 -0.0731  0.1034
  130OSM    H9F14011   4.213   1.126   7.686  1.1206 -0.5975 -0.2362
  130OSM   C10F14012   4.114   1.012   7.840 -0.4180  0.1686  0.0963
  130OSM   H10F14013   4.094   1.102   7.900  0.5952  0.8886 -0.6018
  130OSM   C11F14014   4.070   0.873   7.893 -0.2033  0.2875  0.6437
  130OSM   H11F14015   4.098   0.800   7.815  1.6281  0.4687  1.1015
  130OSM   H11G14016   3.959   0.868   7.899 -0.3637  0.8516 -1.1786
  130OSM   C12F14017   4.132   0.819   8.025 -0.2933  0.5488 -0.0685
  130OSM   H12F14018   4.086   0.721   8.052 -1.1915  0.4308 -1.8512
  130OSM   H12G14019   4.115   0.883   8.114  1.1777  0.7670  0.0757
  130OSM   C13F14020   4.280   0.796   7.997  0.3740  0.0253 -0.2248
  130OSM   H13F14021   4.324   0.895   7.973  0.4983 -0.3263 -1.5419
  130OSM   H13G14022   4.298   0.731   7.908 -0.5896 -0.4194 -0.1102
  130OSM   C14F14023   4.357   0.727   8.114  0.0393  0.2998 -0.5428
  130OSM   H14F14024   4.455   0.688   8.080  0.4680  1.4811 -0.7210
  130OSM   H14G14025   4.302   0.639   8.153  2.5256 -0.6250  1.0884
  130OSM   C15F14026   4.392   0.828   8.225 -0.1462  0.8351  0.0790
  130OSM   H15F14027   4.294   0.852   8.271  0.6900  4.2373  0.3043
  130OSM   H15G14028   4.448   0.916   8.187  3.9612 -0.9569  1.5123
  130OSM   C16F14029   4.481   0.764   8.330 -0.2389 -0.0466  0.1095
  130OSM   H16F14030   4.570   0.717   8.282 -0.2550 -2.0912  1.9535
  130OSM   H16G14031   4.432   0.680   8.382 -0.7622 -0.0360 -0.3523
  130OSM   C17F14032   4.526   0.875   8.433  0.1943 -0.4176 -0.2297
  130OSM   H17F14033   4.435   0.910   8.485  0.7218  0.8716 -0.1303
  130OSM   H17G14034   4.579   0.960   8.384  0.7314  0.3206  1.5666
  130OSM   C18F14035   4.610   0.812   8.542  0.2453 -0.4788  0.2403
  130OSM   H18F14036   4.558   0.727   8.590 -1.1211 -0.7812 -1.6702
  130OSM   H18G14037   4.639   0.884   8.621 -1.5998  1.0040 -0.3571
  130OSM   H18H14038   4.701   0.770   8.493 -0.4641 -1.2794 -0.4247
  131OSM      N14039   4.613   6.267   6.129  0.3211  0.5558  0.8958
  131OSM    C1514040   4.510   6.278   6.019 -0.0795 -0.0843  0.8038
  131OSM   H15A14041   4.527   6.192   5.955 -1.3985 -2.7433  3.7088
  131OSM   H15B14042   4.516   6.369   5.961 -0.3303 -0.1227  0.7169
  131OSM   H15C14043   4.409   6.264   6.053  0.5503 -1.4251  2.2594
  131OSM    C1414044   4.594   6.374   6.230 -0.4519 -0.4419  0.4489
  131OSM   H14A14045   4.597   6.466   6.174 -1.3822 -1.5157 -1.4884
  131OSM   H14B14046   4.666   6.375   6.310 -1.7180 -0.1051  1.5989
  131OSM   H14C14047   4.493   6.365   6.265 -0.6954 -0.0052 -0.1287
  131OSM    C1314048   4.599   6.136   6.198 -0.3909 -0.1699 -0.0219
  131OSM   H13A14049   4.640   6.059   6.134  1.6736  0.5926  0.3297
  131OSM   H13B14050   4.495   6.113   6.219 -0.9997  0.2549 -2.2632
  131OSM   H13C14051   4.651   6.131   6.293  0.0596  1.8437 -0.1288
  131OSM    C1214052   4.756   6.265   6.069 -0.5942 -0.2647 -0.3951
  131OSM   H12A14053   4.832   6.262   6.146 -0.0937  3.0660 -0.6170
  131OSM   H12B14054   4.759   6.358   6.016  1.0015  0.8180  1.4589
  131OSM    C1114055   4.791   6.159   5.964 -0.3749 -0.1315  0.0576
  131OSM   H11A14056   4.877   6.185   5.900  1.6724 -0.9883  2.2946
  131OSM   H11B14057   4.696   6.157   5.906 -1.6497 -1.2298  2.0293
  131OSM      P14058   4.933   6.009   6.124  0.0994  0.1095 -0.1483
  131OSM    O1314059   4.913   5.885   6.196  0.2836  0.0168 -0.6127
  131OSM    O1414060   5.050   6.010   6.041 -0.3666  0.0675  0.0984
  131OSM    O1114061   4.939   6.131   6.230  0.1393  0.4361  0.7649
  131OSM    O1214062   4.813   6.034   6.031  0.9076 -0.1412 -0.6895
  131OSM    C1S14063   4.965   6.110   6.369  0.4033 -0.2516 -0.5655
  131OSM    H1S14064   5.021   6.019   6.396  1.0802  0.4996  0.6482
  131OSM    H1T14065   4.874   6.101   6.432  2.1651 -2.3826  1.8722
  131OSM     NF14066   5.085   6.190   6.585 -0.2544 -0.5068  0.0147
  131OSM    HNF14067   5.008   6.211   6.644  0.5244  1.3187  0.4463
  131OSM    C2S14068   5.049   6.228   6.442  0.0594 -0.1790 -0.0806
  131OSM    H2S14069   5.143   6.236   6.383 -0.7993 -0.5710 -1.5486
  131OSM    C3S14070   4.982   6.369   6.434  0.0813  0.7108  0.8078
  131OSM    H3S14071   4.887   6.374   6.492  1.0421 -1.0066  2.6406
  131OSM     O314072   4.952   6.412   6.302 -0.2960 -0.1383 -0.1889
  131OSM    HO314073   4.969   6.336   6.246 -0.8899 -0.1240 -0.3883
  131OSM    C4S14074   5.067   6.477   6.500 -0.2126 -0.0704 -0.0106
  131OSM    H4S14075   5.174   6.473   6.474 -0.5409 -2.0925 -1.2813
  131OSM    C5S14076   5.032   6.560   6.603 -0.1385 -0.4813 -0.6583
  131OSM    H5S14077   4.934   6.561   6.653 -0.1113 -0.6179 -0.5997
  131OSM    C6S14078   5.132   6.657   6.673 -0.3692 -0.4503  0.9668
  131OSM    H6S14079   5.105   6.759   6.639  0.6156 -0.6532 -0.5118
  131OSM    H6T14080   5.239   6.647   6.645 -0.3089  1.6600  0.2612
  131OSM    C7S14081   5.114   6.637   6.826 -0.3519  0.5654  0.7072
  131OSM    H7S14082   5.119   6.527   6.840 -1.3420  0.6583  1.9975
  131OSM    H7T14083   5.006   6.657   6.846 -0.4186  1.0057 -0.0417
  131OSM    C8S14084   5.208   6.716   6.914 -0.1302  0.3537  0.6363
  131OSM    H8S14085   5.168   6.816   6.941  2.1032  1.9439 -1.5043
  131OSM    H8T14086   5.302   6.726   6.856  0.8693 -0.1035  2.0918
  131OSM    C9S14087   5.228   6.645   7.043  0.3292 -0.4985 -0.3656
  131OSM    H9S14088   5.310   6.695   7.099  0.6640 -2.7506  1.2968
  131OSM    H9T14089   5.270   6.543   7.026 -0.0855 -0.6420 -0.5614
  131OSM   C10S14090   5.097   6.625   7.129  0.3747 -0.7477  0.5121
  131OSM   H10S14091   5.040   6.541   7.084  2.3490 -1.2168 -1.3231
  131OSM   H10T14092   5.041   6.719   7.115 -0.4655 -1.4600 -1.1049
  131OSM   C11S14093   5.127   6.591   7.273 -0.3147  0.1548 -0.1919
  131OSM   H11S14094   5.218   6.646   7.306 -0.2477  0.6296 -1.1519
  131OSM   H11T14095   5.147   6.482   7.282 -1.9701 -0.3493 -2.0272
  131OSM   C12S14096   5.005   6.624   7.355 -0.6856  0.5413  0.3050
  131OSM   H12S14097   4.922   6.563   7.312 -2.3666  1.5956  1.8808
  131OSM   H12T14098   4.977   6.730   7.337  0.0281  0.8630  1.0283
  131OSM   C13S14099   5.027   6.611   7.509  0.0737  0.4945 -0.0850
  131OSM   H13S14100   5.125   6.650   7.543  1.0231 -1.8680  0.0111
  131OSM   H13T14101   5.012   6.508   7.547 -2.5625  0.9550  0.3736
  131OSM   C14S14102   4.907   6.673   7.586 -0.7623 -0.3036  0.3085
  131OSM   H14S14103   4.809   6.627   7.562 -0.1461 -1.0372 -0.8983
  131OSM   H14T14104   4.895   6.776   7.545  0.7565 -1.3283 -3.0212
  131OSM   C15S14105   4.934   6.667   7.730 -0.3286 -0.0237 -0.1003
  131OSM   H15S14106   5.020   6.735   7.749  0.5700 -1.1573 -0.0033
  131OSM   H15T14107   4.970   6.569   7.766  0.8427 -0.1822 -1.6149
  131OSM   C16S14108   4.815   6.730   7.816 -0.1620 -1.0921  0.1908
  131OSM   H16S14109   4.726   6.665   7.804 -2.9912  2.5457 -0.2488
  131OSM   H16T14110   4.781   6.826   7.770  0.9452  0.6821  2.8266
  131OSM   C17S14111   4.867   6.734   7.961  0.2243 -0.3839 -0.2905
  131OSM   H17S14112   4.961   6.794   7.959 -1.0856  2.0322  2.6098
  131OSM   H17T14113   4.867   6.628   7.992 -1.7647 -0.1483  0.7075
  131OSM   C18S14114   4.772   6.799   8.063 -0.6200 -0.4087 -0.4045
  131OSM   H18S14115   4.668   6.760   8.057 -0.1793 -2.1250  1.6325
  131OSM   H18T14116   4.765   6.909   8.053 -2.3274 -0.4736 -0.1829
  131OSM   H18U14117   4.793   6.771   8.169  1.9326  0.2434 -0.6612
  131OSM    C1F14118   5.177   6.100   6.607  0.5174  0.2161 -0.3108
  131OSM     OF14119   5.248   6.052   6.525 -0.0130 -0.1448 -0.1011
  131OSM    C2F14120   5.190   6.043   6.748 -0.0649 -0.1611  0.4607
  131OSM    H2F14121   5.249   5.950   6.737 -2.3695 -1.8144  1.3829
  131OSM    H2G14122   5.095   6.014   6.798  1.1845 -0.8401  2.5609
  131OSM    C3F14123   5.266   6.130   6.857  0.0850  0.3735 -0.9842
  131OSM    H3F14124   5.206   6.223   6.872 -0.8829 -0.1875 -1.2900
  131OSM    H3G14125   5.361   6.158   6.805  0.1418 -0.9394 -1.6177
  131OSM    C4F14126   5.301   6.055   6.983  0.6626  0.2090  0.3160
  131OSM    H4F14127   5.378   6.110   7.041  0.6449 -1.7713  2.3884
  131OSM    H4G14128   5.349   5.956   6.967 -1.3772 -0.7911  0.0166
  131OSM    C5F14129   5.172   6.030   7.065 -0.2058  0.2945 -0.2015
  131OSM    H5F14130   5.095   5.977   7.004 -0.9279  0.1110  0.8365
  131OSM    H5G14131   5.144   6.133   7.096 -0.7932 -0.3247  1.3983
  131OSM    C6F14132   5.195   5.967   7.205 -0.0912 -0.0080 -0.3368
  131OSM    H6F14133   5.275   6.031   7.248 -0.7164  1.6446 -1.5356
  131OSM    H6G14134   5.235   5.865   7.186  0.8630  0.0679  1.1552
  131OSM    C7F14135   5.076   5.955   7.300  0.2394  0.4246  0.2005
  131OSM    H7F14136   5.020   5.861   7.279  1.8418 -0.6406  0.5372
  131OSM    H7G14137   5.003   6.037   7.286 -0.8253 -0.6121 -0.5920
  131OSM    C8F14138   5.120   5.943   7.452 -0.2849  0.3242 -0.3763
  131OSM    H8F14139   5.158   6.040   7.490  1.0957 -0.3124 -0.0447
  131OSM    H8G14140   5.207   5.874   7.443 -0.7399 -0.0128 -3.1284
  131OSM    C9F14141   5.006   5.888   7.533 -0.2406  1.3020  0.4981
  131OSM    H9F14142   4.971   5.787   7.508  2.0804  0.6752 -0.4302
  131OSM   C10F14143   4.950   5.947   7.646  0.5595 -0.1754  0.0345
  131OSM   H10F14144   4.872   5.900   7.708  0.9171  0.6647  1.1638
  131OSM   C11F14145   4.994   6.075   7.711 -0.6337 -0.1403  0.1599
  131OSM   H11F14146   4.926   6.154   7.674  0.5611  0.7945 -0.1198
  131OSM   H11G14147   5.096   6.106   7.679 -1.7388  1.6754 -1.7652
  131OSM   C12F14148   4.983   6.073   7.852 -0.3402  0.1361 -0.8591
  131OSM   H12F14149   4.881   6.044   7.885 -0.0534 -0.3625 -0.3801
  131OSM   H12G14150   5.002   6.176   7.889 -0.4124  0.4415 -1.6623
  131OSM   C13F14151   5.086   5.968   7.924  0.5823 -0.9685  0.0572
  131OSM   H13F14152   5.189   6.009   7.918 -0.4133  1.9532  1.1074
  131OSM   H13G14153   5.078   5.861   7.897  1.8444 -0.7732 -1.2079
  131OSM   C14F14154   5.063   5.977   8.076 -0.5138 -0.1271  0.4130
  131OSM   H14F14155   5.080   6.080   8.115  1.0325  0.5467 -1.8522
  131OSM   H14G14156   5.139   5.914   8.128 -0.1687  0.3505  0.4988
  131OSM   C15F14157   4.923   5.919   8.115 -0.2740  0.0007  0.3046
  131OSM   H15F14158   4.920   5.818   8.069  0.6938 -0.7115  1.7293
  131OSM   H15G14159   4.837   5.981   8.080  0.2703 -0.5641 -2.1847
  131OSM   C16F14160   4.920   5.901   8.266  0.4863 -0.3835 -0.2864
  131OSM   H16F14161   4.930   5.993   8.327 -1.2594 -0.9575  0.9338
  131OSM   H16G14162   5.006   5.841   8.303 -0.0916 -1.4825 -0.6932
  131OSM   C17F14163   4.795   5.833   8.314 -0.5812 -0.5678  0.0418
  131OSM   H17F14164   4.789   5.743   8.249 -2.1188 -0.0041 -0.6571
  131OSM   H17G14165   4.712   5.905   8.299  0.7817  0.8079 -1.2575
  131OSM   C18F14166   4.791   5.803   8.463  0.9439  0.6953 -0.4228
  131OSM   H18F14167   4.694   5.757   8.489  1.4756 -1.6329 -2.2009
  131OSM   H18G14168   4.803   5.898   8.520 -2.6637  1.9959 -1.5483
  131OSM   H18H14169   4.875   5.733   8.482  1.4486  0.6310 -2.6601
  132OSM      N14170   0.917   3.473   5.867 -0.2406 -0.0021  0.4694
  132OSM    C1514171   0.988   3.601   5.872 -0.2106  0.1406 -0.5088
  132OSM   H15A14172   0.992   3.643   5.972  0.4749  0.3875 -0.6325
  132OSM   H15B14173   0.952   3.685   5.816  0.0380  0.5365 -0.0849
  132OSM   H15C14174   1.088   3.605   5.833 -0.1250  3.2813 -0.1637
  132OSM    C1414175   0.781   3.488   5.923 -0.5829  0.3940 -0.5473
  132OSM   H14A14176   0.726   3.398   5.901 -0.9990  1.4961 -4.8197
  132OSM   H14B14177   0.730   3.556   5.856 -1.2151 -0.7518 -1.2579
  132OSM   H14C14178   0.779   3.525   6.025  1.6676  0.7319 -0.5814
  132OSM    C1314179   0.895   3.443   5.716 -0.1120 -0.7906 -0.0324
  132OSM   H13A14180   0.985   3.482   5.670  1.6314 -2.3365  1.8862
  132OSM   H13B14181   0.808   3.496   5.679  0.6265 -0.0492 -0.7530
  132OSM   H13C14182   0.886   3.337   5.702 -0.1635 -0.8254  0.2624
  132OSM    C1214183   1.011   3.371   5.919  0.2943  0.0408  0.0627
  132OSM   H12A14184   1.108   3.385   5.874  0.5006 -0.9591  0.1706
  132OSM   H12B14185   0.978   3.276   5.878 -0.8850  0.6277 -0.3852
  132OSM    C1114186   1.029   3.357   6.073 -0.4344 -0.1846  0.4574
  132OSM   H11A14187   1.079   3.260   6.095  0.5972  0.3239  0.4163
  132OSM   H11B14188   0.933   3.338   6.126 -0.0092  1.3042  1.8338
  132OSM      P14189   1.249   3.502   6.134  0.0543 -0.0797  0.4512
  132OSM    O1314190   1.319   3.419   6.030  0.3017 -0.0902 -0.1823
  132OSM    O1414191   1.273   3.647   6.124 -0.9360  0.1796  0.2152
  132OSM    O1114192   1.296   3.457   6.280 -0.2810  0.5357 -0.1950
  132OSM    O1214193   1.093   3.471   6.129  0.2837  0.2966 -0.2469
  132OSM    C1S14194   1.210   3.495   6.392 -0.2505 -0.5389  0.1500
  132OSM    H1S14195   1.119   3.432   6.394 -0.7081  0.0684  2.7270
  132OSM    H1T14196   1.191   3.604   6.390  2.0308 -0.0996 -0.3085
  132OSM     NF14197   1.175   3.484   6.636 -0.1021  0.4665 -0.0712
  132OSM    HNF14198   1.185   3.568   6.690  0.2562  0.1184  0.4174
  132OSM    C2S14199   1.280   3.470   6.533  0.4989  0.0805 -0.6084
  132OSM    H2S14200   1.322   3.367   6.531  0.2714 -0.0136 -0.6348
  132OSM    C3S14201   1.390   3.565   6.553  0.0082  0.3097  0.4151
  132OSM    H3S14202   1.340   3.664   6.557 -1.0468 -0.2501  1.4161
  132OSM     O314203   1.484   3.565   6.446  0.3270  0.6912 -0.2991
  132OSM    HO314204   1.443   3.520   6.372  0.2633  2.5228 -1.4588
  132OSM    C4S14205   1.464   3.533   6.679  0.3301  0.2204  0.0703
  132OSM    H4S14206   1.434   3.599   6.762 -1.1598 -0.6939  0.3012
  132OSM    C5S14207   1.563   3.441   6.700  1.2053 -0.4045  0.3078
  132OSM    H5S14208   1.591   3.391   6.605 -1.8658 -1.1785 -0.2920
  132OSM    C6S14209   1.626   3.414   6.835 -0.2881  1.5275  0.1009
  132OSM    H6S14210   1.729   3.455   6.825  0.3481 -0.1463 -0.5865
  132OSM    H6T14211   1.628   3.305   6.857  0.5001  1.2786 -1.1275
  132OSM    C7S14212   1.577   3.488   6.965  0.3499 -0.4624 -0.0389
  132OSM    H7S14213   1.488   3.438   7.007  2.4543 -2.5764  2.2329
  132OSM    H7T14214   1.569   3.599   6.962  0.1781 -0.4789 -0.2346
  132OSM    C8S14215   1.668   3.462   7.074 -0.2114  0.3183 -0.2077
  132OSM    H8S14216   1.769   3.496   7.042  0.0298 -0.9374 -0.8249
  132OSM    H8T14217   1.676   3.352   7.086  2.2330  0.3276 -1.2953
  132OSM    C9S14218   1.631   3.526   7.208 -0.3069 -0.8389  0.1145
  132OSM    H9S14219   1.525   3.498   7.226 -0.8622  0.1212 -1.4979
  132OSM    H9T14220   1.632   3.636   7.196  1.4024 -0.7914  0.3746
  132OSM   C10S14221   1.723   3.477   7.319  0.0009 -0.4016 -0.0785
  132OSM   H10S14222   1.826   3.495   7.282 -0.0874  0.2964  0.0116
  132OSM   H10T14223   1.700   3.368   7.326 -0.1298 -0.3416  0.5081
  132OSM   C11S14224   1.717   3.543   7.462  0.1009 -0.5817 -0.5442
  132OSM   H11S14225   1.613   3.545   7.498  0.5906  1.6450  0.9250
  132OSM   H11T14226   1.745   3.650   7.452 -1.7634 -0.1925 -2.3710
  132OSM   C12S14227   1.797   3.451   7.554  1.0407  0.8091 -0.8827
  132OSM   H12S14228   1.900   3.436   7.515  1.6771 -0.6360  1.1375
  132OSM   H12T14229   1.740   3.357   7.548 -0.0002  1.4325 -0.9216
  132OSM   C13S14230   1.792   3.502   7.700 -0.3431  0.4054 -0.2763
  132OSM   H13S14231   1.689   3.510   7.741 -0.3841 -0.0855 -0.2835
  132OSM   H13T14232   1.831   3.606   7.705 -3.7067  1.7297  2.8290
  132OSM   C14S14233   1.880   3.420   7.804  0.2759 -0.5667 -0.1905
  132OSM   H14S14234   1.978   3.456   7.765 -0.4603 -0.4051 -1.9846
  132OSM   H14T14235   1.867   3.309   7.804 -1.3610 -0.4844  2.7180
  132OSM   C15S14236   1.873   3.457   7.957 -0.5190  0.3514 -0.4061
  132OSM   H15S14237   1.767   3.435   7.982 -0.7544 -0.7137 -2.1899
  132OSM   H15T14238   1.903   3.564   7.963  1.0135 -0.0176 -0.8995
  132OSM   C16S14239   1.961   3.357   8.054  0.4479 -0.2136  0.1221
  132OSM   H16S14240   1.918   3.255   8.047  0.0264 -0.2930  2.7045
  132OSM   H16T14241   1.940   3.400   8.155  0.2364 -1.5681  0.6768
  132OSM   C17S14242   2.112   3.355   8.029 -0.3460  0.5573 -0.2918
  132OSM   H17S14243   2.150   3.459   8.038  3.7326 -0.7930  0.2267
  132OSM   H17T14244   2.134   3.328   7.924  0.3053 -0.4068  0.0741
  132OSM   C18S14245   2.194   3.276   8.128  0.3125 -0.3097  0.1111
  132OSM   H18S14246   2.302   3.300   8.113  0.5290 -0.5782  1.1505
  132OSM   H18T14247   2.178   3.167   8.117  0.0535 -0.3729  1.0371
  132OSM   H18U14248   2.156   3.295   8.231 -0.3298 -1.1892  0.0434
  132OSM    C1F14249   1.081   3.390   6.658  0.2705  0.0732 -0.4311
  132OSM     OF14250   1.085   3.272   6.617 -0.0220  0.0816  0.0791
  132OSM    C2F14251   0.974   3.440   6.764 -0.1634  0.2215  0.2564
  132OSM    H2F14252   0.938   3.534   6.719  0.7689  0.1551 -0.6787
  132OSM    H2G14253   1.021   3.476   6.858  3.1968 -0.3323 -1.0379
  132OSM    C3F14254   0.867   3.336   6.795  1.0012 -0.8522  0.1258
  132OSM    H3F14255   0.912   3.234   6.802  0.5037 -1.0927 -0.1359
  132OSM    H3G14256   0.808   3.329   6.701 -1.6801 -1.9832  1.7973
  132OSM    C4F14257   0.779   3.384   6.902  0.7876 -0.1503  0.5284
  132OSM    H4F14258   0.685   3.325   6.894 -0.4307  1.9412 -1.6802
  132OSM    H4G14259   0.749   3.490   6.890 -0.0152 -0.5879 -1.7846
  132OSM    C5F14260   0.844   3.369   7.044  0.3457 -0.3126  0.2245
  132OSM    H5F14261   0.918   3.451   7.043 -0.8245  0.8015 -1.1204
  132OSM    H5G14262   0.904   3.276   7.048  1.8705  0.6413  0.1264
  132OSM    C6F14263   0.758   3.401   7.166 -0.2186  0.8085  0.1780
  132OSM    H6F14264   0.671   3.331   7.159  0.3841 -0.2233  2.2003
  132OSM    H6G14265   0.725   3.507   7.174  1.1133  1.0906  2.8637
  132OSM    C7F14266   0.815   3.354   7.298  0.2010  0.0471 -0.3978
  132OSM    H7F14267   0.858   3.252   7.292 -0.6478 -0.3034 -0.6724
  132OSM    H7G14268   0.728   3.338   7.366  0.0904  0.4294 -0.4478
  132OSM    C8F14269   0.907   3.452   7.366 -0.6203  0.3492  0.7246
  132OSM    H8F14270   0.987   3.479   7.294  0.9910 -0.1194  2.2660
  132OSM    H8G14271   0.962   3.403   7.449  0.3620 -0.5423 -0.4105
  132OSM    C9F14272   0.830   3.566   7.421 -0.0752  0.0247 -0.4434
  132OSM    H9F14273   0.724   3.575   7.391 -0.0251  0.5202 -0.4780
  132OSM   C10F14274   0.867   3.663   7.508 -0.4179 -0.4057  0.7135
  132OSM   H10F14275   0.808   3.749   7.544  0.9363  0.3816  1.1076
  132OSM   C11F14276   1.008   3.678   7.566  0.2703 -0.0764 -0.8287
  132OSM   H11F14277   1.051   3.779   7.547 -0.8267  1.0293  2.1242
  132OSM   H11G14278   1.083   3.604   7.530  0.1798 -0.9453  0.6938
  132OSM   C12F14279   1.007   3.647   7.714 -0.1868 -1.1431  0.5603
  132OSM   H12F14280   0.926   3.705   7.765 -0.6662 -0.8435 -0.5186
  132OSM   H12G14281   1.108   3.674   7.753  0.6398  0.0939 -2.1982
  132OSM   C13F14282   0.982   3.499   7.753 -0.0737  0.0280  0.0336
  132OSM   H13F14283   1.053   3.438   7.694 -1.6923 -1.4614 -0.4482
  132OSM   H13G14284   0.878   3.472   7.724  0.1621  0.4460 -1.2483
  132OSM   C14F14285   1.008   3.464   7.897 -0.4995  0.3132  0.1047
  132OSM   H14F14286   0.933   3.516   7.960  0.3018  1.9767 -0.2300
  132OSM   H14G14287   1.102   3.514   7.929 -0.3365 -0.1294  0.3168
  132OSM   C15F14288   1.008   3.312   7.924  0.3896  0.0142  0.0677
  132OSM   H15F14289   1.086   3.258   7.866  2.1116 -1.4695  3.4826
  132OSM   H15G14290   0.913   3.270   7.884 -1.5517  3.0002  1.2115
  132OSM   C16F14291   1.035   3.286   8.065  0.7300 -0.0765 -0.4536
  132OSM   H16F14292   1.130   3.336   8.092 -0.1853  0.8515  1.2427
  132OSM   H16G14293   1.051   3.178   8.083  2.4248  0.5089  2.1400
  132OSM   C17F14294   0.929   3.333   8.167  0.0284  0.0095 -0.1230
  132OSM   H17F14295   0.831   3.281   8.154  1.1508 -2.9325  2.1369
  132OSM   H17G14296   0.918   3.442   8.149  2.0871  0.0193 -1.6182
  132OSM   C18F14297   0.984   3.313   8.305 -0.1950 -0.2232 -0.8630
  132OSM   H18F14298   1.066   3.386   8.320 -2.1025  1.8936 -0.0586
  132OSM   H18G14299   1.021   3.209   8.320  2.3763  0.9066  1.4372
  132OSM   H18H14300   0.903   3.343   8.376 -1.2725 -0.2272 -2.0482
  133SAPE     N14301   3.526   1.050  10.745 -0.3492 -0.0450  0.1368
  133SAPE   HN114302   3.448   1.096  10.797 -2.0229 -0.4024 -1.9018
  133SAPE   HN214303   3.501   0.954  10.714 -0.5099 -0.0437  0.2595
  133SAPE   HN314304   3.611   1.047  10.804 -0.3665  0.4233  0.1899
  133SAPE   C1214305   3.574   1.146  10.639 -0.4246 -0.4822 -0.5933
  133SAPE  H12A14306   3.484   1.163  10.575 -2.1465 -1.3908  1.4752
  133SAPE  H12B14307   3.653   1.093  10.581 -0.7754 -1.0098 -0.5906
  133SAPE   C1114308   3.629   1.283  10.698  0.7478 -0.7390 -0.7013
  133SAPE  H11A14309   3.692   1.318  10.614 -0.1901 -0.9077 -1.4918
  133SAPE  H11B14310   3.692   1.269  10.788 -1.2263 -2.7293  0.4690
  133SAPE     P14311   3.552   1.513  10.772 -0.0683 -0.2272 -0.4288
  133SAPE   O1314312   3.435   1.564  10.844  0.4724  0.1963  0.3564
  133SAPE   O1414313   3.676   1.528  10.853  0.6755 -0.8219  0.4961
  133SAPE   O1214314   3.517   1.370  10.734  0.0390  0.4073  0.6943
  133SAPE   O1114315   3.572   1.584  10.632  0.7798 -0.1638  0.3839
  133SAPE    C114316   3.475   1.607  10.525  0.4479 -0.8433  0.1273
  133SAPE    HA14317   3.378   1.643  10.567  1.2945  1.2310  0.4225
  133SAPE    HB14318   3.499   1.695  10.463 -2.1625 -0.8007 -0.9699
  133SAPE    C214319   3.458   1.492  10.421 -0.4416 -0.2147  0.6741
  133SAPE    HS14320   3.413   1.399  10.461 -1.0699 -0.0111  0.4546
  133SAPE   O2114321   3.586   1.470  10.362 -0.0610 -0.1125  0.2974
  133SAPE   C2114322   3.613   1.350  10.331  0.4474 -1.0387 -0.3565
  133SAPE   O2214323   3.535   1.253  10.329  0.4571 -0.6370  0.2477
  133SAPE   C2214324   3.765   1.352  10.313  0.0286  0.7059  0.1027
  133SAPE   H2R14325   3.807   1.450  10.282  1.9159  0.1727  0.8303
  133SAPE   H2S14326   3.788   1.330  10.420 -1.7375  0.2910  0.4286
  133SAPE    C314327   3.361   1.545  10.310  0.1584  0.2162 -0.3474
  133SAPE    HX14328   3.395   1.643  10.268 -1.0865 -0.6689 -3.7292
  133SAPE    HY14329   3.262   1.558  10.357  0.0767 -3.6321  0.8596
  133SAPE   O3114330   3.348   1.458  10.194 -0.0107  0.4558  0.0218
  133SAPE   C3114331   3.265   1.356  10.211 -0.2976  0.1158 -0.3786
  133SAPE   O3214332   3.211   1.334  10.316 -0.2143  0.3688  0.2398
  133SAPE   C3214333   3.247   1.282  10.084 -0.5567 -0.0071  0.0195
  133SAPE   H2X14334   3.333   1.212  10.071 -1.1043 -1.0586  1.7187
  133SAPE   H2Y14335   3.245   1.359  10.005  1.5020  0.1031  0.0183
  133SAPE   C2314336   3.810   1.244  10.204  0.4485  0.2601 -0.0735
  133SAPE   H3R14337   3.739   1.159  10.215  0.9427 -0.1366  0.1028
  133SAPE   H3S14338   3.911   1.205  10.230  0.6595  0.6118 -0.3547
  133SAPE   C2414339   3.805   1.286  10.061 -0.0587  0.2468  0.3341
  133SAPE   H4R14340   3.700   1.314  10.037 -0.2389  1.6991  2.5640
  133SAPE   H4S14341   3.825   1.194  10.001 -1.0784 -1.0967  1.9740
  133SAPE   C2514342   3.904   1.397  10.021 -0.3228 -0.4864  0.1558
  133SAPE   H5R14343   3.908   1.476  10.098  1.0950 -1.5251  1.2128
  133SAPE   C2614344   3.976   1.422   9.909 -0.6045  1.0385 -0.0454
  133SAPE   H6R14345   4.038   1.510   9.889  4.8073 -2.0662  1.1436
  133SAPE   C2714346   3.993   1.323   9.799  1.4111 -0.2345  0.6337
  133SAPE   H7R14347   3.957   1.222   9.827  0.2861  0.3256  1.3017
  133SAPE   H7S14348   4.103   1.315   9.789  1.5273 -0.4826  1.8823
  133SAPE   C2814349   3.925   1.356   9.665 -0.5656 -0.4397  0.8271
  133SAPE   H8R14350   3.910   1.463   9.641 -0.4064 -0.7967 -1.0415
  133SAPE   C2914351   3.911   1.263   9.568 -0.0663 -0.8589 -0.2771
  133SAPE   H9R14352   3.858   1.289   9.476  1.7488 -0.2422 -1.1898
  133SAPE  C21014353   3.946   1.120   9.566 -0.4985  0.5395  0.0895
  133SAPE  H10R14354   3.901   1.082   9.471  0.3938 -0.5930  0.0992
  133SAPE  H10S14355   3.911   1.064   9.656  1.0166  0.1730  0.4717
  133SAPE  C21114356   4.091   1.107   9.549 -0.6172  0.4279 -0.1621
  133SAPE  H11R14357   4.146   1.156   9.631 -1.3649 -1.0781  1.3208
  133SAPE  C21214358   4.161   1.051   9.458 -0.0789  0.4394  0.2198
  133SAPE  H12R14359   4.270   1.050   9.475 -0.1473  0.2312  0.6722
  133SAPE  C21314360   4.116   0.972   9.337  0.3110  0.2491 -0.5926
  133SAPE  H13R14361   4.037   0.902   9.372  2.0845 -1.8384 -0.5585
  133SAPE  H13S14362   4.197   0.899   9.316 -0.3208 -0.2516 -1.3912
  133SAPE  C21414363   4.077   1.044   9.212 -0.4780 -0.2965 -0.2057
  133SAPE  H14R14364   4.101   1.151   9.201 -1.3047 -0.1423 -0.6229
  133SAPE  C21514365   4.012   0.983   9.109 -0.1558 -0.0896 -0.4901
  133SAPE  H15R14366   3.999   1.044   9.018  1.1747  3.3605  1.4191
  133SAPE  C21614367   3.969   0.838   9.111 -0.0677  0.4493 -0.4126
  133SAPE  H16R14368   3.879   0.833   9.176 -1.3999  0.8373 -2.1357
  133SAPE  H16S14369   4.052   0.785   9.162 -0.4866  1.3108  1.2480
  133SAPE  C21714370   3.942   0.777   8.971  0.5171  0.4351  0.0284
  133SAPE  H17R14371   3.859   0.836   8.927 -0.1324 -0.1300  0.4746
  133SAPE  H17S14372   3.909   0.671   8.963  1.3990  0.2502 -1.6002
  133SAPE  C21814373   4.070   0.787   8.886 -0.0385 -0.2022  0.0983
  133SAPE  H18R14374   4.148   0.734   8.945  2.9656  0.0999 -3.2217
  133SAPE  H18S14375   4.095   0.894   8.875 -0.7776 -0.1229 -0.9607
  133SAPE  C21914376   4.065   0.736   8.743  0.0921  0.3063  0.1497
  133SAPE  H19R14377   3.980   0.786   8.691 -0.2841  0.4705  0.8991
  133SAPE  H19S14378   4.041   0.628   8.745  0.3998  0.2474  0.6495
  133SAPE  C22014379   4.198   0.756   8.672  0.7663 -0.2619  0.7646
  133SAPE  H20R14380   4.281   0.702   8.721  0.2918  0.1083  2.0085
  133SAPE  H20S14381   4.232   0.862   8.665  2.7481 -0.7019  2.8372
  133SAPE  H20T14382   4.192   0.721   8.566  1.3382 -2.2065  1.3355
  133SAPE   C3314383   3.113   1.193  10.077 -0.0658 -0.4409 -0.5849
  133SAPE   H3X14384   3.035   1.272  10.073  1.4431  1.0413 -2.1784
  133SAPE   H3Y14385   3.100   1.131  10.168  3.7210 -3.4612 -1.8525
  133SAPE   C3414386   3.100   1.093   9.961 -0.5815 -0.2788  0.5845
  133SAPE   H4X14387   3.004   1.036   9.962 -1.2103  0.4430 -3.2431
  133SAPE   H4Y14388   3.178   1.014   9.971  0.3047  0.6849  1.5147
  133SAPE   C3514389   3.122   1.167   9.819  0.2836  0.2486  0.3586
  133SAPE   H5X14390   3.221   1.219   9.824  0.3816  0.3927 -2.1222
  133SAPE   H5Y14391   3.050   1.249   9.799 -1.0119 -1.4202 -2.2971
  133SAPE   C3614392   3.128   1.075   9.704 -1.1611  0.0956  0.2574
  133SAPE   H6X14393   3.034   1.015   9.698 -1.2280  0.2483 -0.2808
  133SAPE   H6Y14394   3.206   1.003   9.738  0.2890  2.2019  1.6209
  133SAPE   C3714395   3.166   1.141   9.577 -0.6476  0.1845 -0.8255
  133SAPE   H7X14396   3.268   1.187   9.578 -0.2839 -0.3348 -3.7124
  133SAPE   H7Y14397   3.100   1.229   9.563 -1.5842 -0.4637 -0.4898
  133SAPE   C3814398   3.150   1.042   9.460 -0.1352  0.7102 -0.2291
  133SAPE   H8X14399   3.041   1.030   9.440 -0.4448  0.0133  1.6287
  133SAPE   H8Y14400   3.178   0.936   9.478 -4.2153 -0.3910  0.9245
  133SAPE   C3914401   3.220   1.098   9.334 -0.5888  0.0034  0.7472
  133SAPE   H9X14402   3.327   1.108   9.363 -0.7803  0.3104  1.3748
  133SAPE   H9Y14403   3.190   1.202   9.306  2.0112  0.9670  1.2152
  133SAPE  C31014404   3.214   1.007   9.209  0.3186 -0.1131 -0.3171
  133SAPE  H10X14405   3.111   1.010   9.167  0.4657  0.5096 -0.6430
  133SAPE  H10Y14406   3.232   0.900   9.235 -1.6987 -1.3985 -3.5669
  133SAPE  C31114407   3.315   1.053   9.110  0.4726 -0.2798 -0.1674
  133SAPE  H11X14408   3.423   1.034   9.126  0.9197  2.0663  0.0656
  133SAPE  H11Y14409   3.306   1.162   9.088 -0.0985 -0.4412 -0.7762
  133SAPE  C31214410   3.282   0.983   8.975  0.4653 -0.3567  0.6268
  133SAPE  H12X14411   3.174   0.988   8.949  0.5723  0.5244  0.3371
  133SAPE  H12Y14412   3.318   0.878   8.984  1.9282  0.2349  1.9795
  133SAPE  C31314413   3.371   1.043   8.864  0.3732 -0.0489 -0.2319
  133SAPE  H13X14414   3.462   0.980   8.870 -1.3470 -2.6683  0.0552
  133SAPE  H13Y14415   3.408   1.145   8.889 -0.6209 -0.1551  1.9200
  133SAPE  C31414416   3.318   1.024   8.728  0.1678  0.8130  0.1042
  133SAPE  H14X14417   3.243   1.100   8.699  0.3343  0.4749 -1.3309
  133SAPE  H14Y14418   3.267   0.926   8.719  0.2326  0.8548 -0.9225
  133SAPE  C31514419   3.420   1.033   8.619 -0.0901  0.3607 -1.3271
  133SAPE  H15X14420   3.405   0.958   8.538  3.6224 -2.2522  0.1362
  133SAPE  H15Y14421   3.511   0.985   8.661 -0.9386  0.2683  0.4650
  133SAPE  C31614422   3.443   1.172   8.565  0.0137  0.1363 -0.2621
  133SAPE  H16X14423   3.470   1.246   8.644  0.4491 -2.0372  1.7356
  133SAPE  H16Y14424   3.345   1.210   8.529  0.4347  3.0440  1.2911
  133SAPE  C31714425   3.533   1.182   8.440  0.8196 -0.3692 -0.2679
  133SAPE  H17X14426   3.628   1.125   8.452  1.1157  0.1321 -0.1666
  133SAPE  H17Y14427   3.557   1.291   8.434 -1.5291  0.2156  0.0258
  133SAPE  C31814428   3.455   1.140   8.313  0.4605 -0.2548 -0.5468
  133SAPE  H18X14429   3.407   1.224   8.259  0.7651  0.4512  0.2557
  133SAPE  H18Y14430   3.377   1.065   8.339 -0.8565  1.0768 -0.5256
  133SAPE  H18Z14431   3.515   1.075   8.246 -1.5346 -2.9838  0.1192
  134SAPE     N14432   5.283   2.279  10.720  0.0950 -0.1747 -0.0225
  134SAPE   HN114433   5.268   2.180  10.693 -1.6561  0.1594 -0.4158
  134SAPE   HN214434   5.255   2.293  10.820  1.1721  3.7391 -0.0921
  134SAPE   HN314435   5.213   2.338  10.669 -0.6279 -1.0938 -0.1162
  134SAPE   C1214436   5.425   2.329  10.703 -0.1153  0.2472 -0.2625
  134SAPE  H12A14437   5.502   2.263  10.749 -0.5265  0.4655  0.7700
  134SAPE  H12B14438   5.417   2.419  10.769  0.8083 -0.1310  0.3910
  134SAPE   C1114439   5.452   2.371  10.554  0.5215  0.9641  0.0935
  134SAPE  H11A14440   5.420   2.286  10.490  0.7128  0.7494  0.2824
  134SAPE  H11B14441   5.562   2.380  10.543  0.4526  1.1489 -0.4805
  134SAPE     P14442   5.225   2.493  10.463 -0.0641  0.0455 -0.6440
  134SAPE   O1314443   5.141   2.394  10.529 -0.6066 -0.2197 -0.3552
  134SAPE   O1414444   5.181   2.634  10.468 -0.7086  0.4123 -0.3694
  134SAPE   O1214445   5.371   2.486  10.521 -0.4873 -0.0894 -0.0716
  134SAPE   O1114446   5.247   2.448  10.319 -0.6460 -0.2636  0.8855
  134SAPE    C114447   5.331   2.518  10.220  0.1942  0.0897 -0.5709
  134SAPE    HA14448   5.292   2.619  10.195  0.8434 -0.2718 -3.3951
  134SAPE    HB14449   5.434   2.530  10.261  1.1962  0.2121 -2.9525
  134SAPE    C214450   5.331   2.443  10.085 -0.7075  0.9661  0.0828
  134SAPE    HS14451   5.388   2.504  10.010 -0.4452  1.2720  0.5252
  134SAPE   O2114452   5.199   2.406  10.043 -0.6970  0.1850  0.3103
  134SAPE   C2114453   5.131   2.510   9.987 -0.3291  0.6221  0.1057
  134SAPE   O2214454   5.182   2.620   9.970 -1.1498  0.0465 -0.3268
  134SAPE   C2214455   4.990   2.472   9.953 -0.5782 -0.1443  0.2598
  134SAPE   H2R14456   4.945   2.397  10.022 -0.0008  0.7680  1.6679
  134SAPE   H2S14457   4.929   2.564   9.962 -0.0831  0.1364  0.8153
  134SAPE    C314458   5.417   2.306  10.111 -0.1245  0.2431  0.9682
  134SAPE    HX14459   5.354   2.235  10.170  0.1876 -2.2320 -1.4868
  134SAPE    HY14460   5.517   2.326  10.154  0.3946  0.6654 -0.3765
  134SAPE   O3114461   5.447   2.239   9.984  0.4854 -0.2296  0.1009
  134SAPE   C3114462   5.480   2.111  10.004 -0.6078 -0.0465 -0.2146
  134SAPE   O3214463   5.486   2.046  10.108 -0.7365 -0.1659  0.2002
  134SAPE   C3214464   5.478   2.061   9.857  0.4434 -0.4310  0.7710
  134SAPE   H2X14465   5.555   2.124   9.808  0.1014 -0.5936  0.0115
  134SAPE   H2Y14466   5.379   2.080   9.810  0.6188 -2.5129 -0.5660
  134SAPE   C2314467   4.985   2.436   9.805 -0.5144  0.0536 -0.2279
  134SAPE   H3R14468   5.044   2.508   9.744 -1.3747  0.1560 -0.9731
  134SAPE   H3S14469   4.886   2.443   9.754 -0.4000 -1.6873 -0.7467
  134SAPE   C2414470   5.030   2.293   9.777  0.3551  0.3092  0.6930
  134SAPE   H4R14471   4.963   2.244   9.704  0.4323  2.1433 -0.6790
  134SAPE   H4S14472   5.018   2.233   9.870  0.8892 -1.2798 -0.2147
  134SAPE   C2514473   5.168   2.279   9.720 -0.4134  0.3247 -0.1427
  134SAPE   H5R14474   5.243   2.304   9.796  0.4296  3.2087 -1.7488
  134SAPE   C2614475   5.206   2.225   9.606  0.1786 -0.9362 -0.1572
  134SAPE   H6R14476   5.314   2.221   9.587  0.3860 -2.8028  1.1294
  134SAPE   C2714477   5.129   2.178   9.490 -0.2757 -0.2142  0.0805
  134SAPE   H7R14478   5.024   2.151   9.514 -0.0909 -0.8343  0.1871
  134SAPE   H7S14479   5.177   2.088   9.448  1.4154 -0.0041  1.4650
  134SAPE   C2814480   5.125   2.290   9.389 -0.0535  0.5887  0.0338
  134SAPE   H8R14481   5.193   2.376   9.403  0.2164  0.1367  1.7049
  134SAPE   C2914482   5.047   2.290   9.286  0.4876  0.9114  1.0104
  134SAPE   H9R14483   5.061   2.365   9.207 -1.7152 -0.8421 -1.2267
  134SAPE  C21014484   4.948   2.183   9.252  0.3764 -0.6032 -0.1602
  134SAPE  H10R14485   4.915   2.132   9.345 -1.7249  1.3131  0.2167
  134SAPE  H10S14486   4.999   2.115   9.180  1.4550 -0.1763  0.1855
  134SAPE  C21114487   4.832   2.250   9.191 -0.2426  0.6165 -0.3353
  134SAPE  H11R14488   4.781   2.300   9.274 -1.4029  2.2540 -1.9605
  134SAPE  C21214489   4.784   2.263   9.067 -0.5568 -1.2594  0.5815
  134SAPE  H12R14490   4.693   2.319   9.043  1.2525  1.2116 -1.1615
  134SAPE  C21314491   4.843   2.206   8.939 -0.7314  0.4202 -0.2194
  134SAPE  H13R14492   4.953   2.215   8.932 -0.8015  0.5318 -1.4493
  134SAPE  H13S14493   4.795   2.250   8.849  0.6733 -1.0230 -1.7477
  134SAPE  C21414494   4.820   2.056   8.930  0.3802 -0.1530 -0.3805
  134SAPE  H14R14495   4.831   2.006   9.027 -1.2962  0.9660  0.4154
  134SAPE  C21514496   4.793   1.986   8.819  0.5991 -0.1183  0.1369
  134SAPE  H15R14497   4.781   1.879   8.844  2.5530  0.0198  1.9584
  134SAPE  C21614498   4.765   2.037   8.681  0.4482 -0.1979  0.6220
  134SAPE  H16R14499   4.680   2.108   8.682  1.1075  0.6296 -0.2879
  134SAPE  H16S14500   4.727   1.952   8.621 -1.8581  0.3475  1.2044
  134SAPE  C21714501   4.885   2.085   8.600  0.2963 -0.5661  0.4168
  134SAPE  H17R14502   4.932   1.994   8.558 -2.5980 -1.4440 -1.2095
  134SAPE  H17S14503   4.964   2.128   8.665  0.5756  0.1037 -0.3528
  134SAPE  C21814504   4.862   2.174   8.479 -0.0067 -0.0105 -0.2595
  134SAPE  H18R14505   4.828   2.273   8.518  0.0376 -0.4783  1.0185
  134SAPE  H18S14506   4.790   2.127   8.410 -0.6714 -1.9839  1.6459
  134SAPE  C21914507   4.983   2.190   8.395 -0.5284 -0.6954  0.3298
  134SAPE  H19R14508   5.020   2.092   8.358 -2.4324 -0.7860 -1.5097
  134SAPE  H19S14509   5.062   2.248   8.448 -2.0329  1.7887 -0.0159
  134SAPE  C22014510   4.966   2.267   8.261  0.0316  0.0010  0.0996
  134SAPE  H20R14511   5.064   2.271   8.208 -0.9156 -0.2870 -1.7461
  134SAPE  H20S14512   4.926   2.370   8.268 -0.2544  0.1033 -2.1360
  134SAPE  H20T14513   4.891   2.216   8.197 -0.6789  2.2335 -0.9455
  134SAPE   C3314514   5.526   1.917   9.839 -0.1898  0.6431  0.2745
  134SAPE   H3X14515   5.461   1.862   9.910  0.4706  1.2452  1.3548
  134SAPE   H3Y14516   5.634   1.899   9.855 -0.1010  0.4795 -0.4655
  134SAPE   C3414517   5.492   1.864   9.692 -0.0987  0.4625  0.8949
  134SAPE   H4X14518   5.384   1.880   9.672 -0.3240 -2.5590 -0.9283
  134SAPE   H4Y14519   5.524   1.759   9.673 -0.2214  0.7853 -1.4367
  134SAPE   C3514520   5.566   1.945   9.587 -0.2133  0.6124  0.1810
  134SAPE   H5X14521   5.674   1.936   9.610  0.2040  0.3295 -1.6788
  134SAPE   H5Y14522   5.538   2.053   9.589 -1.1005  0.4043 -0.5150
  134SAPE   C3614523   5.545   1.884   9.445  0.0974 -0.2217  0.8219
  134SAPE   H6X14524   5.563   1.775   9.452  1.4915  0.0617  2.1293
  134SAPE   H6Y14525   5.616   1.930   9.372 -2.1557 -0.1210 -1.4430
  134SAPE   C3714526   5.405   1.921   9.379 -0.3094  0.2409  0.9573
  134SAPE   H7X14527   5.412   2.031   9.377  1.0737  0.1655 -0.1128
  134SAPE   H7Y14528   5.323   1.881   9.442 -0.4114 -0.5844  0.3199
  134SAPE   C3814529   5.395   1.868   9.240  0.3277 -0.2929 -0.7600
  134SAPE   H8X14530   5.384   1.757   9.233 -1.3430 -0.1313 -1.1778
  134SAPE   H8Y14531   5.491   1.890   9.189 -0.0995  1.9930 -0.6819
  134SAPE   C3914532   5.289   1.941   9.144  0.3550 -0.1710  0.9042
  134SAPE   H9X14533   5.331   2.044   9.133  0.1626 -0.3190 -2.1541
  134SAPE   H9Y14534   5.188   1.942   9.190  0.1020  0.0585  0.3588
  134SAPE  C31014535   5.286   1.880   9.004  0.1018  0.6405  0.0067
  134SAPE  H10X14536   5.245   1.777   9.014 -1.0530  1.0093 -0.7502
  134SAPE  H10Y14537   5.392   1.882   8.971  0.6174 -0.9413  1.4165
  134SAPE  C31114538   5.197   1.959   8.906 -0.3495 -0.0878  0.0584
  134SAPE  H11X14539   5.258   2.051   8.898 -1.6380  0.8677  0.8626
  134SAPE  H11Y14540   5.103   1.984   8.959  0.0380 -0.8870  1.1610
  134SAPE  C31214541   5.178   1.880   8.771 -0.5783  0.0053 -0.6039
  134SAPE  H12X14542   5.282   1.865   8.737 -0.8727  0.8985 -2.0175
  134SAPE  H12Y14543   5.125   1.955   8.708 -0.2031  0.2177 -0.6635
  134SAPE  C31314544   5.103   1.746   8.772  0.2956  0.4662  0.4591
  134SAPE  H13X14545   5.014   1.766   8.835  1.8104 -0.2242  2.9637
  134SAPE  H13Y14546   5.156   1.668   8.831  1.2624  0.1127 -0.8227
  134SAPE  C31414547   5.053   1.704   8.637  1.7442  0.1353 -0.1002
  134SAPE  H14X14548   5.137   1.656   8.582  2.5940  1.3650  0.0865
  134SAPE  H14Y14549   5.024   1.798   8.585  0.9494  0.7574  1.3850
  134SAPE  C31514550   4.930   1.612   8.651  0.0913  0.2205  0.0582
  134SAPE  H15X14551   4.847   1.660   8.708 -0.5859 -0.5708 -0.2412
  134SAPE  H15Y14552   4.970   1.529   8.712  2.1314 -0.7238 -2.4005
  134SAPE  C31614553   4.868   1.549   8.523 -0.0041  0.0424  0.7002
  134SAPE  H16X14554   4.955   1.526   8.458 -2.7222 -0.9022 -2.9581
  134SAPE  H16Y14555   4.809   1.632   8.479  0.0549  0.4541  1.3783
  134SAPE  C31714556   4.800   1.418   8.542 -0.4941  0.0399 -0.5590
  134SAPE  H17X14557   4.874   1.338   8.566 -1.3209 -0.5115  0.2365
  134SAPE  H17Y14558   4.765   1.398   8.438  2.2493  2.3214 -2.0712
  134SAPE  C31814559   4.685   1.412   8.651 -0.6682 -0.0247 -0.2117
  134SAPE  H18X14560   4.592   1.462   8.618 -0.9026  0.4259  1.0866
  134SAPE  H18Y14561   4.714   1.459   8.747  0.2237  1.2380 -1.0742
  134SAPE  H18Z14562   4.661   1.304   8.661 -0.7423  0.1151  1.2428
  135SAPE     N14563   4.391   1.108  10.540  0.3076  0.1685  0.5546
  135SAPE   HN114564   4.292   1.118  10.572  0.2318 -2.4277  1.3277
  135SAPE   HN214565   4.410   1.026  10.601 -1.4728 -1.1151 -0.5213
  135SAPE   HN314566   4.439   1.196  10.569 -0.0826  0.1600  1.2516
  135SAPE   C1214567   4.395   1.086  10.392  0.0855 -0.8571 -0.2131
  135SAPE  H12A14568   4.307   1.134  10.345  0.4546 -0.1400 -0.1827
  135SAPE  H12B14569   4.404   0.979  10.364  0.0848 -0.3287 -2.4564
  135SAPE   C1114570   4.519   1.166  10.335 -0.2868  0.5912 -0.4378
  135SAPE  H11A14571   4.532   1.154  10.225 -2.4160  0.1090 -0.6787
  135SAPE  H11B14572   4.601   1.110  10.385 -1.3844  0.1994  0.9916
  135SAPE     P14573   4.660   1.380  10.349 -0.2174  0.3150 -0.2329
  135SAPE   O1314574   4.639   1.523  10.356  0.5117 -0.6445 -0.5407
  135SAPE   O1414575   4.766   1.330  10.440 -1.0750 -0.1128 -0.7841
  135SAPE   O1214576   4.524   1.302  10.382  0.3633 -0.5736 -0.0426
  135SAPE   O1114577   4.690   1.330  10.202  0.1878 -0.6337  0.6451
  135SAPE    C114578   4.822   1.317  10.152 -0.0283  0.2083 -0.6743
  135SAPE    HA14579   4.887   1.287  10.236 -1.3470 -0.2898  0.2071
  135SAPE    HB14580   4.839   1.240  10.074  3.4727  0.6185 -0.4764
  135SAPE    C214581   4.864   1.450  10.081 -0.7947 -0.1571 -0.5587
  135SAPE    HS14582   4.844   1.522  10.164  0.3674 -1.7798  1.2108
  135SAPE   O2114583   4.796   1.475   9.962  0.1965  0.6337 -0.3627
  135SAPE   C2114584   4.716   1.573   9.955  0.4853 -0.6344 -0.2067
  135SAPE   O2214585   4.707   1.669  10.033 -0.3597  0.0051 -0.1659
  135SAPE   C2214586   4.645   1.571   9.810  0.5254 -0.0071  0.4008
  135SAPE   H2R14587   4.714   1.533   9.732 -0.5704 -0.0864 -0.5510
  135SAPE   H2S14588   4.556   1.507   9.829 -0.0691  1.0821  1.4589
  135SAPE    C314589   5.015   1.437  10.058  0.0515  0.1611  0.1396
  135SAPE    HX14590   5.059   1.429  10.160  1.8285 -0.9771 -0.6600
  135SAPE    HY14591   5.055   1.534  10.021  0.6559 -0.5600 -1.1887
  135SAPE   O3114592   5.050   1.326   9.982  0.3051 -0.2126 -0.2870
  135SAPE   C3114593   5.063   1.358   9.853 -0.6287  0.9081 -0.3992
  135SAPE   O3214594   5.059   1.473   9.812 -0.0039  0.4363  0.0666
  135SAPE   C3214595   5.088   1.234   9.771 -0.2787  0.1098  0.2139
  135SAPE   H2X14596   5.111   1.268   9.668  0.6761  0.3467  0.4997
  135SAPE   H2Y14597   4.998   1.169   9.774  0.7383 -1.2987  1.6228
  135SAPE   C2314598   4.599   1.705   9.756  0.2248 -0.0052  1.6304
  135SAPE   H3R14599   4.691   1.767   9.749  0.7420 -0.9559 -1.7929
  135SAPE   H3S14600   4.529   1.751   9.829 -0.6095 -0.2134  0.9746
  135SAPE   C2414601   4.545   1.692   9.615  0.3431 -0.3329  0.4480
  135SAPE   H4R14602   4.616   1.635   9.552  0.9233  1.6890 -0.8222
  135SAPE   H4S14603   4.557   1.794   9.572  1.5376 -0.7291 -0.1950
  135SAPE   C2514604   4.406   1.637   9.631 -0.2742  0.3507 -0.1177
  135SAPE   H5R14605   4.350   1.649   9.725 -2.5214  2.7974 -1.6172
  135SAPE   C2614606   4.354   1.562   9.535 -0.2386 -0.2795 -0.4327
  135SAPE   H6R14607   4.250   1.531   9.549 -0.5191 -0.7028 -2.9395
  135SAPE   C2714608   4.413   1.516   9.401 -0.1581 -0.9568  0.0541
  135SAPE   H7R14609   4.468   1.422   9.422  0.0257 -0.7665  0.4342
  135SAPE   H7S14610   4.489   1.590   9.368 -0.3442  0.2242  2.1104
  135SAPE   C2814611   4.293   1.497   9.308  0.8172 -0.8629  0.2883
  135SAPE   H8R14612   4.203   1.536   9.357  2.3303 -0.1593  2.7442
  135SAPE   C2914613   4.286   1.426   9.194 -0.1802 -0.0211  0.3706
  135SAPE   H9R14614   4.189   1.426   9.141 -0.4052  0.3540  0.7836
  135SAPE  C21014615   4.401   1.358   9.125  0.3506  0.4394  0.0586
  135SAPE  H10R14616   4.494   1.385   9.181  0.6318 -3.1139  1.5389
  135SAPE  H10S14617   4.425   1.407   9.027  3.5142 -1.9050 -0.5107
  135SAPE  C21114618   4.388   1.212   9.096 -0.2804  0.6400  0.1935
  135SAPE  H11R14619   4.388   1.148   9.186  1.0254  3.3376  2.2998
  135SAPE  C21214620   4.391   1.153   8.978  0.8236  0.2702  0.6034
  135SAPE  H12R14621   4.367   1.046   8.976  1.6684  0.0752  0.4745
  135SAPE  C21314622   4.410   1.220   8.843 -0.8320  0.3578 -0.6495
  135SAPE  H13R14623   4.459   1.146   8.777  0.1637  1.0025 -0.6675
  135SAPE  H13S14624   4.472   1.311   8.862  0.5542 -0.7163  0.1862
  135SAPE  C21414625   4.275   1.254   8.782  0.3672  0.2401  0.0840
  135SAPE  H14R14626   4.211   1.319   8.843  0.1816  0.1406 -0.0058
  135SAPE  C21514627   4.223   1.232   8.655 -0.7120  0.6125 -0.4071
  135SAPE  H15R14628   4.120   1.257   8.625 -0.6753  0.6528 -0.5017
  135SAPE  C21614629   4.301   1.162   8.539  0.4123 -0.8284 -0.3761
  135SAPE  H16R14630   4.238   1.126   8.456  0.3739 -0.7307 -0.3903
  135SAPE  H16S14631   4.358   1.082   8.591  0.8732  1.0520  2.2575
  135SAPE  C21714632   4.404   1.246   8.466  0.2872 -0.7475 -0.2011
  135SAPE  H17R14633   4.463   1.186   8.394 -0.8763 -1.2052 -0.8022
  135SAPE  H17S14634   4.467   1.295   8.543  1.3984 -1.1960 -0.8096
  135SAPE  C21814635   4.347   1.365   8.384  0.4886 -0.8401 -0.2353
  135SAPE  H18R14636   4.430   1.424   8.338 -0.8820  0.9059 -0.5846
  135SAPE  H18S14637   4.288   1.431   8.451 -1.1200  0.1165 -2.4551
  135SAPE  C21914638   4.250   1.336   8.268 -0.4660 -0.2544  0.0623
  135SAPE  H19R14639   4.169   1.303   8.336 -0.4422 -1.3165 -0.4009
  135SAPE  H19S14640   4.292   1.253   8.206 -3.7692 -0.2054 -2.4847
  135SAPE  C22014641   4.199   1.449   8.188 -0.4913  0.1219 -0.3481
  135SAPE  H20R14642   4.157   1.523   8.259  0.3273 -1.1642  1.5306
  135SAPE  H20S14643   4.117   1.416   8.121 -1.1427  2.5573 -0.8559
  135SAPE  H20T14644   4.279   1.507   8.137 -2.3638  4.0261  0.7447
  135SAPE   C3314645   5.205   1.152   9.821  0.1731 -0.3075  0.1781
  135SAPE   H3X14646   5.191   1.121   9.927  1.4749 -0.2255  0.3957
  135SAPE   H3Y14647   5.304   1.203   9.827 -0.5957  1.2424  0.2904
  135SAPE   C3414648   5.236   1.028   9.730  0.1446 -0.0417  0.0405
  135SAPE   H4X14649   5.272   1.062   9.630  1.4044 -1.4855 -0.0225
  135SAPE   H4Y14650   5.145   0.966   9.715 -0.1808  0.5196 -0.3820
  135SAPE   C3514651   5.341   0.931   9.795 -0.1816 -0.4005  0.3493
  135SAPE   H5X14652   5.301   0.907   9.896  1.5448 -0.0973  1.1287
  135SAPE   H5Y14653   5.430   0.996   9.809  1.4327 -2.6594  1.1276
  135SAPE   C3614654   5.372   0.813   9.708  0.1769  0.3328  0.3482
  135SAPE   H6X14655   5.399   0.860   9.611 -3.3732  0.8400 -0.5252
  135SAPE   H6Y14656   5.282   0.749   9.700  0.9235 -0.6378 -0.5668
  135SAPE   C3714657   5.491   0.729   9.755  0.4656  0.6856  0.2303
  135SAPE   H7X14658   5.466   0.680   9.852  1.0611  2.2432  1.2122
  135SAPE   H7Y14659   5.576   0.797   9.780  0.0977  0.6499  1.6752
  135SAPE   C3814660   5.534   0.621   9.655  0.4251 -0.5247  0.0689
  135SAPE   H8X14661   5.457   0.542   9.637  2.1709 -2.9175  2.4394
  135SAPE   H8Y14662   5.613   0.574   9.716 -0.0833  1.9644  2.8795
  135SAPE   C3914663   5.593   0.682   9.529  0.1327  0.1333 -0.2177
  135SAPE   H9X14664   5.676   0.749   9.559 -0.3483  0.3305  0.7117
  135SAPE   H9Y14665   5.515   0.742   9.476 -0.2154 -0.3053 -0.2104
  135SAPE  C31014666   5.654   0.572   9.442  0.0429  0.1391  0.0087
  135SAPE  H10X14667   5.573   0.517   9.389  2.0863 -2.2621 -0.7673
  135SAPE  H10Y14668   5.700   0.495   9.508 -1.5466 -0.5022  0.4232
  135SAPE  C31114669   5.755   0.609   9.336 -0.4833 -0.2490 -0.1934
  135SAPE  H11X14670   5.763   0.512   9.281  0.5550 -2.3740  3.4085
  135SAPE  H11Y14671   5.858   0.635   9.366 -0.0110 -2.1018 -0.0808
  135SAPE  C31214672   5.698   0.720   9.228  0.0688  0.7581  0.3597
  135SAPE  H12X14673   5.694   0.819   9.277  0.9894  1.6500 -1.2636
  135SAPE  H12Y14674   5.594   0.688   9.205 -0.7698  2.1611  1.9798
  135SAPE  C31314675   5.788   0.727   9.105 -0.8888 -0.9215 -0.0666
  135SAPE  H13X14676   5.887   0.691   9.139  0.9229  2.8237 -0.8237
  135SAPE  H13Y14677   5.797   0.832   9.069 -0.8591 -0.6963  0.5715
  135SAPE  C31414678   5.749   0.640   8.989  0.2181 -0.4141 -0.0852
  135SAPE  H14X14679   5.646   0.679   8.975  0.5367  0.6715  0.4650
  135SAPE  H14Y14680   5.736   0.536   9.024 -3.4806 -0.4506 -1.1659
  135SAPE  C31514681   5.831   0.668   8.867 -0.3980  0.3749 -1.0889
  135SAPE  H15X14682   5.937   0.643   8.887 -0.7873 -0.1846  0.3587
  135SAPE  H15Y14683   5.828   0.776   8.840 -0.3375  0.2190 -1.7477
  135SAPE  C31614684   5.773   0.582   8.756  0.0184 -0.2909 -0.5835
  135SAPE  H16X14685   5.664   0.598   8.743  0.0587 -0.9269 -1.7840
  135SAPE  H16Y14686   5.777   0.473   8.777 -0.5527  0.0027  1.1839
  135SAPE  C31714687   5.862   0.591   8.626  0.0033  0.0527 -0.0832
  135SAPE  H17X14688   5.967   0.583   8.659 -0.6140 -0.8103  1.8336
  135SAPE  H17Y14689   5.845   0.697   8.597  1.6805  0.6373  0.9589
  135SAPE  C31814690   5.824   0.493   8.513 -0.0989 -0.0302  0.2561
  135SAPE  H18X14691   5.890   0.498   8.424  0.0856  0.1583  0.4011
  135SAPE  H18Y14692   5.717   0.498   8.485 -0.2722 -1.5332  0.5283
  135SAPE  H18Z14693   5.829   0.391   8.559  1.4434 -0.3224 -0.4881
  136SAPE     N14694   0.419   1.398  10.952 -0.5148  0.0768  0.7411
  136SAPE   HN114695   0.375   1.427  11.041 -0.6300 -0.5209  0.8869
  136SAPE   HN214696   0.520   1.422  10.951 -0.3158 -0.6333  2.1648
  136SAPE   HN314697   0.377   1.452  10.874  0.7480 -1.1955 -0.9030
  136SAPE   C1214698   0.417   1.256  10.915  0.2181 -0.3078 -0.1334
  136SAPE  H12A14699   0.310   1.234  10.894  0.4192 -0.6886 -0.7586
  136SAPE  H12B14700   0.456   1.198  11.001 -2.5175  1.3956  2.4485
  136SAPE   C1114701   0.515   1.222  10.792  1.1573 -0.8589 -0.1135
  136SAPE  H11A14702   0.485   1.284  10.705  0.7368  1.0046  1.2878
  136SAPE  H11B14703   0.495   1.115  10.770 -1.6437 -0.4270  0.0412
  136SAPE     P14704   0.776   1.278  10.735 -0.1489  0.2871 -0.1802
  136SAPE   O1314705   0.781   1.424  10.719 -0.5163 -0.4783 -0.0548
  136SAPE   O1414706   0.891   1.205  10.785  0.0557  0.3718  0.1815
  136SAPE   O1214707   0.650   1.243  10.829 -0.0225 -0.5798  0.0959
  136SAPE   O1114708   0.721   1.218  10.601 -0.2134 -0.1023 -0.1778
  136SAPE    C114709   0.741   1.080  10.553 -0.2514 -0.7069  0.5450
  136SAPE    HA14710   0.749   1.004  10.633  0.7744 -0.2775  0.8634
  136SAPE    HB14711   0.655   1.050  10.489 -1.6152  0.3385  1.8296
  136SAPE    C214712   0.868   1.068  10.473 -0.4501 -1.0149  0.1043
  136SAPE    HS14713   0.940   1.130  10.530 -2.0234  1.2608 -0.2582
  136SAPE   O2114714   0.858   1.126  10.337  0.3267 -0.0888 -0.3726
  136SAPE   C2114715   0.975   1.162  10.294  0.5089 -0.1212 -0.2918
  136SAPE   O2214716   1.080   1.167  10.357  0.2242  0.0374  0.9389
  136SAPE   C2214717   0.950   1.218  10.157 -0.4403 -0.1753  0.2784
  136SAPE   H2R14718   0.840   1.232  10.145 -0.7456 -1.2109  1.5736
  136SAPE   H2S14719   1.015   1.308  10.152  0.1270 -0.4485  2.0242
  136SAPE    C314720   0.906   0.913  10.455  0.3996 -0.2684  0.6347
  136SAPE    HX14721   0.910   0.869  10.557  1.0054  0.6966  1.0400
  136SAPE    HY14722   1.005   0.901  10.406  0.6124 -2.6225  1.5344
  136SAPE   O3114723   0.809   0.846  10.380  0.1374 -0.0284  0.2230
  136SAPE   C3114724   0.841   0.746  10.296  0.2178 -0.3743 -0.1840
  136SAPE   O3214725   0.954   0.710  10.280 -0.4048 -0.1456 -0.1930
  136SAPE   C3214726   0.712   0.675  10.239 -0.6806 -0.5432  0.2964
  136SAPE   H2X14727   0.636   0.754  10.220  0.0678  0.0136 -0.4653
  136SAPE   H2Y14728   0.680   0.614  10.326  1.3124 -1.1959  0.6318
  136SAPE   C2314729   0.991   1.119  10.041 -0.0007 -0.1357 -0.5936
  136SAPE   H3R14730   0.986   1.014  10.078  0.2131 -0.4905 -1.5437
  136SAPE   H3S14731   1.092   1.144  10.003  0.6104 -0.1746  0.9647
  136SAPE   C2414732   0.901   1.132   9.919  0.8143 -0.1234 -0.2088
  136SAPE   H4R14733   0.796   1.125   9.953  1.3482 -0.0693  1.5381
  136SAPE   H4S14734   0.924   1.043   9.857 -2.3276 -0.3310 -1.2560
  136SAPE   C2514735   0.921   1.267   9.847  0.6374  0.1080  0.3070
  136SAPE   H5R14736   0.885   1.353   9.906  0.8185 -0.8440  1.8342
  136SAPE   C2614737   0.956   1.285   9.723  0.4004  0.2962 -0.1250
  136SAPE   H6R14738   0.971   1.390   9.693  0.3651  1.1782  2.6283
  136SAPE   C2714739   0.975   1.172   9.623 -0.2989 -1.0762  0.1703
  136SAPE   H7R14740   1.014   1.080   9.671 -0.9509 -0.3572  2.1964
  136SAPE   H7S14741   1.069   1.198   9.569 -1.3601  1.1641 -0.7323
  136SAPE   C2814742   0.863   1.132   9.536  0.9720  0.1879  0.0650
  136SAPE   H8R14743   0.785   1.077   9.591  0.0042  2.5157  1.1766
  136SAPE   C2914744   0.836   1.170   9.412 -0.2775  0.5120  0.6756
  136SAPE   H9R14745   0.752   1.121   9.362 -1.3981  2.2778  0.7579
  136SAPE  C21014746   0.919   1.258   9.321  0.6380 -0.0299 -0.6742
  136SAPE  H10R14747   0.989   1.324   9.377 -0.4932  0.7767 -0.1758
  136SAPE  H10S14748   0.860   1.341   9.277  0.8168  0.5227  0.1114
  136SAPE  C21114749   0.981   1.164   9.218 -0.3905  0.0266  0.1034
  136SAPE  H11R14750   1.065   1.100   9.250 -0.7374  0.1879  1.4014
  136SAPE  C21214751   0.937   1.160   9.091 -0.7965  0.4668  0.0411
  136SAPE  H12R14752   0.969   1.071   9.037 -0.6955  0.1457  0.6177
  136SAPE  C21314753   0.831   1.229   9.017 -0.5229 -0.0905  0.7311
  136SAPE  H13R14754   0.765   1.300   9.072 -0.8350 -0.5701  0.9788
  136SAPE  H13S14755   0.753   1.158   8.981  0.2823 -0.3060 -0.6806
  136SAPE  C21414756   0.898   1.297   8.892  0.1172  0.4391  0.6348
  136SAPE  H14R14757   0.882   1.249   8.794  0.8384  0.0145  0.7187
  136SAPE  C21514758   0.980   1.401   8.888 -0.3722  0.7820 -0.7658
  136SAPE  H15R14759   1.014   1.438   8.791  1.4759  0.3705 -0.3242
  136SAPE  C21614760   1.038   1.477   9.004 -0.1591  0.2178 -0.1591
  136SAPE  H16R14761   0.972   1.473   9.093 -1.7565  0.7083 -1.2738
  136SAPE  H16S14762   1.049   1.586   8.984  1.8860  0.2321  0.7790
  136SAPE  C21714763   1.182   1.426   9.041  0.0162 -0.1408 -0.1297
  136SAPE  H17R14764   1.199   1.319   9.064  0.2774  0.0791  0.7267
  136SAPE  H17S14765   1.196   1.485   9.134  1.9707 -0.3668 -0.2371
  136SAPE  C21814766   1.285   1.468   8.940  0.4055  0.6115 -0.2063
  136SAPE  H18R14767   1.269   1.576   8.921  0.8745  0.6165 -0.6042
  136SAPE  H18S14768   1.281   1.417   8.841  2.9089 -1.2832  0.5415
  136SAPE  C21914769   1.428   1.446   9.004 -0.1300 -0.2278 -0.6253
  136SAPE  H19R14770   1.440   1.341   9.038  0.9605  0.0004 -0.2728
  136SAPE  H19S14771   1.427   1.497   9.103 -2.3626 -1.8665  0.2709
  136SAPE  C22014772   1.543   1.505   8.916 -0.2983  0.5188 -0.3228
  136SAPE  H20R14773   1.642   1.520   8.963  0.8286 -1.8756 -1.7513
  136SAPE  H20S14774   1.516   1.593   8.853 -0.6712 -0.4951 -1.6541
  136SAPE  H20T14775   1.575   1.435   8.836  1.0373  2.9897 -2.1193
  136SAPE   C3314776   0.734   0.578  10.121 -0.0351 -0.0219 -0.0780
  136SAPE   H3X14777   0.656   0.499  10.129  0.0029  0.0696  1.5304
  136SAPE   H3Y14778   0.835   0.533  10.118  0.3525  0.6609  1.4968
  136SAPE   C3414779   0.705   0.651   9.998  0.2624 -0.2768  0.0217
  136SAPE   H4X14780   0.771   0.741  10.001 -0.0478 -0.0706  0.7056
  136SAPE   H4Y14781   0.603   0.694  10.000  0.4648  0.1754  1.6675
  136SAPE   C3514782   0.722   0.576   9.860 -0.3645 -0.5031 -0.4089
  136SAPE   H5X14783   0.643   0.500   9.843 -0.0044 -0.9658 -0.0433
  136SAPE   H5Y14784   0.815   0.516   9.859 -0.2359 -0.5120  2.5395
  136SAPE   C3614785   0.721   0.663   9.736 -1.0111  0.0622 -0.3309
  136SAPE   H6X14786   0.788   0.749   9.755 -2.1096  0.8302  0.1150
  136SAPE   H6Y14787   0.623   0.712   9.721 -1.3260  0.4651  2.4865
  136SAPE   C3714788   0.753   0.591   9.608  0.2440  0.0861 -0.0438
  136SAPE   H7X14789   0.654   0.545   9.586 -0.7394  0.3249  3.3186
  136SAPE   H7Y14790   0.828   0.511   9.616  0.8624  0.7393  0.9065
  136SAPE   C3814791   0.788   0.681   9.491 -0.0186 -0.2998  0.3812
  136SAPE   H8X14792   0.868   0.751   9.522  0.6495  0.2798 -2.4116
  136SAPE   H8Y14793   0.696   0.743   9.477  0.4993  0.4718  0.3607
  136SAPE   C3914794   0.820   0.603   9.364 -0.8418 -0.3735  0.5315
  136SAPE   H9X14795   0.745   0.521   9.355 -0.3534 -0.6809 -0.9307
  136SAPE   H9Y14796   0.923   0.562   9.360 -0.1624  1.1817 -4.5753
  136SAPE  C31014797   0.806   0.692   9.238  0.3308  0.2846  0.7129
  136SAPE  H10X14798   0.873   0.780   9.248 -0.2629  1.0475 -1.3616
  136SAPE  H10Y14799   0.699   0.722   9.231  1.0299  2.9104 -0.2299
  136SAPE  C31114800   0.837   0.615   9.109 -0.5787  0.6594  0.7197
  136SAPE  H11X14801   0.766   0.529   9.108 -3.4410  2.7806 -2.5836
  136SAPE  H11Y14802   0.939   0.575   9.127 -0.6392  1.2079  2.3935
  136SAPE  C31214803   0.837   0.686   8.976  0.0532  0.6470 -0.1914
  136SAPE  H12X14804   0.923   0.756   8.972  0.0646  0.8708  2.4000
  136SAPE  H12Y14805   0.746   0.746   8.955 -1.0414 -1.1974 -0.9805
  136SAPE  C31314806   0.863   0.587   8.856  0.3310  0.3716 -0.3828
  136SAPE  H13X14807   0.871   0.647   8.763 -4.9655 -0.0091 -1.3648
  136SAPE  H13Y14808   0.771   0.525   8.855  0.1444  0.6470 -1.2663
  136SAPE  C31414809   0.987   0.502   8.871  0.4918  0.4109  0.0550
  136SAPE  H14X14810   0.969   0.421   8.796  1.1437  0.7090 -0.4317
  136SAPE  H14Y14811   0.992   0.445   8.966  0.9840  1.7972  0.8838
  136SAPE  C31514812   1.118   0.575   8.843  0.2831  0.6413 -0.0006
  136SAPE  H15X14813   1.146   0.632   8.934  2.9497 -1.0587  0.3381
  136SAPE  H15Y14814   1.087   0.646   8.763 -1.1876 -1.4047 -1.3513
  136SAPE  C31614815   1.224   0.474   8.798 -0.0695  0.0585  0.4353
  136SAPE  H16X14816   1.170   0.426   8.714  1.5903 -2.5873  0.7740
  136SAPE  H16Y14817   1.230   0.405   8.885 -2.2355 -0.7059  0.0433
  136SAPE  C31714818   1.354   0.537   8.745  0.5302  0.5986  0.0726
  136SAPE  H17X14819   1.386   0.623   8.807  2.2375  1.1343 -1.4403
  136SAPE  H17Y14820   1.342   0.559   8.637 -0.8730 -1.2303 -0.2016
  136SAPE  C31814821   1.462   0.421   8.749 -0.3882  0.4299 -0.2148
  136SAPE  H18X14822   1.433   0.340   8.680  0.8158 -0.9097  0.7990
  136SAPE  H18Y14823   1.459   0.385   8.854 -0.8912  0.1503 -0.3224
  136SAPE  H18Z14824   1.553   0.475   8.716  1.0325 -0.6905  1.6645
  137SAPE     N14825   5.240   4.195  10.857  0.1009 -0.1678  0.3238
  137SAPE   HN114826   5.300   4.243  10.927  1.7699 -0.4787 -0.8329
  137SAPE   HN214827   5.220   4.270  10.788  0.1393  0.7437  1.2710
  137SAPE   HN314828   5.149   4.168  10.899  0.9197 -2.5850  0.7353
  137SAPE   C1214829   5.317   4.073  10.810 -0.3763 -1.0415 -0.0575
  137SAPE  H12A14830   5.242   4.029  10.740 -0.4556  0.0268 -0.6742
  137SAPE  H12B14831   5.334   4.009  10.899  1.0370  0.9192  1.1836
  137SAPE   C1114832   5.459   4.093  10.744 -0.7134  0.4106 -0.4554
  137SAPE  H11A14833   5.441   4.173  10.669 -0.3880 -0.3049 -1.3100
  137SAPE  H11B14834   5.495   4.006  10.686  0.4488 -0.2487  1.1621
  137SAPE     P14835   5.585   4.267  10.892  0.2850 -0.3505 -0.3642
  137SAPE   O1314836   5.456   4.325  10.941  0.5929 -0.4606  0.3257
  137SAPE   O1414837   5.704   4.273  10.978  0.1234 -0.3431 -0.2754
  137SAPE   O1214838   5.559   4.124  10.843 -0.1174 -0.5713  0.2779
  137SAPE   O1114839   5.622   4.351  10.763 -0.0816 -1.1596  0.1018
  137SAPE    C114840   5.729   4.325  10.669  0.0516  0.0606  0.3495
  137SAPE    HA14841   5.808   4.404  10.662  1.9371 -1.5917  1.7800
  137SAPE    HB14842   5.789   4.235  10.694  3.7319  1.6284 -1.9099
  137SAPE    C214843   5.680   4.312  10.530  0.1249 -0.7170  0.7976
  137SAPE    HS14844   5.604   4.231  10.525 -0.3146 -0.2513 -0.3340
  137SAPE   O2114845   5.795   4.285  10.442  0.4953 -0.7574 -1.0045
  137SAPE   C2114846   5.806   4.165  10.384  0.3727 -0.6036  0.0475
  137SAPE   O2214847   5.726   4.075  10.395 -0.2160  0.3922  0.2104
  137SAPE   C2214848   5.944   4.161  10.309 -0.0495  0.1900  0.2852
  137SAPE   H2R14849   5.947   4.256  10.251 -0.5902  0.1671  0.2155
  137SAPE   H2S14850   6.018   4.173  10.391  0.2713 -0.7714  0.1494
  137SAPE    C314851   5.591   4.439  10.483 -0.5345  0.3588 -0.0706
  137SAPE    HX14852   5.647   4.529  10.517  1.5678 -1.4951  1.6458
  137SAPE    HY14853   5.504   4.437  10.551 -2.8298  1.4637 -2.7376
  137SAPE   O3114854   5.558   4.434  10.342 -0.7188  0.5121  1.4443
  137SAPE   C3114855   5.645   4.492  10.259  0.0703 -0.1466  0.9521
  137SAPE   O3214856   5.749   4.545  10.299  0.2649 -0.0738  0.1518
  137SAPE   C3214857   5.614   4.461  10.107  0.0705  0.1822  0.1991
  137SAPE   H2X14858   5.516   4.511  10.087 -1.1682 -2.5470 -1.0371
  137SAPE   H2Y14859   5.615   4.351  10.095  3.4201  0.2132 -0.7689
  137SAPE   C2314860   5.959   4.030  10.223  0.2363  0.5537 -0.2988
  137SAPE   H3R14861   5.933   3.943  10.286 -0.1682  0.3609 -0.7315
  137SAPE   H3S14862   6.063   4.017  10.184 -0.0205 -2.3454 -0.1855
  137SAPE   C2414863   5.869   4.025  10.103  0.0156  0.0215 -0.4133
  137SAPE   H4R14864   5.766   4.024  10.145  0.3969  2.4959  0.7828
  137SAPE   H4S14865   5.892   3.928  10.053  0.9449  0.7606 -1.4589
  137SAPE   C2514866   5.880   4.134   9.999  0.2900 -0.5772 -0.2633
  137SAPE   H5R14867   5.868   4.230  10.051 -0.4074 -0.7917 -0.0229
  137SAPE   C2614868   5.916   4.131   9.870  0.7081  0.3289 -0.2179
  137SAPE   H6R14869   5.938   4.222   9.813  0.1846  1.1432  0.8491
  137SAPE   C2714870   5.937   4.005   9.790  0.1201  0.2905  0.3236
  137SAPE   H7R14871   5.839   3.982   9.742  0.1182  1.9773 -0.5618
  137SAPE   H7S14872   5.957   3.927   9.866 -1.7387  0.3363  0.9182
  137SAPE   C2814873   6.048   4.028   9.693 -0.2585 -0.8826  0.2702
  137SAPE   H8R14874   6.144   4.043   9.745 -1.0235  0.7387  1.3190
  137SAPE   C2914875   6.028   4.050   9.558 -0.5186  0.3135  0.1418
  137SAPE   H9R14876   6.115   4.075   9.494 -0.9628 -2.8657 -1.9142
  137SAPE  C21014877   5.897   4.054   9.487 -0.1767 -0.4404  0.1840
  137SAPE  H10R14878   5.805   4.037   9.547 -0.4303  0.2765  0.0045
  137SAPE  H10S14879   5.897   3.966   9.419  0.4114 -1.2525  1.1996
  137SAPE  C21114880   5.878   4.172   9.402  0.1271  1.1583 -0.4435
  137SAPE  H11R14881   5.815   4.244   9.456  0.1799  0.4517  0.5763
  137SAPE  C21214882   5.923   4.185   9.274  0.3187 -0.0155  0.1655
  137SAPE  H12R14883   5.901   4.275   9.214  1.1291 -0.5483 -0.9646
  137SAPE  C21314884   6.012   4.092   9.189 -0.2669  0.2593  0.4343
  137SAPE  H13R14885   5.939   4.026   9.137  2.7410 -2.6337 -0.4770
  137SAPE  H13S14886   6.070   4.019   9.250  0.4421 -0.6071 -1.1895
  137SAPE  C21414887   6.113   4.152   9.089  0.1850  0.2271 -0.4918
  137SAPE  H14R14888   6.206   4.187   9.137 -0.4158  2.1614 -0.6613
  137SAPE  C21514889   6.090   4.169   8.955 -0.1723  0.0431 -0.0610
  137SAPE  H15R14890   6.163   4.229   8.899 -0.0225 -0.3301 -0.2719
  137SAPE  C21614891   5.958   4.139   8.883  0.1827  0.4706 -0.2482
  137SAPE  H16R14892   5.873   4.138   8.955  1.3259  1.7496  1.2145
  137SAPE  H16S14893   5.958   4.033   8.850  1.1022  0.4885 -0.3328
  137SAPE  C21714894   5.918   4.227   8.767 -0.2476  0.0080  0.4295
  137SAPE  H17R14895   5.999   4.230   8.691  0.5200 -2.6791  1.0114
  137SAPE  H17S14896   5.896   4.328   8.806 -2.5968  0.2517 -1.2959
  137SAPE  C21814897   5.783   4.195   8.695 -0.1626 -0.0935  0.4236
  137SAPE  H18R14898   5.771   4.271   8.615  1.2638  0.5355  0.7819
  137SAPE  H18S14899   5.700   4.214   8.766 -0.2146 -0.2969  0.4195
  137SAPE  C21914900   5.772   4.056   8.628 -0.8939 -0.2973 -0.4467
  137SAPE  H19R14901   5.664   4.028   8.619 -1.1523  0.2690  0.6901
  137SAPE  H19S14902   5.822   3.988   8.700  0.9106  1.2126 -0.1896
  137SAPE  C22014903   5.841   4.047   8.488  0.3789 -0.2520  0.5024
  137SAPE  H20R14904   5.834   3.946   8.443 -0.6706 -0.0506  0.2077
  137SAPE  H20S14905   5.950   4.061   8.507  0.8183  0.4524 -2.1455
  137SAPE  H20T14906   5.816   4.138   8.430  1.9127 -0.5231 -0.6651
  137SAPE   C3314907   5.718   4.523  10.012 -0.6980  0.6341  0.1666
  137SAPE   H3X14908   5.807   4.458  10.028 -1.4041 -0.2946  0.4243
  137SAPE   H3Y14909   5.744   4.625  10.045  0.1897  0.9371 -1.3810
  137SAPE   C3414910   5.665   4.528   9.867 -0.7897  0.0315 -0.4733
  137SAPE   H4X14911   5.556   4.547   9.869 -0.9779 -1.0610  0.7529
  137SAPE   H4Y14912   5.696   4.434   9.816  1.2064 -0.5272  1.6018
  137SAPE   C3514913   5.726   4.647   9.798  0.2476 -0.1760 -0.4186
  137SAPE   H5X14914   5.835   4.663   9.813 -0.0778  2.3461 -0.3505
  137SAPE   H5Y14915   5.679   4.743   9.827  2.6692  0.6460  1.0459
  137SAPE   C3614916   5.708   4.651   9.646 -0.0299  0.1723  0.3841
  137SAPE   H6X14917   5.741   4.751   9.610  3.2134 -0.8029  0.2984
  137SAPE   H6Y14918   5.600   4.645   9.620 -0.2725  1.8814  0.8498
  137SAPE   C3714919   5.783   4.544   9.567 -0.1209  0.2786 -0.6035
  137SAPE   H7X14920   5.735   4.447   9.595  0.0432  0.1594 -0.7416
  137SAPE   H7Y14921   5.890   4.545   9.597 -0.0536  4.4919 -0.3558
  137SAPE   C3814922   5.780   4.561   9.411  0.0888  0.8376  0.1612
  137SAPE   H8X14923   5.818   4.467   9.364 -1.3508 -0.5896  1.7064
  137SAPE   H8Y14924   5.851   4.636   9.372 -0.9029  1.5929 -0.2251
  137SAPE   C3914925   5.637   4.591   9.357  0.3967 -0.1073  0.2894
  137SAPE   H9X14926   5.612   4.695   9.389  2.1940 -0.0670  1.6719
  137SAPE   H9Y14927   5.564   4.521   9.404  0.4210  0.3432  1.0118
  137SAPE  C31014928   5.624   4.572   9.202 -0.9794 -0.7216  0.4744
  137SAPE  H10X14929   5.642   4.463   9.185 -3.3700 -1.0889 -0.1935
  137SAPE  H10Y14930   5.701   4.631   9.148 -1.6153  0.1431  0.5001
  137SAPE  C31114931   5.487   4.607   9.144  0.1111 -0.2197 -0.0820
  137SAPE  H11X14932   5.454   4.711   9.163  0.0630 -0.4585  1.2241
  137SAPE  H11Y14933   5.415   4.535   9.190  1.0620 -2.5361 -1.9888
  137SAPE  C31214934   5.468   4.578   8.998  0.5580 -0.1546 -0.3589
  137SAPE  H12X14935   5.548   4.639   8.951  2.0727 -1.3990  0.5010
  137SAPE  H12Y14936   5.367   4.611   8.968  0.5887  1.7162  1.3893
  137SAPE  C31314937   5.475   4.434   8.949 -0.0370 -0.0749 -0.1834
  137SAPE  H13X14938   5.392   4.377   8.995 -0.6871 -0.3346 -1.6196
  137SAPE  H13Y14939   5.568   4.390   8.990  0.7196 -1.6787 -3.2827
  137SAPE  C31414940   5.463   4.415   8.800 -0.0500  0.0899  1.1802
  137SAPE  H14X14941   5.498   4.311   8.783  1.5030  0.9874 -1.8932
  137SAPE  H14Y14942   5.534   4.478   8.743 -0.9286 -0.6698 -0.8492
  137SAPE  C31514943   5.318   4.428   8.738  0.4907  0.3156 -0.1075
  137SAPE  H15X14944   5.290   4.535   8.750 -1.3555 -0.1215 -0.1523
  137SAPE  H15Y14945   5.233   4.380   8.792 -0.4176 -1.2889 -2.7860
  137SAPE  C31614946   5.316   4.401   8.589  0.7977  0.3587  0.3625
  137SAPE  H16X14947   5.336   4.292   8.577  2.6404  0.6506  0.5276
  137SAPE  H16Y14948   5.410   4.447   8.551  0.9843 -0.5705 -0.3524
  137SAPE  C31714949   5.185   4.426   8.507 -0.5208 -0.4256 -0.0520
  137SAPE  H17X14950   5.196   4.531   8.472  0.9311 -0.7720 -0.7158
  137SAPE  H17Y14951   5.095   4.436   8.572  2.3266  0.6020  4.1806
  137SAPE  C31814952   5.170   4.341   8.385  0.6742  0.3287 -0.6336
  137SAPE  H18X14953   5.202   4.236   8.400  2.7914  1.1591  1.1775
  137SAPE  H18Y14954   5.244   4.378   8.311  1.2114  2.1180  0.7219
  137SAPE  H18Z14955   5.069   4.335   8.338  0.9869 -3.3624 -1.0756
  138SAPE     N14956   1.138   4.460  10.939 -0.0735 -0.0931 -0.0975
  138SAPE   HN114957   1.093   4.539  10.990 -2.8394 -1.2137 -0.6747
  138SAPE   HN214958   1.090   4.370  10.956 -1.8390  1.3470  3.6455
  138SAPE   HN314959   1.241   4.450  10.950 -0.2576 -1.5239  0.4973
  138SAPE   C1214960   1.116   4.475  10.788  0.4310 -0.8723  0.3946
  138SAPE  H12A14961   1.160   4.572  10.756  0.0164 -1.3277 -1.6953
  138SAPE  H12B14962   1.008   4.460  10.769  0.3495 -0.7247  0.7428
  138SAPE   C1114963   1.184   4.367  10.713 -0.2339 -0.2612  0.5413
  138SAPE  H11A14964   1.292   4.393  10.716 -0.2372 -0.0571 -0.6727
  138SAPE  H11B14965   1.144   4.379  10.610 -0.5497  1.4427  0.8403
  138SAPE     P14966   1.037   4.157  10.723  0.2202  0.2847  0.2369
  138SAPE   O1314967   1.067   4.021  10.765 -0.1494  0.5192 -0.4056
  138SAPE   O1414968   0.923   4.228  10.782 -0.0208 -0.0245 -0.1089
  138SAPE   O1214969   1.159   4.235  10.767  0.5720 -0.1153 -0.2506
  138SAPE   O1114970   1.043   4.159  10.561  0.1399  0.3206 -0.1069
  138SAPE    C114971   0.927   4.097  10.485 -1.0218 -0.1293 -0.1284
  138SAPE    HA14972   0.959   3.995  10.454  2.9081  0.6344  0.7853
  138SAPE    HB14973   0.842   4.089  10.556 -1.5433  3.1900 -0.2035
  138SAPE    C214974   0.888   4.173  10.362 -0.6962  0.0222  0.4085
  138SAPE    HS14975   0.984   4.198  10.312 -0.3719 -0.3375  0.8492
  138SAPE   O2114976   0.816   4.289  10.400 -0.2910  0.1902  0.3371
  138SAPE   C2114977   0.845   4.399  10.336 -0.1046 -0.5831  0.2840
  138SAPE   O2214978   0.917   4.409  10.241 -0.4296 -0.0480 -0.5405
  138SAPE   C2214979   0.770   4.519  10.396 -1.2083  0.3372 -0.4917
  138SAPE   H2R14980   0.729   4.574  10.308 -1.8998  2.3504  1.0296
  138SAPE   H2S14981   0.678   4.490  10.452 -0.6433 -1.2132 -0.3169
  138SAPE    C314982   0.794   4.092  10.265 -0.0825  0.1967  0.0507
  138SAPE    HX14983   0.763   4.170  10.192 -0.9645  0.8240  1.0727
  138SAPE    HY14984   0.707   4.060  10.325  0.5329 -1.4358  0.1178
  138SAPE   O3114985   0.856   3.976  10.208 -0.3070  0.0455  0.2951
  138SAPE   C3114986   0.874   3.978  10.074 -0.8381 -0.1750 -0.4639
  138SAPE   O3214987   0.852   4.067   9.997 -0.5711  0.0225 -0.2070
  138SAPE   C3214988   0.950   3.852  10.044 -0.7159 -0.3332  0.3574
  138SAPE   H2X14989   0.954   3.784  10.132  0.5523 -2.1572 -1.0372
  138SAPE   H2Y14990   1.055   3.885  10.027 -1.3328  0.2604 -2.8493
  138SAPE   C2314991   0.859   4.600  10.493 -0.3377 -1.0696  0.1835
  138SAPE   H3R14992   0.913   4.528  10.559  3.2126  1.1427 -0.0084
  138SAPE   H3S14993   0.785   4.662  10.547 -1.6749 -2.1223 -0.3965
  138SAPE   C2414994   0.959   4.694  10.419  0.1177 -0.0358 -0.3372
  138SAPE   H4R14995   0.902   4.772  10.365  1.1480  1.1545  0.2346
  138SAPE   H4S14996   1.014   4.634  10.343 -1.2626 -1.1762 -0.4819
  138SAPE   C2514997   1.057   4.767  10.515  0.0861 -0.4815  0.0791
  138SAPE   H5R14998   1.013   4.837  10.587  0.5088  1.0665 -1.1065
  138SAPE   C2614999   1.188   4.755  10.511  0.0149  0.5638  0.0327
  138SAPE   H6R15000   1.234   4.822  10.584 -1.1420  0.7664  0.5969
  138SAPE   C2715001   1.280   4.672  10.427 -0.6244  0.3081  0.1444
  138SAPE   H7R15002   1.250   4.675  10.320  0.3509 -0.3533 -0.1557
  138SAPE   H7S15003   1.287   4.563  10.450  0.4269 -0.4996 -3.3753
  138SAPE   C2815004   1.420   4.738  10.442  0.1050 -0.2581 -0.0362
  138SAPE   H8R15005   1.465   4.731  10.542  0.1085 -0.9295 -0.0786
  138SAPE   C2915006   1.498   4.803  10.353 -0.3634 -0.2146 -0.7275
  138SAPE   H9R15007   1.591   4.844  10.395 -1.0862 -0.2416  0.9939
  138SAPE  C21015008   1.478   4.831  10.209  0.4191 -0.3050 -0.0064
  138SAPE  H10R15009   1.409   4.761  10.157  0.0776  1.7811 -2.6419
  138SAPE  H10S15010   1.576   4.812  10.161  0.4366  0.6495 -0.3861
  138SAPE  C21115011   1.435   4.970  10.177  0.9714  0.3836  0.4975
  138SAPE  H11R15012   1.407   5.039  10.258  0.7690 -0.5298  1.2242
  138SAPE  C21215013   1.432   5.013  10.049  0.4060  0.6994  0.6894
  138SAPE  H12R15014   1.393   5.114  10.033 -0.6490  0.3837  1.1875
  138SAPE  C21315015   1.454   4.948   9.921 -0.2592 -0.7250 -0.9927
  138SAPE  H13R15016   1.499   4.847   9.936  2.4348  0.4916 -0.3457
  138SAPE  H13S15017   1.536   5.002   9.868 -1.4763  1.6006 -0.6270
  138SAPE  C21415018   1.333   4.927   9.842 -0.1956  0.0757 -0.2688
  138SAPE  H14R15019   1.292   4.825   9.842 -1.4188  0.5377  1.0524
  138SAPE  C21515020   1.284   5.015   9.748 -0.0971 -0.5401 -0.0050
  138SAPE  H15R15021   1.201   4.982   9.684  1.3822  0.1317 -2.4297
  138SAPE  C21615022   1.338   5.156   9.717  0.1687  0.1991 -0.4316
  138SAPE  H16R15023   1.382   5.202   9.808 -0.0053 -0.1951 -0.1464
  138SAPE  H16S15024   1.265   5.227   9.673  1.0774  1.5901  0.2091
  138SAPE  C21715025   1.455   5.164   9.616  0.4396  0.0921  0.9435
  138SAPE  H17R15026   1.531   5.088   9.643  2.4889  0.8653 -2.1391
  138SAPE  H17S15027   1.502   5.264   9.627  0.6415  0.3057 -1.3469
  138SAPE  C21815028   1.423   5.157   9.464 -0.5315 -0.3656 -0.0891
  138SAPE  H18R15029   1.348   5.236   9.440 -1.1039 -1.2002 -1.1591
  138SAPE  H18S15030   1.390   5.058   9.427  2.9086 -1.0116 -1.8380
  138SAPE  C21915031   1.544   5.188   9.371 -0.3217  0.8773 -0.5642
  138SAPE  H19R15032   1.509   5.185   9.266  0.6962 -0.8842 -0.9115
  138SAPE  H19S15033   1.618   5.106   9.386 -1.6411 -0.5888 -1.7252
  138SAPE  C22015034   1.622   5.318   9.401  0.5931  0.2114 -0.5951
  138SAPE  H20R15035   1.556   5.399   9.440 -1.1169 -1.2477 -0.3177
  138SAPE  H20S15036   1.674   5.353   9.309 -1.4773  1.8439 -1.2146
  138SAPE  H20T15037   1.702   5.313   9.478 -1.8608  0.4676  2.1434
  138SAPE   C3315038   0.895   3.789   9.912 -0.1410  0.3132  0.3105
  138SAPE   H3X15039   0.784   3.791   9.911 -0.1593  0.4738 -2.1958
  138SAPE   H3Y15040   0.914   3.680   9.919  0.1640  0.3825  0.5670
  138SAPE   C3415041   0.952   3.850   9.786 -0.6584  0.0235 -0.2144
  138SAPE   H4X15042   1.061   3.840   9.805 -0.3030 -0.6882 -2.3371
  138SAPE   H4Y15043   0.941   3.961   9.782  1.9058  0.3557  0.2382
  138SAPE   C3515044   0.915   3.786   9.655 -0.1045 -0.2512 -0.3010
  138SAPE   H5X15045   0.806   3.807   9.645  0.5869  3.2068 -1.7327
  138SAPE   H5Y15046   0.953   3.682   9.663  0.8105  0.0831 -0.2002
  138SAPE   C3615047   0.980   3.865   9.540 -0.8216  0.5767  0.1922
  138SAPE   H6X15048   1.087   3.877   9.567 -0.8692  1.1128  0.1580
  138SAPE   H6Y15049   0.929   3.963   9.531 -0.9144  0.6093  0.9730
  138SAPE   C3715050   0.959   3.787   9.410  0.2196  0.3803 -0.0145
  138SAPE   H7X15051   0.852   3.782   9.380 -0.6738 -2.5764  3.0215
  138SAPE   H7Y15052   0.989   3.680   9.416 -0.0110  0.2655 -0.7714
  138SAPE   C3815053   1.043   3.846   9.299 -0.3446  0.2686 -0.3501
  138SAPE   H8X15054   1.153   3.845   9.311  0.0267  0.4676 -3.0512
  138SAPE   H8Y15055   1.014   3.952   9.287  2.0604  0.9637 -0.3749
  138SAPE   C3915056   1.019   3.761   9.179  0.1360  0.7554  0.1191
  138SAPE   H9X15057   0.910   3.750   9.158  0.0046 -1.4364  1.6014
  138SAPE   H9Y15058   1.055   3.660   9.205  0.7576  0.7296 -0.7852
  138SAPE  C31015059   1.093   3.795   9.051  0.0463 -0.1893  0.1288
  138SAPE  H10X15060   1.073   3.723   8.968  0.9788  1.1685 -1.3129
  138SAPE  H10Y15061   1.203   3.789   9.062  0.3686  1.8660 -1.4397
  138SAPE  C31115062   1.073   3.938   9.010 -0.4128 -0.1754 -0.0250
  138SAPE  H11X15063   1.103   4.010   9.088 -1.5212  1.6617 -1.2204
  138SAPE  H11Y15064   0.964   3.947   8.995 -0.4076 -1.3887 -0.9302
  138SAPE  C31215065   1.148   3.986   8.888 -0.1049  0.0612 -0.3953
  138SAPE  H12X15066   1.109   4.089   8.871 -0.4182  0.2607  1.3607
  138SAPE  H12Y15067   1.130   3.924   8.797 -0.1342  2.9379 -2.5170
  138SAPE  C31315068   1.302   3.996   8.890  0.0432  0.0762  0.8621
  138SAPE  H13X15069   1.331   3.890   8.902  3.1673  0.8495  0.9526
  138SAPE  H13Y15070   1.341   4.038   8.985  0.6349 -0.5537  0.8987
  138SAPE  C31415071   1.364   4.078   8.776  0.6184 -0.6906  0.7162
  138SAPE  H14X15072   1.357   4.188   8.789  4.1969 -0.1252 -0.9880
  138SAPE  H14Y15073   1.310   4.037   8.687 -2.3501  0.7442  1.7286
  138SAPE  C31515074   1.507   4.026   8.761 -0.1351  0.3047 -0.6698
  138SAPE  H15X15075   1.517   3.916   8.753 -0.1486  0.3420 -1.2328
  138SAPE  H15Y15076   1.565   4.053   8.852  1.4205  0.8865 -1.7759
  138SAPE  C31615077   1.583   4.079   8.640  0.3257  0.0459 -0.7385
  138SAPE  H16X15078   1.544   4.182   8.631 -0.6606  0.1068  2.7641
  138SAPE  H16Y15079   1.553   4.031   8.545  0.7096  0.2894 -0.9886
  138SAPE  C31715080   1.733   4.066   8.654 -0.5322 -0.0982 -0.3974
  138SAPE  H17X15081   1.770   4.086   8.551  1.5032  1.2717  0.5463
  138SAPE  H17Y15082   1.750   3.959   8.677 -0.7787 -0.6382 -2.5071
  138SAPE  C31815083   1.789   4.177   8.745  0.4144  0.2514 -0.7198
  138SAPE  H18X15084   1.777   4.157   8.853  2.1780 -1.2297 -0.7479
  138SAPE  H18Y15085   1.740   4.272   8.715 -1.4434 -0.8519 -1.4029
  138SAPE  H18Z15086   1.899   4.191   8.737  0.8005 -1.5025  0.8455
  139SAPE     N15087   2.198   3.085  10.788 -0.2394  0.4201 -0.1917
  139SAPE   HN115088   2.141   3.009  10.746 -0.2389 -1.2778  2.5903
  139SAPE   HN215089   2.144   3.110  10.874 -2.1614 -0.3506 -1.1263
  139SAPE   HN315090   2.210   3.161  10.718  1.6322 -0.2174 -0.6065
  139SAPE   C1215091   2.338   3.040  10.821  0.1059 -0.5038 -0.2343
  139SAPE  H12A15092   2.328   2.941  10.871  0.7244  0.8775  2.9066
  139SAPE  H12B15093   2.374   3.121  10.889  1.5992 -0.6848 -0.7625
  139SAPE   C1115094   2.420   3.035  10.698  0.0408  0.5222  0.1673
  139SAPE  H11A15095   2.373   2.966  10.625  1.6199  0.2751 -0.6584
  139SAPE  H11B15096   2.523   3.008  10.731  0.6136  0.4941 -1.5397
  139SAPE     P15097   2.476   3.216  10.513 -0.3264  0.0851 -0.0164
  139SAPE   O1315098   2.402   3.153  10.397 -0.3862 -0.4652  0.7384
  139SAPE   O1415099   2.491   3.361  10.522  0.0446 -0.1604 -0.0508
  139SAPE   O1215100   2.420   3.167  10.643  0.5940 -0.1077  0.0398
  139SAPE   O1115101   2.621   3.152  10.503 -0.6578  0.4656 -0.4263
  139SAPE    C115102   2.693   3.139  10.379 -0.4231  0.0134 -0.2009
  139SAPE    HA15103   2.790   3.096  10.411 -0.2037  1.1012  0.6801
  139SAPE    HB15104   2.638   3.065  10.318 -0.4319  0.3373 -0.5884
  139SAPE    C215105   2.719   3.274  10.304 -0.6515  0.1194 -0.3820
  139SAPE    HS15106   2.731   3.354  10.380  0.5127  0.4308 -0.8731
  139SAPE   O2115107   2.601   3.298  10.228  0.5420 -0.5635  0.2436
  139SAPE   C2115108   2.597   3.423  10.186  0.1323 -0.7704  0.2877
  139SAPE   O2215109   2.688   3.504  10.173  0.7186  0.1351  0.3060
  139SAPE   C2215110   2.448   3.457  10.159 -0.7441  0.0227  0.8454
  139SAPE   H2R15111   2.392   3.388  10.226  2.5934 -2.6488  1.1357
  139SAPE   H2S15112   2.439   3.566  10.177 -0.8899  0.6096 -2.2085
  139SAPE    C315113   2.854   3.265  10.231  0.8216  0.0925 -0.2348
  139SAPE    HX15114   2.934   3.269  10.308 -0.7632 -0.9601  1.5306
  139SAPE    HY15115   2.862   3.361  10.175 -0.4700  1.3213  1.5690
  139SAPE   O3115116   2.860   3.144  10.149  0.1630  0.0771  0.2233
  139SAPE   C3115117   2.968   3.153  10.077 -0.4042 -0.6462  0.6987
  139SAPE   O3215118   3.051   3.242  10.085  0.0337 -0.1259 -0.0227
  139SAPE   C3215119   2.960   3.054   9.965 -0.4712 -0.1677  0.3886
  139SAPE   H2X15120   2.864   3.055   9.908 -0.7648 -1.5733  0.8286
  139SAPE   H2Y15121   2.960   2.955  10.015 -0.5573 -0.3432  0.0425
  139SAPE   C2315122   2.409   3.423  10.015  0.0386 -0.0735 -0.5349
  139SAPE   H3R15123   2.494   3.435   9.944  1.3172 -0.6712  0.8193
  139SAPE   H3S15124   2.338   3.506   9.994  1.4479  1.0293 -1.1119
  139SAPE   C2415125   2.344   3.287  10.001 -0.4064 -0.0677 -0.1881
  139SAPE   H4R15126   2.281   3.282   9.910 -0.4276 -1.3236 -0.1251
  139SAPE   H4S15127   2.257   3.297  10.071  0.2590  2.2450  0.3682
  139SAPE   C2515128   2.442   3.170  10.014 -0.1616 -0.5263  0.6893
  139SAPE   H5R15129   2.464   3.159  10.121 -1.1091  1.1144  1.0841
  139SAPE   C2615130   2.502   3.097   9.916  0.5064  0.1458 -0.0944
  139SAPE   H6R15131   2.577   3.021   9.943  0.5755  0.5921  0.9969
  139SAPE   C2715132   2.471   3.116   9.767  0.4244 -0.2584 -0.7399
  139SAPE   H7R15133   2.383   3.184   9.759  1.0880  0.6271 -0.6543
  139SAPE   H7S15134   2.446   3.018   9.721 -0.1648 -0.5910  0.2509
  139SAPE   C2815135   2.587   3.184   9.699 -0.4463 -0.3899 -0.7747
  139SAPE   H8R15136   2.614   3.275   9.753 -1.7485 -0.4030 -0.0482
  139SAPE   C2915137   2.634   3.155   9.582  0.4584 -0.5518 -0.0077
  139SAPE   H9R15138   2.700   3.232   9.539 -1.1422  0.1732 -1.3122
  139SAPE  C21015139   2.595   3.040   9.484  0.4262  0.1896 -0.5278
  139SAPE  H10R15140   2.591   2.938   9.529  2.3180 -0.3776 -1.5199
  139SAPE  H10S15141   2.675   3.020   9.409  0.3770 -3.2165  0.1587
  139SAPE  C21115142   2.461   3.070   9.422  0.2029 -0.0139  0.2871
  139SAPE  H11R15143   2.384   3.044   9.497 -0.5400 -0.0783 -0.4822
  139SAPE  C21215144   2.427   3.130   9.303 -0.0294 -0.4296 -0.7237
  139SAPE  H12R15145   2.324   3.142   9.268 -0.2846 -0.2812  0.0663
  139SAPE  C21315146   2.527   3.157   9.203 -0.6922  0.5513  0.6186
  139SAPE  H13R15147   2.631   3.164   9.242 -0.0954 -1.6855 -0.4087
  139SAPE  H13S15148   2.508   3.260   9.167 -0.3245  0.2564 -0.4405
  139SAPE  C21415149   2.515   3.048   9.095  0.8535  0.4788  0.1061
  139SAPE  H14R15150   2.410   3.022   9.080 -0.0643  2.6276  2.0881
  139SAPE  C21515151   2.611   3.004   9.013 -0.0214  0.2064  0.3609
  139SAPE  H15R15152   2.566   2.952   8.927 -2.0660  2.5778 -0.0896
  139SAPE  C21615153   2.759   3.038   9.008  0.6757 -0.2166  0.2614
  139SAPE  H16R15154   2.820   2.951   9.040  0.8418 -0.0320  0.4467
  139SAPE  H16S15155   2.788   3.115   9.083 -0.7364  0.3470  0.2645
  139SAPE  C21715156   2.799   3.082   8.867 -0.6226 -0.7219  0.5465
  139SAPE  H17R15157   2.909   3.098   8.874 -0.7809  0.8531 -0.1836
  139SAPE  H17S15158   2.755   3.183   8.851  2.4430  0.4741 -1.2111
  139SAPE  C21815159   2.770   2.986   8.757  0.2154 -0.2469  0.1240
  139SAPE  H18R15160   2.665   3.003   8.723  0.2798 -1.0546 -0.5141
  139SAPE  H18S15161   2.775   2.878   8.782  0.0792 -0.1442  0.5933
  139SAPE  C21915162   2.866   2.994   8.635  0.1189  0.1162 -0.3130
  139SAPE  H19R15163   2.834   2.919   8.559  1.1784  0.4250 -1.0956
  139SAPE  H19S15164   2.963   2.961   8.678 -0.1910 -0.4318 -0.0163
  139SAPE  C22015165   2.862   3.122   8.560  0.0153 -0.2560  0.6526
  139SAPE  H20R15166   2.918   3.116   8.465  2.2475  0.8311  1.8240
  139SAPE  H20S15167   2.913   3.204   8.616  1.1112 -0.5630  0.1231
  139SAPE  H20T15168   2.759   3.159   8.538 -0.4127 -1.4789  0.5141
  139SAPE   C3315169   3.078   3.070   9.861 -0.3864  0.1429 -0.9196
  139SAPE   H3X15170   3.162   3.123   9.912 -1.8735  1.8540 -0.1204
  139SAPE   H3Y15171   3.068   3.138   9.773 -0.0101  0.2519 -0.8835
  139SAPE   C3415172   3.136   2.936   9.805  0.4860 -0.1574  0.3223
  139SAPE   H4X15173   3.163   2.867   9.888  0.8575 -0.4380 -0.0331
  139SAPE   H4Y15174   3.220   2.951   9.735  1.1827 -0.1267  1.1514
  139SAPE   C3515175   3.029   2.854   9.726 -1.0210  0.3121 -0.4722
  139SAPE   H5X15176   2.985   2.914   9.643 -1.3138 -0.2857 -0.7572
  139SAPE   H5Y15177   2.947   2.820   9.793 -0.1340  1.1366  1.0861
  139SAPE   C3615178   3.098   2.722   9.661  0.9002 -0.8121 -0.1526
  139SAPE   H6X15179   3.148   2.673   9.747 -1.5299 -2.1805  0.5578
  139SAPE   H6Y15180   3.172   2.762   9.587  0.3100  1.2393  0.3120
  139SAPE   C3715181   2.999   2.617   9.611  0.2858  0.4222 -0.2564
  139SAPE   H7X15182   2.936   2.671   9.536  0.1793  0.3564 -0.2148
  139SAPE   H7Y15183   2.936   2.593   9.699  3.4965 -1.5919  1.6852
  139SAPE   C3815184   3.065   2.488   9.563 -0.0879 -0.3650  0.4128
  139SAPE   H8X15185   2.989   2.408   9.549 -0.2104  0.1293 -2.1549
  139SAPE   H8Y15186   3.140   2.453   9.637  0.4331 -1.7782 -0.7261
  139SAPE   C3915187   3.137   2.496   9.424  0.1490  0.8027 -0.1510
  139SAPE   H9X15188   3.220   2.423   9.423 -1.5417 -1.2690  1.7415
  139SAPE   H9Y15189   3.188   2.595   9.416 -0.1646  1.4269  3.8671
  139SAPE  C31015190   3.045   2.473   9.303  0.0834 -0.0189 -0.8990
  139SAPE  H10X15191   2.972   2.553   9.278  0.1307 -0.2825 -1.9096
  139SAPE  H10Y15192   2.985   2.380   9.309 -0.7549  0.4832 -1.2728
  139SAPE  C31115193   3.128   2.462   9.175  0.0036 -0.0888  0.3624
  139SAPE  H11X15194   3.185   2.367   9.182  3.1716  1.7765  2.3492
  139SAPE  H11Y15195   3.213   2.534   9.176  0.4572 -0.5978  2.2798
  139SAPE  C31215196   3.035   2.474   9.052 -0.9898 -0.6134 -0.5502
  139SAPE  H12X15197   2.963   2.555   9.077 -1.5636 -0.7713 -1.6451
  139SAPE  H12Y15198   2.991   2.372   9.052  1.1286 -1.7998  3.8417
  139SAPE  C31315199   3.115   2.509   8.922 -0.0616 -0.2707  0.3398
  139SAPE  H13X15200   3.197   2.580   8.946  0.7890 -0.9670 -0.4427
  139SAPE  H13Y15201   3.045   2.559   8.852  0.9236  0.1658 -0.3520
  139SAPE  C31415202   3.164   2.384   8.855 -0.1253 -0.6434 -0.4660
  139SAPE  H14X15203   3.084   2.326   8.806 -1.4981  0.4714  0.3809
  139SAPE  H14Y15204   3.205   2.313   8.930  0.3064 -0.7925 -0.8405
  139SAPE  C31515205   3.275   2.402   8.747 -0.1171 -0.5981  0.8976
  139SAPE  H15X15206   3.326   2.306   8.722 -0.9074 -0.5321 -1.2350
  139SAPE  H15Y15207   3.347   2.478   8.783 -1.8795  0.3608  2.5348
  139SAPE  C31615208   3.219   2.467   8.616  0.2411  0.1185  0.0788
  139SAPE  H16X15209   3.159   2.559   8.631 -0.8221 -0.1530 -2.0735
  139SAPE  H16Y15210   3.303   2.510   8.558  0.9347 -1.1237  0.1307
  139SAPE  C31715211   3.137   2.374   8.518 -0.3553 -0.0276 -0.8914
  139SAPE  H17X15212   3.117   2.445   8.435  2.1866  0.8499 -0.8554
  139SAPE  H17Y15213   3.039   2.344   8.561 -0.0432  0.2661  0.0439
  139SAPE  C31815214   3.216   2.248   8.466 -0.0311 -0.9886  0.0145
  139SAPE  H18X15215   3.305   2.279   8.408  0.3126  0.1580  1.1014
  139SAPE  H18Y15216   3.151   2.189   8.398  0.5813  0.2244 -1.6783
  139SAPE  H18Z15217   3.253   2.178   8.544  3.3204 -0.1750 -0.6963
  140SAPE     N15218   4.631   6.336  11.102  0.2300 -0.3490 -0.0420
  140SAPE   HN115219   4.730   6.351  11.130  0.6545 -2.6260 -0.1449
  140SAPE   HN215220   4.570   6.415  11.131  0.8063  0.8707 -1.9208
  140SAPE   HN315221   4.614   6.258  11.169  0.6786 -1.3161 -1.0110
  140SAPE   C1215222   4.620   6.286  10.958  0.5964  0.1356 -0.3877
  140SAPE  H12A15223   4.654   6.181  10.945  0.0224  0.2356 -3.3466
  140SAPE  H12B15224   4.688   6.344  10.892  0.7786 -1.0891 -1.3217
  140SAPE   C1115225   4.473   6.287  10.919 -0.6024 -0.2898 -0.6868
  140SAPE  H11A15226   4.419   6.222  10.991 -1.7299  0.2259 -1.0502
  140SAPE  H11B15227   4.467   6.253  10.813  1.3979 -0.5804 -0.7525
  140SAPE     P15228   4.275   6.463  10.922 -0.2010  0.1879  0.1087
  140SAPE   O1315229   4.194   6.344  10.930 -0.1753 -0.5050  0.1591
  140SAPE   O1415230   4.253   6.572  11.027  0.1573  0.2676  0.3323
  140SAPE   O1215231   4.423   6.419  10.930 -0.1496  0.7075  0.2800
  140SAPE   O1115232   4.273   6.511  10.778 -0.0465 -0.0803 -0.1344
  140SAPE    C115233   4.294   6.427  10.668 -0.4656  0.5616 -0.1411
  140SAPE    HA15234   4.404   6.418  10.658 -0.5276  0.4860 -0.8223
  140SAPE    HB15235   4.245   6.327  10.669 -1.7823  1.1761  0.0237
  140SAPE    C215236   4.235   6.497  10.534 -0.1171  0.5709 -0.2412
  140SAPE    HS15237   4.215   6.410  10.468  0.6302 -0.7687  1.2012
  140SAPE   O2115238   4.331   6.581  10.478 -0.3048 -0.2737  0.6133
  140SAPE   C2115239   4.429   6.535  10.402 -0.6905  0.0730 -0.0388
  140SAPE   O2215240   4.459   6.418  10.386 -0.5256  0.2441 -0.2431
  140SAPE   C2215241   4.491   6.655  10.323 -0.1348  0.0824  0.0602
  140SAPE   H2R15242   4.418   6.736  10.343 -1.0148 -0.4289 -0.9844
  140SAPE   H2S15243   4.584   6.693  10.370 -1.1417  2.3963  0.3000
  140SAPE    C315244   4.101   6.570  10.557 -0.2162  0.4923  0.3671
  140SAPE    HX15245   4.119   6.656  10.625 -0.6625  0.6384  0.3007
  140SAPE    HY15246   4.030   6.513  10.620 -1.0519 -0.4685 -1.3490
  140SAPE   O3115247   4.032   6.607  10.438 -0.0530 -0.1896 -0.2615
  140SAPE   C3115248   4.053   6.725  10.392 -0.1316  0.2788  0.9762
  140SAPE   O3215249   4.147   6.796  10.413 -0.1204 -0.6278 -0.3098
  140SAPE   C3215250   3.935   6.752  10.296 -0.4362  0.0154  0.2772
  140SAPE   H2X15251   3.866   6.820  10.350 -0.6944 -1.5238  1.9869
  140SAPE   H2Y15252   3.892   6.654  10.264  1.8639 -0.9874  0.0160
  140SAPE   C2315253   4.481   6.625  10.169  0.4310  0.2985  0.7815
  140SAPE   H3R15254   4.378   6.589  10.148 -0.4274  1.8232  2.1550
  140SAPE   H3S15255   4.544   6.535  10.149  0.1234  0.4395 -0.9950
  140SAPE   C2415256   4.527   6.744  10.083  1.1930 -0.7172 -0.9845
  140SAPE   H4R15257   4.509   6.707   9.980 -1.1113  0.7769 -1.1919
  140SAPE   H4S15258   4.636   6.752  10.102  1.4105 -0.9720 -2.0723
  140SAPE   C2515259   4.448   6.875  10.121 -0.2041  0.3385  0.6705
  140SAPE   H5R15260   4.462   6.898  10.228 -1.5678 -3.0927  1.7294
  140SAPE   C2615261   4.397   6.959  10.031 -0.1652 -0.4762  0.5756
  140SAPE   H6R15262   4.354   7.051  10.073  1.3997  0.3134  0.5072
  140SAPE   C2715263   4.391   6.954   9.885  0.7127 -0.3779  0.3911
  140SAPE   H7R15264   4.284   6.977   9.868  0.7547 -0.6397 -0.3011
  140SAPE   H7S15265   4.415   6.856   9.838  0.8219  0.1568 -0.7192
  140SAPE   C2815266   4.477   7.063   9.824 -0.2678  0.2314 -0.2612
  140SAPE   H8R15267   4.571   7.092   9.873 -0.1275  0.7826 -0.8431
  140SAPE   C2915268   4.452   7.119   9.706 -0.3483 -0.2365  0.4448
  140SAPE   H9R15269   4.522   7.189   9.658 -1.9083  0.4677 -0.9281
  140SAPE  C21015270   4.336   7.094   9.613  0.4663  0.2932 -0.9478
  140SAPE  H10R15271   4.309   7.199   9.588  0.5801  0.3631 -0.7792
  140SAPE  H10S15272   4.247   7.043   9.656  0.5937  2.9302  2.9082
  140SAPE  C21115273   4.357   7.026   9.478 -0.8125  0.8547  0.6513
  140SAPE  H11R15274   4.363   6.916   9.483 -0.0809  0.8239 -0.4929
  140SAPE  C21215275   4.374   7.082   9.353  0.1430  0.2337  0.1650
  140SAPE  H12R15276   4.393   7.012   9.271 -1.6994 -1.9778  1.5040
  140SAPE  C21315277   4.379   7.229   9.321 -0.1843 -0.2416 -0.3523
  140SAPE  H13R15278   4.462   7.236   9.248  0.5064  0.5056  0.4819
  140SAPE  H13S15279   4.407   7.284   9.413 -0.2898 -0.5469 -0.1348
  140SAPE  C21415280   4.251   7.285   9.271  0.5519 -0.1715 -0.0865
  140SAPE  H14R15281   4.183   7.288   9.357  2.9130 -1.3619  1.9601
  140SAPE  C21515282   4.211   7.309   9.145  0.2696  0.0141 -0.2194
  140SAPE  H15R15283   4.113   7.356   9.130  0.2253  0.4752  1.2754
  140SAPE  C21615284   4.295   7.300   9.020  0.0703  0.0016  0.1357
  140SAPE  H16R15285   4.405   7.291   9.033  0.3294  2.0795 -0.3746
  140SAPE  H16S15286   4.271   7.378   8.945 -3.0936 -3.2162 -2.5789
  140SAPE  C21715287   4.258   7.174   8.933  0.7140  0.1926 -0.1481
  140SAPE  H17R15288   4.149   7.178   8.911  0.8413  3.4074 -0.6749
  140SAPE  H17S15289   4.289   7.083   8.988  1.3262 -1.1920 -2.5983
  140SAPE  C21815290   4.331   7.176   8.797  0.3288  0.3983 -0.0182
  140SAPE  H18R15291   4.433   7.140   8.820  0.1706  0.8354  1.5232
  140SAPE  H18S15292   4.316   7.269   8.737 -1.3318 -0.0795 -0.4041
  140SAPE  C21915293   4.271   7.064   8.712  0.7985  0.1841 -0.1093
  140SAPE  H19R15294   4.342   7.047   8.628 -0.8610 -0.2027 -1.4993
  140SAPE  H19S15295   4.172   7.097   8.673  0.0987  0.8265  2.1128
  140SAPE  C22015296   4.266   6.928   8.784  0.1193 -0.1269  0.1726
  140SAPE  H20R15297   4.364   6.908   8.834  0.2759 -1.6319 -0.6694
  140SAPE  H20S15298   4.251   6.844   8.713 -0.5645  1.2193 -1.3502
  140SAPE  H20T15299   4.179   6.923   8.853 -0.8010  0.6121 -0.9117
  140SAPE   C3315300   4.001   6.841  10.181 -0.5010  0.4071 -0.4093
  140SAPE   H3X15301   4.095   6.804  10.135 -1.2664  0.3912 -2.0160
  140SAPE   H3Y15302   4.027   6.936  10.231 -0.6616  0.1855  0.1114
  140SAPE   C3415303   3.900   6.889  10.075  0.3031 -0.1358  0.0025
  140SAPE   H4X15304   3.842   6.967  10.128  0.4623 -0.9798  1.4937
  140SAPE   H4Y15305   3.823   6.814  10.048 -1.5363  1.3220  0.9942
  140SAPE   C3515306   3.973   6.927   9.947 -0.4360  0.2783  0.3583
  140SAPE   H5X15307   4.046   6.848   9.920 -1.0126 -0.3277  0.5419
  140SAPE   H5Y15308   4.027   7.022   9.969 -0.7315  0.2700  1.1549
  140SAPE   C3615309   3.882   6.964   9.822 -0.0808 -0.7938 -0.1489
  140SAPE   H6X15310   3.831   7.061   9.841  1.3045 -0.0686  0.0495
  140SAPE   H6Y15311   3.811   6.880   9.812 -0.3461 -0.3677 -2.2798
  140SAPE   C3715312   3.959   6.992   9.690 -0.2599 -0.2337  0.4002
  140SAPE   H7X15313   4.029   7.075   9.714 -0.0102  0.1438 -1.4611
  140SAPE   H7Y15314   3.887   7.036   9.617  1.3016  0.9794 -0.4646
  140SAPE   C3815315   4.012   6.866   9.622 -0.3585 -0.3017  0.1116
  140SAPE   H8X15316   3.947   6.777   9.638  0.1532 -1.6989 -4.3386
  140SAPE   H8Y15317   4.108   6.835   9.669  0.7588  2.6089 -0.0158
  140SAPE   C3915318   4.034   6.860   9.463  0.2369 -0.5621 -0.6096
  140SAPE   H9X15319   4.107   6.931   9.419 -0.1884  0.5297  0.4012
  140SAPE   H9Y15320   3.936   6.884   9.417  0.0973  1.8721  0.7978
  140SAPE  C31015321   4.082   6.722   9.416  0.4069 -0.3998  0.1491
  140SAPE  H10X15322   4.030   6.634   9.461 -2.1986  0.3026 -1.3023
  140SAPE  H10Y15323   4.185   6.701   9.451  0.3458 -1.6907 -0.3642
  140SAPE  C31115324   4.085   6.727   9.259 -0.1120  0.5849 -0.5611
  140SAPE  H11X15325   4.129   6.826   9.234  2.7934 -0.3648  0.3936
  140SAPE  H11Y15326   3.984   6.718   9.214 -0.6336 -1.7303  0.8620
  140SAPE  C31215327   4.179   6.627   9.194 -0.1706 -0.0508  0.2046
  140SAPE  H12X15328   4.142   6.523   9.204  1.6448 -0.8388 -0.8925
  140SAPE  H12Y15329   4.284   6.643   9.226 -0.4151  2.1460  0.0405
  140SAPE  C31315330   4.171   6.636   9.041 -0.0460  0.4385 -0.2317
  140SAPE  H13X15331   4.220   6.720   8.987  0.7593 -0.7760 -1.4527
  140SAPE  H13Y15332   4.062   6.638   9.018 -0.3349  1.3480  1.0773
  140SAPE  C31415333   4.237   6.512   8.979 -0.0810 -0.4872  0.9603
  140SAPE  H14X15334   4.185   6.423   9.021 -2.1817 -0.2610 -0.9913
  140SAPE  H14Y15335   4.345   6.511   9.007  0.8973 -1.6686 -2.3260
  140SAPE  C31515336   4.230   6.517   8.824  0.1160 -0.5679  0.0809
  140SAPE  H15X15337   4.254   6.620   8.790  0.2929 -1.5071 -3.0252
  140SAPE  H15Y15338   4.128   6.504   8.782 -1.5306  2.0291  2.8729
  140SAPE  C31615339   4.326   6.415   8.752 -0.5685  0.5340  1.2597
  140SAPE  H16X15340   4.431   6.424   8.785 -0.0025  0.1145 -0.3463
  140SAPE  H16Y15341   4.321   6.440   8.644 -3.4042 -0.6631  1.0105
  140SAPE  C31715342   4.282   6.268   8.743  0.3191 -0.0601  0.5391
  140SAPE  H17X15343   4.295   6.216   8.840  3.4076  0.5734  0.5757
  140SAPE  H17Y15344   4.353   6.211   8.680  1.8395  0.1986  1.9643
  140SAPE  C31815345   4.147   6.248   8.669 -0.3199  0.6569 -0.5777
  140SAPE  H18X15346   4.149   6.309   8.576  1.0694  0.4315 -0.7142
  140SAPE  H18Y15347   4.061   6.284   8.729 -0.9288  2.8851 -2.5856
  140SAPE  H18Z15348   4.121   6.144   8.641  1.2005  0.0037  0.3250
  141SAPE     N15349   5.815   0.323  11.079 -0.2824  0.1105 -0.0688
  141SAPE   HN115350   5.788   0.244  11.142 -1.5699  0.6154  0.0414
  141SAPE   HN215351   5.908   0.304  11.038  0.9695  1.1221  2.1053
  141SAPE   HN315352   5.817   0.404  11.144 -1.7687 -0.2077  0.4194
  141SAPE   C1215353   5.700   0.321  10.982 -0.0539  0.1764 -0.4579
  141SAPE  H12A15354   5.605   0.326  11.038  1.2650  2.1202  1.7837
  141SAPE  H12B15355   5.695   0.224  10.927  2.0914 -1.4145  1.8844
  141SAPE   C1115356   5.713   0.424  10.874  0.3616  0.0297 -0.3441
  141SAPE  H11A15357   5.639   0.404  10.794 -0.4911 -0.1515  0.4688
  141SAPE  H11B15358   5.808   0.416  10.817  0.0346  0.0404 -0.8876
  141SAPE     P15359   5.564   0.635  10.936  0.1628  0.2035  0.0295
  141SAPE   O1315360   5.467   0.558  11.016  0.4458  0.2924 -0.0133
  141SAPE   O1415361   5.583   0.775  10.977  0.4336 -0.0649 -0.2084
  141SAPE   O1215362   5.697   0.556  10.931 -0.8130  0.0864  0.2480
  141SAPE   O1115363   5.512   0.633  10.783  0.0161 -0.4415 -0.2290
  141SAPE    C115364   5.506   0.756  10.708 -0.5677 -0.0259 -0.1736
  141SAPE    HA15365   5.425   0.824  10.742 -0.3314 -0.1358  0.6175
  141SAPE    HB15366   5.599   0.815  10.724  0.5731 -2.3077  2.4460
  141SAPE    C215367   5.517   0.736  10.555  0.3116  0.2569  0.9507
  141SAPE    HS15368   5.560   0.832  10.519 -1.1388  0.5405 -0.1066
  141SAPE   O2115369   5.384   0.708  10.511  0.0445  0.4327 -0.1532
  141SAPE   C2115370   5.351   0.764  10.393 -0.7160 -0.0752 -0.9382
  141SAPE   O2215371   5.425   0.831  10.321 -0.4881 -0.2173 -0.8568
  141SAPE   C2215372   5.207   0.714  10.353  0.1872 -0.0552  0.7301
  141SAPE   H2R15373   5.173   0.627  10.414 -0.0732  0.5215  1.4248
  141SAPE   H2S15374   5.131   0.794  10.364  0.0944 -0.2181  1.3213
  141SAPE    C315375   5.619   0.627  10.507  0.0757  0.2677 -0.8044
  141SAPE    HX15376   5.587   0.534  10.559 -0.0129  0.0956 -1.1627
  141SAPE    HY15377   5.716   0.640  10.559 -1.5828 -0.5621  2.8286
  141SAPE   O3115378   5.613   0.599  10.370 -0.2339 -0.1689 -0.2643
  141SAPE   C3115379   5.685   0.682  10.299 -0.1674 -0.0364  0.6847
  141SAPE   O3215380   5.762   0.765  10.340 -0.0628  0.4069  0.8091
  141SAPE   C3215381   5.650   0.656  10.151 -0.3017  0.3485  0.2298
  141SAPE   H2X15382   5.572   0.733  10.135  0.7184  1.4661  0.4051
  141SAPE   H2Y15383   5.609   0.554  10.142  1.6754 -0.4447 -0.4783
  141SAPE   C2315384   5.199   0.674  10.206  0.3087 -0.2058 -0.4686
  141SAPE   H3R15385   5.216   0.763  10.142  1.7065 -1.0064 -1.2709
  141SAPE   H3S15386   5.097   0.642  10.175  0.7030 -0.6540 -1.3506
  141SAPE   C2415387   5.301   0.562  10.157 -0.9596 -0.2166 -0.2045
  141SAPE   H4R15388   5.389   0.557  10.224 -1.3828 -2.0682  0.2615
  141SAPE   H4S15389   5.339   0.584  10.055  0.3339 -0.5879  0.1830
  141SAPE   C2515390   5.233   0.428  10.170 -0.2424  0.5714  0.0906
  141SAPE   H5R15391   5.204   0.407  10.274  1.0525 -1.2540  0.1277
  141SAPE   C2615392   5.198   0.339  10.073 -0.2178 -0.1730 -0.0946
  141SAPE   H6R15393   5.142   0.251  10.110 -0.0940  1.5939  5.0677
  141SAPE   C2715394   5.229   0.353   9.924  0.0067  0.2674 -0.5547
  141SAPE   H7R15395   5.192   0.454   9.894 -1.5948 -0.2441 -0.3926
  141SAPE   H7S15396   5.171   0.278   9.866  2.2441 -2.0477  0.0753
  141SAPE   C2815397   5.375   0.327   9.892 -0.5553  0.2171  0.1896
  141SAPE   H8R15398   5.439   0.410   9.926 -0.2119 -0.5703  1.5298
  141SAPE   C2915399   5.433   0.213   9.848 -0.1378  0.0882  0.6963
  141SAPE   H9R15400   5.540   0.220   9.821 -0.0767 -0.4354  0.7938
  141SAPE  C21015401   5.356   0.093   9.796  0.2023 -0.0319  0.5606
  141SAPE  H10R15402   5.262   0.119   9.744  1.6015  1.4787 -1.3684
  141SAPE  H10S15403   5.316   0.042   9.886  1.0344 -2.9319 -0.5861
  141SAPE  C21115404   5.447   0.002   9.721 -0.0532  0.5361  0.3477
  141SAPE  H11R15405   5.467  -0.092   9.775  1.0219  1.2564  1.2408
  141SAPE  C21215406   5.505   0.014   9.600  0.0111 -1.1105  0.3984
  141SAPE  H12R15407   5.571  -0.069   9.569  0.7358  0.1402 -1.5449
  141SAPE  C21315408   5.503   0.135   9.508 -0.0354  0.0412  0.8187
  141SAPE  H13R15409   5.557   0.099   9.417 -0.9881  1.2217 -0.2481
  141SAPE  H13S15410   5.572   0.215   9.541  2.5667  0.0972 -3.8820
  141SAPE  C21415411   5.372   0.203   9.473  0.7457  0.2150 -0.2801
  141SAPE  H14R15412   5.319   0.262   9.549 -0.5910 -0.0787 -0.9600
  141SAPE  C21515413   5.310   0.209   9.351 -0.1757  0.9296  0.1449
  141SAPE  H15R15414   5.212   0.259   9.346 -0.6409  0.0523  0.2211
  141SAPE  C21615415   5.365   0.145   9.225  0.5725  0.8294  0.2821
  141SAPE  H16R15416   5.284   0.075   9.196  0.6411  1.7346 -2.3779
  141SAPE  H16S15417   5.457   0.086   9.246  0.3815  0.7197  0.8175
  141SAPE  C21715418   5.406   0.240   9.117 -0.3545  0.5904 -0.4484
  141SAPE  H17R15419   5.485   0.304   9.162 -0.6560  0.7143 -0.0893
  141SAPE  H17S15420   5.322   0.310   9.095 -1.3243  0.8973  3.4613
  141SAPE  C21815421   5.447   0.182   8.983 -0.3648 -0.0471  0.1145
  141SAPE  H18R15422   5.520   0.098   8.987 -1.6265 -1.1880 -0.0098
  141SAPE  H18S15423   5.497   0.257   8.919 -1.5307  0.8846  0.2591
  141SAPE  C21915424   5.332   0.120   8.920 -0.1487 -0.7618  0.3173
  141SAPE  H19R15425   5.245   0.187   8.935  3.0197  3.4383  1.6802
  141SAPE  H19S15426   5.297   0.031   8.977 -2.5988  1.5069  2.6275
  141SAPE  C22015427   5.348   0.090   8.770 -0.6947  0.3722  0.5672
  141SAPE  H20R15428   5.250   0.049   8.736  0.1802  0.5431 -2.4322
  141SAPE  H20S15429   5.425   0.014   8.746 -0.4331  0.7844  0.1123
  141SAPE  H20T15430   5.352   0.187   8.717 -1.4350  0.4359  0.6084
  141SAPE   C3315431   5.766   0.666  10.047 -0.1393 -0.2398 -0.9423
  141SAPE   H3X15432   5.830   0.754  10.071  0.9010 -1.3452  0.4872
  141SAPE   H3Y15433   5.723   0.677   9.945 -0.6535  0.1991 -0.6823
  141SAPE   C3415434   5.862   0.547  10.048 -1.0833 -0.0301 -0.6273
  141SAPE   H4X15435   5.796   0.466  10.008 -2.0298  2.1276 -3.7984
  141SAPE   H4Y15436   5.907   0.533  10.148  1.1189  0.6819 -1.4813
  141SAPE   C3515437   5.990   0.563   9.958  0.5946  0.1619 -0.0895
  141SAPE   H5X15438   6.037   0.463   9.966 -2.7072 -1.6280 -1.3002
  141SAPE   H5Y15439   6.061   0.639   9.997  0.9896  1.1685 -2.6056
  141SAPE   C3615440   5.950   0.598   9.815 -0.6419 -0.4099 -0.2086
  141SAPE   H6X15441   5.887   0.690   9.823 -0.6025 -0.4814  1.2297
  141SAPE   H6Y15442   5.884   0.520   9.772 -1.0932  0.6864 -1.5576
  141SAPE   C3715443   6.080   0.609   9.724  0.1865 -0.2416  0.1309
  141SAPE   H7X15444   6.131   0.511   9.713  0.0379 -0.5990  2.1874
  141SAPE   H7Y15445   6.155   0.674   9.774 -1.8423  1.1698  1.4704
  141SAPE   C3815446   6.060   0.659   9.576 -0.0229 -0.5009  0.2432
  141SAPE   H8X15447   6.018   0.762   9.579  0.2178 -0.4040  0.2698
  141SAPE   H8Y15448   5.974   0.598   9.540 -1.4964  2.6041 -2.0618
  141SAPE   C3915449   6.177   0.639   9.488 -0.4219 -0.3927  0.1939
  141SAPE   H9X15450   6.216   0.536   9.473 -0.4470 -0.2266 -1.1064
  141SAPE   H9Y15451   6.255   0.708   9.528 -1.5848  0.7505  0.5408
  141SAPE  C31015452   6.151   0.698   9.347  0.7265 -0.1090  0.0720
  141SAPE  H10X15453   6.112   0.799   9.371  2.6029  1.0055 -1.2976
  141SAPE  H10Y15454   6.070   0.637   9.301  1.7056  0.5311 -2.6986
  141SAPE  C31115455   6.276   0.714   9.263 -0.8041  0.1348 -0.5652
  141SAPE  H11X15456   6.335   0.620   9.273 -0.3751  0.3756 -0.7806
  141SAPE  H11Y15457   6.335   0.804   9.289  1.7765 -1.1164 -1.7157
  141SAPE  C31215458   6.250   0.714   9.112 -0.6806 -0.2114  0.4260
  141SAPE  H12X15459   6.192   0.806   9.091 -0.1711  0.7763  2.9543
  141SAPE  H12Y15460   6.196   0.619   9.089  0.4654 -1.9388  4.0297
  141SAPE  C31315461   6.379   0.718   9.015 -0.2125  0.3736 -0.0135
  141SAPE  H13X15462   6.447   0.632   9.032 -0.8661  0.2555  2.2189
  141SAPE  H13Y15463   6.439   0.806   9.045  0.3161 -0.2021  0.6410
  141SAPE  C31415464   6.359   0.721   8.865 -0.3184  0.2163 -0.2390
  141SAPE  H14X15465   6.291   0.635   8.847  0.6234 -1.8556  4.4044
  141SAPE  H14Y15466   6.453   0.706   8.808 -0.0521 -1.6621  0.6027
  141SAPE  C31515467   6.297   0.859   8.820  0.5056  0.3869 -0.1955
  141SAPE  H15X15468   6.359   0.946   8.849 -0.6013  1.3703 -0.6869
  141SAPE  H15Y15469   6.200   0.864   8.873  0.2116 -0.6234 -0.6074
  141SAPE  C31615470   6.272   0.867   8.664  0.0159 -0.1126  0.4575
  141SAPE  H16X15471   6.228   0.772   8.625 -0.9916  0.0606  1.1405
  141SAPE  H16Y15472   6.370   0.883   8.614 -0.2153 -1.1402 -0.3735
  141SAPE  C31715473   6.176   0.979   8.621  0.0975  0.0936 -0.2662
  141SAPE  H17X15474   6.173   0.991   8.510 -3.1549  2.4142 -0.0530
  141SAPE  H17Y15475   6.204   1.075   8.669 -2.5666  0.8558 -0.0963
  141SAPE  C31815476   6.028   0.958   8.653 -0.4807  0.7884  0.0802
  141SAPE  H18X15477   6.018   0.925   8.758  2.5499  1.1992  0.5847
  141SAPE  H18Y15478   5.989   0.887   8.577  2.8294 -1.4594  0.2575
  141SAPE  H18Z15479   5.975   1.055   8.643 -1.7086  0.0516 -0.8276
  142SAPE     N15480   5.440   6.080  11.158 -0.1316 -0.2012  0.6327
  142SAPE   HN115481   5.496   6.013  11.214  0.7388  1.0798  1.3520
  142SAPE   HN215482   5.483   6.167  11.197 -0.4404 -0.1772  0.9241
  142SAPE   HN315483   5.341   6.078  11.190 -0.4107 -0.3708 -0.2269
  142SAPE   C1215484   5.467   6.046  11.014  0.7605  0.4034  0.1660
  142SAPE  H12A15485   5.379   5.986  10.984 -2.1052  2.9672  2.6933
  142SAPE  H12B15486   5.563   5.992  11.023  1.6964  2.1117  1.1170
  142SAPE   C1115487   5.481   6.163  10.920 -0.5338  0.1898  0.0446
  142SAPE  H11A15488   5.375   6.193  10.904 -0.5673  0.1197  0.1340
  142SAPE  H11B15489   5.517   6.139  10.818  3.4990 -1.9599  1.7152
  142SAPE     P15490   5.694   6.328  10.931 -0.0764 -0.6398  0.2305
  142SAPE   O1315491   5.725   6.463  10.980 -0.0909  0.2814 -0.6240
  142SAPE   O1415492   5.789   6.220  10.973 -0.2426  0.4557 -0.0129
  142SAPE   O1215493   5.549   6.283  10.977  0.5443  0.0135  0.7912
  142SAPE   O1115494   5.694   6.335  10.778 -0.0053  0.0013  0.3804
  142SAPE    C115495   5.618   6.437  10.710  0.2170  0.4877 -0.8120
  142SAPE    HA15496   5.514   6.434  10.747  0.3466 -0.1700 -0.4773
  142SAPE    HB15497   5.653   6.535  10.748 -1.2069  1.4485 -1.8851
  142SAPE    C215498   5.624   6.419  10.548  0.1390 -0.0406 -0.7068
  142SAPE    HS15499   5.733   6.423  10.525  1.0003 -0.2115  2.7780
  142SAPE   O2115500   5.542   6.532  10.493  0.0467 -0.0101  0.0033
  142SAPE   C2115501   5.567   6.565  10.364 -0.3997  0.5523  0.6777
  142SAPE   O2215502   5.664   6.528  10.304 -0.4672  0.1753 -0.3549
  142SAPE   C2215503   5.460   6.664  10.321  0.5220 -0.0206 -0.0723
  142SAPE   H2R15504   5.362   6.649  10.371  0.8418 -0.4250  0.4464
  142SAPE   H2S15505   5.499   6.756  10.370  3.2841 -1.0278 -0.1625
  142SAPE    C315506   5.560   6.280  10.492  0.1717 -0.5919 -0.3350
  142SAPE    HX15507   5.451   6.290  10.513  0.6663  0.0191  2.3552
  142SAPE    HY15508   5.606   6.198  10.551  3.1041  1.1098 -0.0892
  142SAPE   O3115509   5.578   6.265  10.354 -0.2300 -0.5047  0.6004
  142SAPE   C3115510   5.674   6.181  10.308  0.3688 -0.7996 -0.3470
  142SAPE   O3215511   5.726   6.094  10.374  0.0065  0.0721 -0.4187
  142SAPE   C3215512   5.696   6.202  10.157 -0.1392 -0.3595 -0.1809
  142SAPE   H2X15513   5.718   6.310  10.140 -3.4921  0.4642 -0.0767
  142SAPE   H2Y15514   5.615   6.166  10.090 -1.6177 -0.9694  1.8361
  142SAPE   C2315515   5.444   6.672  10.172  0.6628  0.3746  0.2339
  142SAPE   H3R15516   5.526   6.656  10.100  1.6695  0.0293  1.4257
  142SAPE   H3S15517   5.403   6.772  10.147 -0.5009 -0.1566 -0.1015
  142SAPE   C2415518   5.331   6.579  10.127  0.1690 -0.3057 -0.0167
  142SAPE   H4R15519   5.244   6.621  10.182  2.0067 -0.0232  2.8605
  142SAPE   H4S15520   5.355   6.480  10.171  0.8446 -0.1819 -0.0891
  142SAPE   C2515521   5.306   6.556   9.982  0.0331  0.2582  0.0544
  142SAPE   H5R15522   5.205   6.589   9.951  0.0396  2.5046  2.1577
  142SAPE   C2615523   5.387   6.487   9.906  0.0247  0.1576 -0.3755
  142SAPE   H6R15524   5.358   6.479   9.801 -1.7997  0.9604  0.0263
  142SAPE   C2715525   5.524   6.420   9.930  0.0046 -0.7632 -0.0011
  142SAPE   H7R15526   5.531   6.329   9.867 -1.9482 -0.5393 -0.6039
  142SAPE   H7S15527   5.532   6.386  10.036  0.3152 -1.5840 -0.2843
  142SAPE   C2815528   5.640   6.512   9.906 -0.0992  0.3986  0.0421
  142SAPE   H8R15529   5.700   6.553   9.988 -0.8611  0.1657  0.7350
  142SAPE   C2915530   5.690   6.536   9.782 -0.0839  0.3044  0.8085
  142SAPE   H9R15531   5.778   6.599   9.763 -0.9758  0.9343 -1.5735
  142SAPE  C21015532   5.639   6.477   9.652 -0.3361  0.6214  0.1733
  142SAPE  H10R15533   5.551   6.542   9.634  0.8334  2.2336  0.1346
  142SAPE  H10S15534   5.599   6.376   9.677 -0.7566  0.3520 -1.4451
  142SAPE  C21115535   5.735   6.464   9.535  0.6398  0.1820 -0.3753
  142SAPE  H11R15536   5.840   6.443   9.560  0.5126  0.7577  0.6956
  142SAPE  C21215537   5.698   6.476   9.407 -1.2392  0.0204  0.0929
  142SAPE  H12R15538   5.781   6.466   9.335 -0.0923 -0.9949  1.4951
  142SAPE  C21315539   5.564   6.500   9.349 -0.6665 -0.8669  0.1889
  142SAPE  H13R15540   5.490   6.509   9.431 -1.4737 -1.1994 -0.4858
  142SAPE  H13S15541   5.524   6.426   9.277  0.0337  0.1379 -1.2856
  142SAPE  C21415542   5.550   6.635   9.284 -0.3622  0.9549  0.0542
  142SAPE  H14R15543   5.571   6.719   9.352  0.0081  2.2798 -1.6097
  142SAPE  C21515544   5.505   6.668   9.163 -0.4836  0.4966 -0.1873
  142SAPE  H15R15545   5.508   6.770   9.124  2.5331  0.4432 -0.2944
  142SAPE  C21615546   5.467   6.566   9.058  0.6141  0.2548  0.2347
  142SAPE  H16R15547   5.388   6.605   8.991 -2.8658 -2.1255  2.5871
  142SAPE  H16S15548   5.434   6.468   9.098 -0.2716 -1.8448 -4.8245
  142SAPE  C21715549   5.590   6.519   8.966 -0.0023 -0.6078  0.2216
  142SAPE  H17R15550   5.671   6.469   9.023  0.0350 -2.2233 -1.1616
  142SAPE  H17S15551   5.633   6.608   8.915 -0.1765 -0.8963 -0.4496
  142SAPE  C21815552   5.550   6.423   8.855 -0.3729 -0.1027 -0.5037
  142SAPE  H18R15553   5.451   6.446   8.810  0.4481  2.3127 -1.2862
  142SAPE  H18S15554   5.534   6.327   8.908 -2.4861 -0.5597 -1.8520
  142SAPE  C21915555   5.652   6.395   8.754 -0.0531  0.1604 -0.4245
  142SAPE  H19R15556   5.757   6.391   8.787 -0.1024 -2.2294 -0.3942
  142SAPE  H19S15557   5.661   6.477   8.680  2.3947  0.7554  0.4663
  142SAPE  C22015558   5.636   6.269   8.663 -0.5914  0.0720 -0.2715
  142SAPE  H20R15559   5.568   6.294   8.578  0.5572 -0.2443 -1.3144
  142SAPE  H20S15560   5.603   6.178   8.717  0.3295 -0.9394 -1.3486
  142SAPE  H20T15561   5.728   6.241   8.606 -0.7926 -1.4629  0.1255
  142SAPE   C3315562   5.820   6.116  10.131  0.4459  0.3641 -0.1528
  142SAPE   H3X15563   5.792   6.009  10.141  1.3991  0.2725  2.0972
  142SAPE   H3Y15564   5.901   6.146  10.201 -0.8532  0.0654  1.5420
  142SAPE   C3415565   5.859   6.133   9.972  0.3201  0.2941 -0.1808
  142SAPE   H4X15566   5.965   6.098   9.967 -0.0065 -0.5957 -1.7154
  142SAPE   H4Y15567   5.864   6.240   9.943  1.0615  0.6478  1.1401
  142SAPE   C3515568   5.760   6.064   9.885 -0.0471  0.1980 -0.0543
  142SAPE   H5X15569   5.660   6.110   9.902  0.3770  1.2667 -0.4227
  142SAPE   H5Y15570   5.744   5.957   9.910 -0.5753  0.3925  0.4841
  142SAPE   C3615571   5.796   6.086   9.742 -0.1215  0.0708  1.2162
  142SAPE   H6X15572   5.797   6.195   9.718  0.5552 -0.3194 -0.7853
  142SAPE   H6Y15573   5.722   6.049   9.668  1.7877 -1.0947 -0.1971
  142SAPE   C3715574   5.934   6.021   9.704  0.3268 -0.9082 -0.2107
  142SAPE   H7X15575   5.935   5.927   9.762 -0.3911 -0.4671  0.5328
  142SAPE   H7Y15576   6.017   6.086   9.737  1.9764 -1.2655 -3.2736
  142SAPE   C3815577   5.942   5.992   9.553  0.8845  0.0262 -0.2938
  142SAPE   H8X15578   5.866   5.918   9.521  1.9425 -1.5884  0.7766
  142SAPE   H8Y15579   6.034   5.939   9.520  0.1665 -1.5658  0.1226
  142SAPE   C3915580   5.940   6.118   9.479  0.0877 -0.4153 -0.6411
  142SAPE   H9X15581   6.008   6.189   9.530  0.2739 -0.6534 -0.5539
  142SAPE   H9Y15582   5.840   6.166   9.480  0.2423 -0.0895  0.2140
  142SAPE  C31015583   5.972   6.091   9.329 -0.1240  0.0980 -0.2800
  142SAPE  H10X15584   5.899   6.019   9.287  1.7884 -1.3954 -1.2422
  142SAPE  H10Y15585   6.073   6.046   9.316 -0.1728 -0.3469  0.8019
  142SAPE  C31115586   5.970   6.211   9.245 -0.0834  0.2541 -0.2491
  142SAPE  H11X15587   6.045   6.287   9.276 -1.8401  1.5762  0.9496
  142SAPE  H11Y15588   5.873   6.264   9.256  0.1984  0.8161 -0.4313
  142SAPE  C31215589   6.012   6.181   9.101 -0.0851  0.1591  0.2295
  142SAPE  H12X15590   5.943   6.100   9.068 -0.8088  0.9573 -0.2637
  142SAPE  H12Y15591   6.116   6.142   9.106  0.0758  0.3835 -1.1631
  142SAPE  C31315592   6.010   6.296   9.003 -0.3339  0.2359  0.6866
  142SAPE  H13X15593   6.090   6.363   9.039 -0.5302  0.9171 -0.1065
  142SAPE  H13Y15594   5.909   6.341   9.015  0.3633  1.3188  3.1567
  142SAPE  C31415595   6.047   6.239   8.862  0.0168 -0.2852  0.1990
  142SAPE  H14X15596   5.963   6.169   8.838  0.2977 -0.2279 -0.9930
  142SAPE  H14Y15597   6.136   6.173   8.868 -0.2502 -0.9448 -2.1832
  142SAPE  C31515598   6.048   6.337   8.741 -0.5616  0.2886 -0.3203
  142SAPE  H15X15599   5.950   6.378   8.706  0.1980  0.0878 -2.8511
  142SAPE  H15Y15600   6.090   6.288   8.651  2.1763  0.1383  0.9395
  142SAPE  C31615601   6.156   6.447   8.762  0.1070 -0.5226  0.0155
  142SAPE  H16X15602   6.253   6.397   8.780  1.6677  2.7299  1.3395
  142SAPE  H16Y15603   6.152   6.506   8.856  3.8008 -3.4238  2.2747
  142SAPE  C31715604   6.183   6.542   8.647  0.8374  0.7672  0.2275
  142SAPE  H17X15605   6.087   6.590   8.619  1.1044  1.9543  1.2831
  142SAPE  H17Y15606   6.225   6.483   8.563  0.8002 -0.5049  1.0735
  142SAPE  C31815607   6.283   6.654   8.680 -0.0755 -0.3344 -0.4045
  142SAPE  H18X15608   6.367   6.604   8.733 -0.5263 -0.4362  0.2279
  142SAPE  H18Y15609   6.233   6.731   8.742  2.8271  2.6303 -1.4468
  142SAPE  H18Z15610   6.317   6.696   8.583 -4.0732  0.7011 -1.5370
  143SAPE     N15611   0.229   6.231  10.986 -0.2434  0.2625  0.2946
  143SAPE   HN115612   0.181   6.309  11.035 -0.7348 -1.5278  2.8932
  143SAPE   HN215613   0.159   6.154  10.975  1.7963 -1.4225 -1.9100
  143SAPE   HN315614   0.293   6.186  11.055 -1.6371 -0.8688  0.9038
  143SAPE   C1215615   0.281   6.282  10.855 -0.0693 -0.9618  0.8665
  143SAPE  H12A15616   0.220   6.240  10.773 -0.6198  0.1050  0.7211
  143SAPE  H12B15617   0.388   6.257  10.838  0.2677  1.5908 -1.4467
  143SAPE   C1115618   0.278   6.440  10.848  0.3785  0.7235 -0.7150
  143SAPE  H11A15619   0.297   6.484  10.747  1.9008 -0.2086 -0.8667
  143SAPE  H11B15620   0.370   6.464  10.906  1.6063  1.9911 -3.0125
  143SAPE     P15621   0.145   6.660  10.924  0.1600 -0.2104  0.5642
  143SAPE   O1315622   0.001   6.681  10.960 -0.8060  0.6175 -0.4918
  143SAPE   O1415623   0.246   6.731  11.005  0.1404  0.1493 -0.1204
  143SAPE   O1215624   0.174   6.503  10.922 -0.0549 -0.7495  0.0175
  143SAPE   O1115625   0.164   6.712  10.774  0.3819  0.2001 -0.0290
  143SAPE    C115626   0.156   6.857  10.769 -0.1346 -0.1984 -0.0058
  143SAPE    HA15627   0.051   6.890  10.785 -0.9119 -2.4589 -0.0780
  143SAPE    HB15628   0.233   6.909  10.830 -0.1242 -0.6753  0.3937
  143SAPE    C215629   0.192   6.910  10.632  0.0906 -0.3933  0.3362
  143SAPE    HS15630   0.197   7.020  10.643 -0.5701 -0.3966  0.7473
  143SAPE   O2115631   0.097   6.864  10.533 -0.3320 -0.0467  0.3229
  143SAPE   C2115632   0.089   6.939  10.423  0.9279  0.0011  0.5282
  143SAPE   O2215633   0.158   7.037  10.400 -0.9216 -0.0750 -0.0014
  143SAPE   C2215634  -0.043   6.907  10.346 -0.2561 -0.2535 -0.1395
  143SAPE   H2R15635  -0.013   6.821  10.284 -0.8820  0.5448 -1.5934
  143SAPE   H2S15636  -0.117   6.867  10.420 -0.8680  3.0126  1.1983
  143SAPE    C315637   0.336   6.861  10.602  0.3633  0.1508 -0.4891
  143SAPE    HX15638   0.338   6.750  10.607  3.2708  0.1345 -0.1504
  143SAPE    HY15639   0.393   6.889  10.693  1.6111 -0.0083 -1.1914
  143SAPE   O3115640   0.404   6.911  10.481  0.0261  0.4585  0.5850
  143SAPE   C3115641   0.464   7.030  10.495  0.3193  0.0487 -0.4173
  143SAPE   O3215642   0.455   7.098  10.595 -0.1659 -0.0886 -0.0372
  143SAPE   C3215643   0.520   7.080  10.369 -0.0823  0.1731 -0.0149
  143SAPE   H2X15644   0.630   7.063  10.367 -0.4354 -2.6351 -0.0430
  143SAPE   H2Y15645   0.502   7.186  10.343  0.2180 -0.2414 -2.0951
  143SAPE   C2315646  -0.094   7.026  10.262  0.6784 -0.4827  0.0916
  143SAPE   H3R15647  -0.019   7.071  10.194 -0.4411 -0.8663 -1.4350
  143SAPE   H3S15648  -0.130   7.108  10.328 -1.7466 -0.4550 -1.1592
  143SAPE   C2415649  -0.221   6.993  10.177  0.5376  0.0872 -0.3466
  143SAPE   H4R15650  -0.275   7.082  10.140  1.3193  0.8896  0.4112
  143SAPE   H4S15651  -0.291   6.958  10.256  0.2586  0.2209 -0.5332
  143SAPE   C2515652  -0.203   6.893  10.069 -0.0036 -0.5246  0.0571
  143SAPE   H5R15653  -0.118   6.919  10.005  0.7061 -1.3777  0.6292
  143SAPE   C2615654  -0.264   6.776  10.054  0.3066  0.0608  1.1571
  143SAPE   H6R15655  -0.227   6.715   9.970 -1.9342 -1.1223  0.9568
  143SAPE   C2715656  -0.363   6.708  10.143  0.7890  0.8413 -0.9081
  143SAPE   H7R15657  -0.434   6.640  10.091  0.7475 -1.7825  2.2496
  143SAPE   H7S15658  -0.436   6.777  10.190  0.5006 -0.4125  0.5613
  143SAPE   C2815659  -0.314   6.627  10.262 -0.1591 -0.6893  0.2141
  143SAPE   H8R15660  -0.301   6.688  10.353 -0.1819  0.8781 -0.8084
  143SAPE   C2915661  -0.287   6.498  10.256 -0.3870  0.4867  0.6706
  143SAPE   H9R15662  -0.249   6.457  10.351 -0.8547  0.8983  1.0382
  143SAPE  C21015663  -0.314   6.412  10.136 -0.2192  0.3929  0.1964
  143SAPE  H10R15664  -0.320   6.476  10.045 -0.3365 -0.6416 -0.5317
  143SAPE  H10S15665  -0.403   6.347  10.129 -0.2657  0.4372  0.3540
  143SAPE  C21115666  -0.188   6.330  10.115 -0.6011 -0.0858  0.0512
  143SAPE  H11R15667  -0.187   6.253  10.192 -2.2049 -0.1932  0.0080
  143SAPE  C21215668  -0.085   6.344  10.029 -0.2047 -0.5985 -0.7745
  143SAPE  H12R15669  -0.011   6.262  10.033  0.5136  0.0853  1.4898
  143SAPE  C21315670  -0.059   6.453   9.920  0.6542 -0.1093 -0.2969
  143SAPE  H13R15671   0.033   6.438   9.861  1.3569 -0.7724  0.9400
  143SAPE  H13S15672  -0.044   6.552   9.969  0.6544 -0.5927  0.7042
  143SAPE  C21415673  -0.179   6.466   9.826  0.1866 -0.4378  1.9072
  143SAPE  H14R15674  -0.273   6.420   9.861 -0.3388 -0.8156  0.1028
  143SAPE  C21515675  -0.179   6.514   9.701  0.2742 -0.2748 -1.1064
  143SAPE  H15R15676  -0.278   6.513   9.654  0.3420 -3.8859 -1.4671
  143SAPE  C21615677  -0.072   6.576   9.625  0.4298  0.3113  0.2281
  143SAPE  H16R15678   0.026   6.545   9.667  0.5352 -0.4096 -0.5237
  143SAPE  H16S15679  -0.070   6.686   9.636 -0.0489  0.2948  0.4934
  143SAPE  C21715680  -0.081   6.532   9.476  0.1398 -1.0100 -0.4713
  143SAPE  H17R15681  -0.007   6.582   9.410  1.2199  0.0124  1.4440
  143SAPE  H17S15682  -0.181   6.564   9.440  0.4861  2.3355  1.1621
  143SAPE  C21815683  -0.078   6.381   9.451  0.0668 -0.4088 -0.0643
  143SAPE  H18R15684  -0.176   6.332   9.471  1.0327 -2.3763  0.1240
  143SAPE  H18S15685  -0.001   6.326   9.509  0.4247 -0.2846 -0.4170
  143SAPE  C21915686  -0.073   6.361   9.302 -0.5000 -0.0984 -0.7803
  143SAPE  H19R15687   0.023   6.400   9.263 -0.5520  2.5154  1.4390
  143SAPE  H19S15688  -0.156   6.420   9.258 -0.0788  0.7765 -0.4123
  143SAPE  C22015689  -0.091   6.216   9.274  0.0510  0.3404  0.4983
  143SAPE  H20R15690  -0.174   6.168   9.331  1.0600  0.7390  2.3764
  143SAPE  H20S15691  -0.004   6.155   9.309 -1.4203 -1.9611  0.3793
  143SAPE  H20T15692  -0.107   6.197   9.166 -1.7852  3.5200  0.0794
  143SAPE   C3315693   0.467   7.007  10.239  0.3033 -0.9817 -0.1219
  143SAPE   H3X15694   0.467   7.072  10.149 -0.8421 -0.3302  0.3214
  143SAPE   H3Y15695   0.363   6.969  10.255 -0.0239 -0.4031 -0.7728
  143SAPE   C3415696   0.547   6.885  10.202 -0.7747 -0.1710  0.7011
  143SAPE   H4X15697   0.493   6.827  10.124  1.4322 -1.0884 -0.2341
  143SAPE   H4Y15698   0.558   6.815  10.287 -0.6902 -0.6089  0.3343
  143SAPE   C3515699   0.684   6.922  10.138  0.3936 -0.1612 -0.0968
  143SAPE   H5X15700   0.718   6.834  10.080  1.4976  0.8033 -0.9617
  143SAPE   H5Y15701   0.764   6.946  10.211  1.0130  0.9847 -1.1042
  143SAPE   C3615702   0.686   7.035  10.035 -0.2604 -0.2810  0.8855
  143SAPE   H6X15703   0.794   7.025  10.009 -0.6873  1.1906 -1.9467
  143SAPE   H6Y15704   0.659   7.137  10.070 -0.9687 -0.3322  0.5040
  143SAPE   C3715705   0.609   7.006   9.910  0.0482 -0.1799  0.3735
  143SAPE   H7X15706   0.510   7.056   9.909  0.1888  0.1032 -0.4410
  143SAPE   H7Y15707   0.584   6.898   9.909 -1.9261  0.2251  1.1637
  143SAPE   C3815708   0.673   7.059   9.781 -0.4013  1.1216 -0.1615
  143SAPE   H8X15709   0.781   7.036   9.794 -0.6264 -2.3849 -2.8796
  143SAPE   H8Y15710   0.668   7.164   9.746  1.9345  1.5276  0.5066
  143SAPE   C3915711   0.626   6.973   9.656 -0.5677 -0.0574 -0.8964
  143SAPE   H9X15712   0.515   6.980   9.652 -0.5594 -0.5856 -3.2037
  143SAPE   H9Y15713   0.659   6.870   9.678  0.9770  0.0472 -2.5554
  143SAPE  C31015714   0.689   7.031   9.525  0.0476  0.1296  0.0206
  143SAPE  H10X15715   0.799   7.028   9.540  0.1219 -0.8659 -0.5977
  143SAPE  H10Y15716   0.659   7.136   9.509 -2.5481 -0.3556  1.1021
  143SAPE  C31115717   0.651   6.943   9.407  0.7203  0.0606 -0.8275
  143SAPE  H11X15718   0.542   6.942   9.388  0.3317 -1.5277  1.1639
  143SAPE  H11Y15719   0.685   6.837   9.409 -1.5557 -0.7164 -0.6254
  143SAPE  C31215720   0.716   7.002   9.278 -0.1371  0.0531  0.5534
  143SAPE  H12X15721   0.826   7.014   9.289 -0.3260  1.3301  1.2424
  143SAPE  H12Y15722   0.677   7.105   9.264 -1.3883 -0.3858  0.6906
  143SAPE  C31315723   0.693   6.919   9.148 -0.1174  0.8188 -0.5520
  143SAPE  H13X15724   0.591   6.876   9.140  0.9434 -2.1735  0.6583
  143SAPE  H13Y15725   0.760   6.831   9.155 -3.0598 -1.4926  0.5308
  143SAPE  C31415726   0.716   7.002   9.021 -0.0750  0.0169 -0.8756
  143SAPE  H14X15727   0.821   7.036   9.030  0.3351 -1.2929 -0.4328
  143SAPE  H14Y15728   0.651   7.092   9.026 -0.0156  0.0198  0.3308
  143SAPE  C31515729   0.683   6.929   8.888 -0.4768 -0.4484 -0.7046
  143SAPE  H15X15730   0.751   6.841   8.873 -0.8926 -0.4882 -2.6767
  143SAPE  H15Y15731   0.689   7.001   8.804  0.1442  1.3431  0.8117
  143SAPE  C31615732   0.546   6.853   8.884  0.1202 -0.0532 -0.4290
  143SAPE  H16X15733   0.480   6.924   8.938  0.5425  1.0473 -1.3258
  143SAPE  H16Y15734   0.572   6.762   8.943  1.3416  1.0334  0.7869
  143SAPE  C31715735   0.488   6.805   8.747 -0.0742  0.3018 -0.4252
  143SAPE  H17X15736   0.475   6.896   8.685  0.5870  0.9654  0.3884
  143SAPE  H17Y15737   0.388   6.757   8.752  0.0450  0.1100  0.2742
  143SAPE  C31815738   0.585   6.709   8.684  0.2501  0.4998 -0.2375
  143SAPE  H18X15739   0.576   6.602   8.712 -1.4184  0.6378 -0.1555
  143SAPE  H18Y15740   0.690   6.734   8.712  0.4819 -0.9274  0.2053
  143SAPE  H18Z15741   0.573   6.710   8.573  0.1379  1.2248 -0.2252
  144SAPE     N15742   3.720   5.180  10.615 -0.1610  0.1699  0.0165
  144SAPE   HN115743   3.755   5.161  10.711 -0.4629  0.5573  0.2086
  144SAPE   HN215744   3.722   5.281  10.593 -0.2423  0.1465 -0.0976
  144SAPE   HN315745   3.618   5.160  10.617 -0.1676  0.1841 -0.1567
  144SAPE   C1215746   3.808   5.114  10.510  0.7425 -0.1284 -0.6775
  144SAPE  H12A15747   3.800   5.168  10.414 -0.6140 -1.5522 -1.4143
  144SAPE  H12B15748   3.771   5.010  10.496 -2.4252  0.7359  0.4203
  144SAPE   C1115749   3.960   5.129  10.551  0.1663 -0.2557  0.3973
  144SAPE  H11A15750   4.018   5.086  10.466  0.6763  1.2273 -0.0315
  144SAPE  H11B15751   3.965   5.064  10.641  1.8587 -0.7936 -0.0509
  144SAPE     P15752   4.074   5.299  10.703  0.0074 -0.1552  0.3436
  144SAPE   O1315753   4.085   5.444  10.724  0.0553  0.0749 -0.2162
  144SAPE   O1415754   4.035   5.234  10.828 -0.0483  0.6130  0.2443
  144SAPE   O1215755   3.981   5.265  10.590  0.9990 -0.4134  0.2315
  144SAPE   O1115756   4.214   5.234  10.653  0.6435  0.0169 -0.0487
  144SAPE    C115757   4.296   5.290  10.554  0.1006 -0.4113 -0.5826
  144SAPE    HA15758   4.282   5.399  10.541  4.2170  0.2784 -0.5256
  144SAPE    HB15759   4.402   5.293  10.587  0.1955  2.9869 -0.8698
  144SAPE    C215760   4.293   5.212  10.423  0.0608  0.1173 -0.1595
  144SAPE    HS15761   4.186   5.215  10.393  0.5019 -0.2072 -1.8655
  144SAPE   O2115762   4.341   5.079  10.448  0.4119 -0.3662  0.0291
  144SAPE   C2115763   4.313   4.997  10.343 -0.1405  0.2991  0.5044
  144SAPE   O2215764   4.241   5.031  10.250  0.3373 -0.1606  0.2303
  144SAPE   C2215765   4.370   4.855  10.357 -0.0029  0.0083  0.2349
  144SAPE   H2R15766   4.462   4.864  10.420 -0.4315 -1.8753  1.2228
  144SAPE   H2S15767   4.297   4.788  10.408 -0.5310 -0.4038 -1.0415
  144SAPE    C315768   4.380   5.277  10.321  0.3515 -0.7107  0.4069
  144SAPE    HX15769   4.397   5.216  10.230  0.6481  0.1792 -0.1451
  144SAPE    HY15770   4.483   5.275  10.362  0.6126  1.0046 -0.0761
  144SAPE   O3115771   4.341   5.412  10.304  0.1739  0.5572  0.3680
  144SAPE   C3115772   4.424   5.477  10.216  0.2800  0.5354 -0.1255
  144SAPE   O3215773   4.523   5.420  10.162  0.6674 -0.3184 -0.1589
  144SAPE   C3215774   4.387   5.626  10.199  0.0612 -0.2012 -0.2664
  144SAPE   H2X15775   4.471   5.681  10.246  0.1207 -1.0907  0.7275
  144SAPE   H2Y15776   4.296   5.644  10.259  0.4946  0.0364  0.3324
  144SAPE   C2315777   4.405   4.795  10.219  0.2373 -0.1682 -0.2989
  144SAPE   H3R15778   4.490   4.853  10.178 -0.7483  1.2667 -0.3672
  144SAPE   H3S15779   4.317   4.792  10.150 -0.2908 -3.1377  0.3393
  144SAPE   C2415780   4.437   4.641  10.244 -0.9069  0.4144  0.2001
  144SAPE   H4R15781   4.420   4.586  10.148 -0.8636  0.0448  0.3992
  144SAPE   H4S15782   4.370   4.583  10.310 -0.3099 -1.3492 -0.6707
  144SAPE   C2515783   4.576   4.632  10.307  0.6719 -0.3267  0.3137
  144SAPE   H5R15784   4.584   4.642  10.416  0.0701 -0.0194  0.3341
  144SAPE   C2615785   4.690   4.626  10.236  0.9672  0.3164  0.3370
  144SAPE   H6R15786   4.784   4.619  10.292  0.9108 -3.2443  0.2359
  144SAPE   C2715787   4.705   4.622  10.086 -0.4448 -0.3173  0.2218
  144SAPE   H7R15788   4.710   4.723  10.040 -0.4215  1.3196  3.5625
  144SAPE   H7S15789   4.606   4.585  10.050 -1.5261  0.7226  1.9812
  144SAPE   C2815790   4.814   4.530  10.034  0.0039  0.6759  0.0611
  144SAPE   H8R15791   4.880   4.481  10.107 -0.9682 -3.3409 -1.4641
  144SAPE   C2915792   4.823   4.489   9.910 -0.0016 -0.0561 -0.2189
  144SAPE   H9R15793   4.917   4.436   9.888 -1.2646 -3.4690  1.7179
  144SAPE  C21015794   4.736   4.523   9.798  0.0993  0.3778  0.1204
  144SAPE  H10R15795   4.653   4.592   9.823 -0.8754 -0.8633  0.4304
  144SAPE  H10S15796   4.680   4.434   9.764  0.3880  0.2718 -0.0862
  144SAPE  C21115797   4.800   4.588   9.674 -0.1488  0.3266 -0.5587
  144SAPE  H11R15798   4.825   4.692   9.699  0.8333  0.1594 -0.8146
  144SAPE  C21215799   4.853   4.524   9.564 -0.0343  0.2486  0.4668
  144SAPE  H12R15800   4.875   4.591   9.480 -0.9829  0.3576  0.2913
  144SAPE  C21315801   4.847   4.377   9.531  0.4928  0.4199  0.2553
  144SAPE  H13R15802   4.838   4.324   9.628  0.8384 -0.1578 -0.0181
  144SAPE  H13S15803   4.946   4.353   9.485  0.1689  0.4338 -0.4610
  144SAPE  C21415804   4.728   4.323   9.450  0.2619 -0.5875 -0.8287
  144SAPE  H14R15805   4.638   4.382   9.474  0.5429 -0.3358 -0.3898
  144SAPE  C21515806   4.721   4.225   9.359 -0.0181  0.1283  0.0667
  144SAPE  H15R15807   4.627   4.183   9.321  0.3610 -0.7592  0.0851
  144SAPE  C21615808   4.828   4.128   9.330  0.0621  0.2260  0.5072
  144SAPE  H16R15809   4.793   4.023   9.339 -0.6435  0.4318  0.2405
  144SAPE  H16S15810   4.925   4.136   9.383  1.3875 -0.4917 -1.7025
  144SAPE  C21715811   4.880   4.135   9.183  0.1667  0.9261 -0.0418
  144SAPE  H17R15812   4.790   4.110   9.122  0.2392 -0.9364  0.5591
  144SAPE  H17S15813   4.962   4.060   9.171 -0.9169 -0.4414  0.7925
  144SAPE  C21815814   4.931   4.269   9.142 -0.3857  0.0231  0.4361
  144SAPE  H18R15815   5.027   4.292   9.193 -0.3251 -1.1772  0.8831
  144SAPE  H18S15816   4.858   4.344   9.177  0.3300  0.4058  1.1507
  144SAPE  C21915817   4.946   4.283   8.991  0.2514 -0.1178  0.8169
  144SAPE  H19R15818   4.997   4.378   8.966  0.6723 -0.7987 -1.0795
  144SAPE  H19S15819   4.844   4.281   8.946  0.3842 -1.1149  0.5450
  144SAPE  C22015820   5.038   4.170   8.932  0.5155 -0.6847 -0.0068
  144SAPE  H20R15821   5.131   4.180   8.991 -1.2858  2.7032  2.6031
  144SAPE  H20S15822   5.054   4.191   8.824  0.8141 -0.2583  0.1198
  144SAPE  H20T15823   4.982   4.075   8.949 -1.5230  0.8606  2.7227
  144SAPE   C3315824   4.334   5.670  10.059  1.8292 -0.2673  0.4558
  144SAPE   H3X15825   4.330   5.780  10.067 -0.9384 -0.1843 -0.9468
  144SAPE   H3Y15826   4.231   5.632  10.043  2.3955 -1.8166  0.2610
  144SAPE   C3415827   4.432   5.633   9.951 -0.1538 -0.0321  0.0193
  144SAPE   H4X15828   4.454   5.524   9.944 -0.5758 -0.1670  0.7540
  144SAPE   H4Y15829   4.526   5.682   9.981  0.2208 -1.4436  1.2526
  144SAPE   C3515830   4.396   5.687   9.817 -0.2688  0.3729  0.5374
  144SAPE   H5X15831   4.396   5.798   9.823  0.4598  0.4925 -1.1565
  144SAPE   H5Y15832   4.299   5.636   9.798  0.8769 -2.6237  2.0054
  144SAPE   C3615833   4.501   5.648   9.708 -0.0479  0.0342  0.5495
  144SAPE   H6X15834   4.498   5.539   9.687 -0.7207 -0.1846  1.6944
  144SAPE   H6Y15835   4.604   5.672   9.741  0.0934  2.1019 -1.1676
  144SAPE   C3715836   4.475   5.736   9.580  0.3825 -0.1293 -0.1447
  144SAPE   H7X15837   4.523   5.834   9.600  1.4993 -0.6061 -0.4120
  144SAPE   H7Y15838   4.364   5.744   9.573  0.1801 -1.0279  1.5508
  144SAPE   C3815839   4.543   5.661   9.459  1.0880 -0.3404  0.3489
  144SAPE   H8X15840   4.513   5.555   9.466 -0.3404 -0.0740 -1.0557
  144SAPE   H8Y15841   4.652   5.647   9.476  1.1879 -2.9128 -1.7825
  144SAPE   C3915842   4.506   5.713   9.319  0.0805  0.2393  0.7245
  144SAPE   H9X15843   4.544   5.816   9.300  1.4040 -0.5190 -1.0777
  144SAPE   H9Y15844   4.396   5.707   9.309 -0.0408  1.9539  0.7111
  144SAPE  C31015845   4.543   5.621   9.202  0.5093  0.0013  0.4839
  144SAPE  H10X15846   4.513   5.516   9.226 -0.7021  0.4086  0.8215
  144SAPE  H10Y15847   4.652   5.624   9.183  0.4419  2.8355  0.2263
  144SAPE  C31115848   4.458   5.649   9.072 -0.6779 -0.2546 -0.0589
  144SAPE  H11X15849   4.465   5.760   9.072 -2.2030 -0.0567  3.1835
  144SAPE  H11Y15850   4.352   5.615   9.077 -1.2870  1.4006 -0.9045
  144SAPE  C31215851   4.519   5.601   8.941 -0.1554  0.1443  0.0671
  144SAPE  H12X15852   4.533   5.491   8.953  2.0688  0.0751 -2.3443
  144SAPE  H12Y15853   4.622   5.635   8.921 -0.6157  0.6435 -1.6304
  144SAPE  C31315854   4.413   5.621   8.830 -0.9005  1.2658 -0.1286
  144SAPE  H13X15855   4.380   5.727   8.826 -1.4617  1.1952  1.7316
  144SAPE  H13Y15856   4.329   5.548   8.834  0.5092 -0.3942  1.0700
  144SAPE  C31415857   4.491   5.583   8.700  0.5076 -0.8532  0.3482
  144SAPE  H14X15858   4.591   5.631   8.698  0.2784 -0.3885 -0.3659
  144SAPE  H14Y15859   4.432   5.628   8.618  2.3705 -2.2221 -1.8705
  144SAPE  C31515860   4.521   5.435   8.673  0.3336  0.3973  0.8859
  144SAPE  H15X15861   4.434   5.366   8.676 -0.5544  1.4932  1.0449
  144SAPE  H15Y15862   4.577   5.410   8.765 -1.5366 -0.5935  1.8084
  144SAPE  C31615863   4.607   5.391   8.546  0.9053 -0.0297  0.2198
  144SAPE  H16X15864   4.650   5.290   8.563 -0.3863 -0.4062  1.5013
  144SAPE  H16Y15865   4.690   5.464   8.543 -0.1936  1.4823  2.8676
  144SAPE  C31715866   4.539   5.403   8.412  0.1847  0.1322 -0.5493
  144SAPE  H17X15867   4.503   5.508   8.400  0.2182  0.1376 -0.6004
  144SAPE  H17Y15868   4.448   5.339   8.411 -0.9927  1.6538 -3.0188
  144SAPE  C31815869   4.637   5.374   8.291 -0.5881  0.2811  0.2184
  144SAPE  H18X15870   4.607   5.444   8.209 -1.3028 -0.0775  0.1662
  144SAPE  H18Y15871   4.643   5.267   8.264 -1.6208  0.2027  0.2627
  144SAPE  H18Z15872   4.738   5.413   8.317 -0.1140 -0.8666  0.1638
  145SAPE     N15873   0.443   0.018  11.127  0.0749 -0.2165 -0.0356
  145SAPE   HN115874   0.343  -0.001  11.109 -0.5295  1.0670  1.7126
  145SAPE   HN215875   0.456   0.094  11.196 -0.3057  0.1365 -0.3479
  145SAPE   HN315876   0.491   0.056  11.043 -1.6930  1.4461 -0.3618
  145SAPE   C1215877   0.508  -0.107  11.176 -0.6765 -0.4309 -0.9001
  145SAPE  H12A15878   0.439  -0.169  11.238  2.6766 -0.3472  3.4674
  145SAPE  H12B15879   0.595  -0.074  11.237  0.4540  0.6237 -3.0047
  145SAPE   C1115880   0.562  -0.184  11.055  0.3612 -0.2716 -0.5744
  145SAPE  H11A15881   0.495  -0.186  10.966  0.5835 -1.5926 -0.7351
  145SAPE  H11B15882   0.556  -0.291  11.084  1.9535  0.5568  3.5460
  145SAPE     P15883   0.725  -0.022  10.918 -0.3100  0.5951 -0.1384
  145SAPE   O1315884   0.603   0.055  10.909 -0.4120 -0.0593  0.0239
  145SAPE   O1415885   0.831   0.068  10.975 -0.0574 -0.2843 -0.1509
  145SAPE   O1215886   0.698  -0.147  11.016  0.0690  0.0636  0.1914
  145SAPE   O1115887   0.760  -0.089  10.783 -0.1969 -1.3711  0.4809
  145SAPE    C115888   0.886  -0.152  10.757 -0.0599  0.2838 -0.0506
  145SAPE    HA15889   0.945  -0.075  10.701  0.3877  0.3124  0.4565
  145SAPE    HB15890   0.942  -0.186  10.846 -2.0111  0.3531  1.2521
  145SAPE    C215891   0.879  -0.283  10.678  0.7074  0.0254  0.1620
  145SAPE    HS15892   0.983  -0.322  10.671  0.8214  0.1322  1.2041
  145SAPE   O2115893   0.823  -0.262  10.549  0.0491 -0.0161 -1.0246
  145SAPE   C2115894   0.905  -0.202  10.464 -0.0867  0.0254 -0.2178
  145SAPE   O2215895   1.029  -0.193  10.473  0.1343  0.3660  0.3054
  145SAPE   C2215896   0.822  -0.157  10.341 -0.4926  0.6934 -0.1814
  145SAPE   H2R15897   0.770  -0.072  10.390  0.1540  1.8224 -1.3729
  145SAPE   H2S15898   0.884  -0.121  10.256 -0.3018 -1.3886 -0.9943
  145SAPE    C315899   0.797  -0.390  10.750 -0.5006  0.2682 -0.4399
  145SAPE    HX15900   0.688  -0.368  10.743 -0.8127 -1.3973 -1.2207
  145SAPE    HY15901   0.840  -0.395  10.852 -1.6661  3.0077  0.2857
  145SAPE   O3115902   0.817  -0.513  10.678 -0.2061 -0.2449  0.4447
  145SAPE   C3115903   0.926  -0.572  10.702  1.2898 -0.2445 -0.0474
  145SAPE   O3215904   1.016  -0.532  10.774 -0.3393 -0.1134 -0.2664
  145SAPE   C3215905   0.948  -0.688  10.610 -0.2283  0.2195 -0.6194
  145SAPE   H2X15906   0.900  -0.674  10.511  1.6504  0.8082 -1.4918
  145SAPE   H2Y15907   0.895  -0.775  10.655 -1.2451  0.7131 -0.8187
  145SAPE   C2315908   0.727  -0.255  10.262 -1.2019  0.2301  0.1749
  145SAPE   H3R15909   0.669  -0.217  10.175 -1.4922  0.3709  0.4268
  145SAPE   H3S15910   0.656  -0.287  10.341  0.1226 -1.1790  0.8547
  145SAPE   C2415911   0.805  -0.377  10.205 -0.2624 -0.8295  0.2885
  145SAPE   H4R15912   0.732  -0.454  10.171  0.8770 -2.0769  0.6001
  145SAPE   H4S15913   0.861  -0.420  10.291 -0.3022  3.0055  2.4730
  145SAPE   C2515914   0.890  -0.352  10.084  0.1967 -0.8061  1.0475
  145SAPE   H5R15915   1.000  -0.341  10.091  0.4862 -2.1703 -0.6316
  145SAPE   C2615916   0.851  -0.362   9.951 -0.4262 -0.2654  0.3941
  145SAPE   H6R15917   0.929  -0.341   9.876  1.2896 -0.4937  2.0474
  145SAPE   C2715918   0.715  -0.395   9.901 -0.0045 -0.1427 -0.1149
  145SAPE   H7R15919   0.674  -0.471   9.970 -0.1883 -0.8710 -1.0102
  145SAPE   H7S15920   0.721  -0.455   9.808 -0.0091 -3.1163  1.6720
  145SAPE   C2815921   0.624  -0.271   9.892  0.7201 -0.6213 -0.1494
  145SAPE   H8R15922   0.611  -0.218   9.988 -0.0632  3.0464 -2.0720
  145SAPE   C2915923   0.568  -0.220   9.780 -0.0754 -0.8966  0.1482
  145SAPE   H9R15924   0.511  -0.126   9.784  0.9527 -0.0185 -3.0101
  145SAPE  C21015925   0.593  -0.254   9.632 -0.4709  1.0073 -0.0737
  145SAPE  H10R15926   0.695  -0.296   9.622 -0.0521  2.0553 -0.3328
  145SAPE  H10S15927   0.591  -0.158   9.576 -0.4016  1.2005  0.2505
  145SAPE  C21115928   0.485  -0.355   9.587  0.8256 -0.1459 -0.4432
  145SAPE  H11R15929   0.408  -0.395   9.655  2.3034 -0.1946  1.2538
  145SAPE  C21215930   0.474  -0.398   9.460  0.4085 -0.9084  0.2714
  145SAPE  H12R15931   0.382  -0.456   9.440 -0.8125 -0.1601  3.1482
  145SAPE  C21315932   0.552  -0.346   9.342  0.7888  0.2406  0.5888
  145SAPE  H13R15933   0.590  -0.428   9.278  0.3336  1.6494 -1.6080
  145SAPE  H13S15934   0.645  -0.298   9.380  0.1828  1.7376  0.2482
  145SAPE  C21415935   0.470  -0.242   9.273  0.5565 -0.0426  0.6961
  145SAPE  H14R15936   0.472  -0.145   9.324  1.0153 -0.7015  1.9799
  145SAPE  C21515937   0.394  -0.247   9.163 -0.4980  0.2366  0.3919
  145SAPE  H15R15938   0.352  -0.161   9.109  1.2997  2.0443  1.7586
  145SAPE  C21615939   0.378  -0.370   9.076  0.6186  0.8771  0.0057
  145SAPE  H16R15940   0.414  -0.467   9.116  0.7542  0.8416 -0.2004
  145SAPE  H16S15941   0.433  -0.356   8.981 -0.2951  1.2559 -0.4710
  145SAPE  C21715942   0.233  -0.385   9.042 -0.0005  0.1557 -0.2704
  145SAPE  H17R15943   0.212  -0.291   8.987  1.4574  0.6324 -0.0502
  145SAPE  H17S15944   0.165  -0.381   9.130  0.9459 -0.7977  0.5405
  145SAPE  C21815945   0.208  -0.508   8.944 -0.4849 -0.2278 -0.7061
  145SAPE  H18R15946   0.233  -0.606   8.991  3.6035  0.9230 -0.0684
  145SAPE  H18S15947   0.283  -0.500   8.863  1.3110 -3.7629  0.3908
  145SAPE  C21915948   0.063  -0.500   8.881 -1.1927  0.0677 -0.0545
  145SAPE  H19R15949   0.053  -0.405   8.824  0.0939 -0.4359 -1.1593
  145SAPE  H19S15950  -0.021  -0.507   8.954 -1.4103  0.4084 -0.2682
  145SAPE  C22015951   0.041  -0.610   8.773  0.5789  0.0561 -0.4991
  145SAPE  H20R15952   0.110  -0.615   8.687 -0.7140 -1.7436 -1.5138
  145SAPE  H20S15953  -0.066  -0.612   8.741  0.3132 -1.1821  0.3611
  145SAPE  H20T15954   0.049  -0.704   8.832  0.8391  0.6185  0.3719
  145SAPE   C3315955   1.096  -0.715  10.570 -0.1680 -0.0421 -0.3440
  145SAPE   H3X15956   1.100  -0.787  10.485 -1.9702 -1.5148  0.7437
  145SAPE   H3Y15957   1.151  -0.749  10.661  0.8763  1.1617 -0.5021
  145SAPE   C3415958   1.178  -0.595  10.512  0.5001 -0.3454 -0.0638
  145SAPE   H4X15959   1.286  -0.622  10.510  0.6214  0.1685 -0.7379
  145SAPE   H4Y15960   1.165  -0.506  10.579  1.5980  1.0274 -1.5945
  145SAPE   C3515961   1.114  -0.551  10.380 -0.2295  0.0684 -0.1907
  145SAPE   H5X15962   1.030  -0.482  10.401  0.7033  0.2565  3.5646
  145SAPE   H5Y15963   1.078  -0.644  10.330  2.6340 -0.7513 -0.9447
  145SAPE   C3615964   1.223  -0.482  10.286  0.5530 -0.0069  0.0199
  145SAPE   H6X15965   1.273  -0.409  10.354 -1.2658 -0.3414  1.8367
  145SAPE   H6Y15966   1.157  -0.418  10.225  0.6358  2.7359  2.6020
  145SAPE   C3715967   1.303  -0.580  10.204  0.3207  0.0199  0.7101
  145SAPE   H7X15968   1.247  -0.638  10.128  0.6496 -2.8922  2.5014
  145SAPE   H7Y15969   1.334  -0.656  10.279  0.8357  1.9889  2.5912
  145SAPE   C3815970   1.422  -0.513  10.129 -0.3109  0.0798 -0.3563
  145SAPE   H8X15971   1.495  -0.492  10.210  1.5766 -1.2773 -1.6121
  145SAPE   H8Y15972   1.407  -0.424  10.064 -0.7727 -1.3851 -2.3465
  145SAPE   C3915973   1.497  -0.606  10.038 -0.9190  0.4441  0.1106
  145SAPE   H9X15974   1.477  -0.712  10.064  1.4077 -0.0558  0.0848
  145SAPE   H9Y15975   1.604  -0.579  10.029 -1.0901  1.4461  0.9369
  145SAPE  C31015976   1.441  -0.602   9.891 -0.5575  0.0230  0.5524
  145SAPE  H10X15977   1.427  -0.494   9.867  0.8257  0.9330  3.2649
  145SAPE  H10Y15978   1.341  -0.649   9.902  0.0639 -1.4333  0.1541
  145SAPE  C31115979   1.529  -0.677   9.797 -0.6170  0.0059  0.0933
  145SAPE  H11X15980   1.521  -0.787   9.816  1.3546 -0.8875 -3.3560
  145SAPE  H11Y15981   1.637  -0.652   9.807 -0.7398  0.2605  0.8573
  145SAPE  C31215982   1.490  -0.643   9.658  0.5140  0.2482 -0.0312
  145SAPE  H12X15983   1.452  -0.539   9.644 -1.2628 -0.4753 -0.8637
  145SAPE  H12Y15984   1.405  -0.707   9.626  0.8195  0.1537 -0.6691
  145SAPE  C31315985   1.591  -0.679   9.557 -0.3641 -0.1302 -0.1797
  145SAPE  H13X15986   1.626  -0.784   9.563  1.8181  0.4403 -1.6259
  145SAPE  H13Y15987   1.682  -0.619   9.579  0.4046 -0.7516 -1.5607
  145SAPE  C31415988   1.546  -0.643   9.412 -0.0864 -0.2173 -0.0418
  145SAPE  H14X15989   1.446  -0.691   9.399 -0.2670  0.4907 -1.5063
  145SAPE  H14Y15990   1.620  -0.688   9.342  0.2322 -0.0484  0.1858
  145SAPE  C31515991   1.549  -0.492   9.377  0.6568 -0.5031  0.9393
  145SAPE  H15X15992   1.657  -0.463   9.379  0.5993 -0.3171  2.5401
  145SAPE  H15Y15993   1.504  -0.428   9.456 -1.5567  0.2461 -0.8156
  145SAPE  C31615994   1.506  -0.454   9.240  0.1269  0.2209 -0.1057
  145SAPE  H16X15995   1.406  -0.502   9.229  0.4128 -1.0352  2.1980
  145SAPE  H16Y15996   1.573  -0.497   9.163 -0.3418  0.2733 -0.5505
  145SAPE  C31715997   1.495  -0.301   9.212 -0.4092  0.4220  0.1137
  145SAPE  H17X15998   1.598  -0.264   9.229 -0.1090 -1.6161  3.8743
  145SAPE  H17Y15999   1.425  -0.249   9.282 -0.0408  2.5014 -0.9952
  145SAPE  C31816000   1.452  -0.273   9.065  1.1911  0.0846  0.4351
  145SAPE  H18X16001   1.446  -0.168   9.029  2.7469 -0.7588 -2.6318
  145SAPE  H18Y16002   1.350  -0.315   9.052  0.9004  0.3971  1.5665
  145SAPE  H18Z16003   1.516  -0.335   8.999  0.3391 -1.2824  0.8444
  146SAPE     N16004   6.292   4.841  10.998 -0.3520 -0.2884  0.0781
  146SAPE   HN116005   6.301   4.803  11.094 -0.4491 -0.2145  0.1157
  146SAPE   HN216006   6.216   4.798  10.941  0.3548 -1.1238 -0.2656
  146SAPE   HN316007   6.384   4.817  10.955  0.3041  1.8425  0.2118
  146SAPE   C1216008   6.265   4.990  10.993 -0.4000 -0.3466 -0.1611
  146SAPE  H12A16009   6.291   5.011  10.887 -0.8156 -0.6633 -0.3278
  146SAPE  H12B16010   6.338   5.039  11.061  0.4289  1.0682 -1.9868
  146SAPE   C1116011   6.125   5.025  11.027  0.6152  0.0624 -0.7927
  146SAPE  H11A16012   6.108   5.134  11.020  0.3029  0.4090  3.1355
  146SAPE  H11B16013   6.107   5.010  11.135 -0.7370 -1.4590 -1.1947
  146SAPE     P16014   5.946   5.010  10.830  0.3141  0.0129  0.0786
  146SAPE   O1316015   5.830   4.919  10.806  0.5832  0.1377  0.5163
  146SAPE   O1416016   5.910   5.149  10.857  0.4524  0.1930 -0.1474
  146SAPE   O1216017   6.035   4.950  10.949  0.3489  0.3569  0.2662
  146SAPE   O1116018   6.045   5.002  10.711 -0.6476 -0.2126 -0.3530
  146SAPE    C116019   6.074   4.884  10.636 -0.3622  0.5573  0.5906
  146SAPE    HA16020   6.169   4.839  10.673 -0.4639 -0.0420  0.1365
  146SAPE    HB16021   5.993   4.809  10.649 -2.1590  2.4429  0.7391
  146SAPE    C216022   6.090   4.909  10.475 -0.0540 -0.6682  0.0768
  146SAPE    HS16023   6.156   4.828  10.437  3.1523  1.2217  1.1407
  146SAPE   O2116024   6.151   5.038  10.451 -0.4315 -0.4759  0.0733
  146SAPE   C2116025   6.272   5.064  10.508  0.2985 -0.1610  1.3022
  146SAPE   O2216026   6.343   4.979  10.555  0.0816 -0.4285 -0.6130
  146SAPE   C2216027   6.309   5.205  10.489 -0.3009  0.0378 -0.1611
  146SAPE   H2R16028   6.225   5.265  10.447 -0.5947  0.9511  1.6044
  146SAPE   H2S16029   6.355   5.254  10.578  2.1418  0.0436 -1.3396
  146SAPE    C316030   5.954   4.899  10.407  0.4608  0.0191  0.3646
  146SAPE    HX16031   5.893   4.969  10.468  2.0373  0.1469  1.8633
  146SAPE    HY16032   5.899   4.802  10.415 -1.2063  0.9728  0.9174
  146SAPE   O3116033   5.962   4.940  10.269  0.1576  0.2305  0.7239
  146SAPE   C3116034   6.016   4.844  10.194 -0.1298 -0.1512 -0.5221
  146SAPE   O3216035   6.048   4.730  10.233 -0.3018 -0.2255  0.1521
  146SAPE   C3216036   6.029   4.905  10.050  0.4621  0.1533  0.3078
  146SAPE   H2X16037   6.109   4.982  10.041 -0.1850  0.6453 -1.5069
  146SAPE   H2Y16038   5.934   4.960  10.031 -0.4149 -1.3519  0.2421
  146SAPE   C2316039   6.439   5.224  10.399 -0.0779 -0.8429 -0.1434
  146SAPE   H3R16040   6.526   5.162  10.428  1.3395  0.9445 -0.3978
  146SAPE   H3S16041   6.468   5.331  10.414 -1.4410 -0.7513  2.3267
  146SAPE   C2416042   6.422   5.196  10.246  0.3849  0.0087  1.4922
  146SAPE   H4R16043   6.397   5.088  10.237 -1.0704  0.5225 -3.8163
  146SAPE   H4S16044   6.525   5.213  10.208 -0.4665 -0.5288 -1.2349
  146SAPE   C2516045   6.317   5.279  10.166 -0.3512  0.5587  0.4701
  146SAPE   H5R16046   6.216   5.235  10.161  0.1002 -0.5253  0.4141
  146SAPE   C2616047   6.340   5.391  10.102 -0.4027 -0.0450 -0.5485
  146SAPE   H6R16048   6.252   5.451  10.077  0.7874  2.4322  0.8021
  146SAPE   C2716049   6.470   5.469  10.085 -0.5820  0.0301 -0.4685
  146SAPE   H7R16050   6.547   5.407  10.135 -1.6304  0.2016  1.4264
  146SAPE   H7S16051   6.464   5.568  10.135 -1.7724 -0.4395  0.3642
  146SAPE   C2816052   6.506   5.478   9.938  0.0727  0.0166  0.5757
  146SAPE   H8R16053   6.497   5.581   9.900  2.2373  0.5289  1.3155
  146SAPE   C2916054   6.526   5.380   9.850  0.7393 -0.0298 -0.3465
  146SAPE   H9R16055   6.550   5.404   9.745  1.8622  0.4721  0.0181
  146SAPE  C21016056   6.519   5.231   9.869 -0.1104  0.2160 -0.2044
  146SAPE  H10R16057   6.523   5.211   9.978  2.5719  1.9409  0.0884
  146SAPE  H10S16058   6.602   5.188   9.809  0.0211  2.1507 -1.4827
  146SAPE  C21116059   6.389   5.173   9.813  0.0242  0.3737  0.4160
  146SAPE  H11R16060   6.312   5.140   9.884 -2.6930 -0.8334 -2.7860
  146SAPE  C21216061   6.357   5.150   9.684 -0.2943 -0.0191  0.2352
  146SAPE  H12R16062   6.258   5.108   9.663 -0.5024 -0.5090  2.0348
  146SAPE  C21316063   6.441   5.186   9.560 -0.3684  1.2308  0.1637
  146SAPE  H13R16064   6.455   5.098   9.493 -0.3554  1.6753 -0.4235
  146SAPE  H13S16065   6.546   5.206   9.591 -0.3336 -0.4209  1.2674
  146SAPE  C21416066   6.387   5.300   9.485  0.2643  0.1675 -0.2937
  146SAPE  H14R16067   6.358   5.392   9.538  0.0716  1.2024 -2.0998
  146SAPE  C21516068   6.364   5.307   9.356  0.4839 -0.9548 -0.1888
  146SAPE  H15R16069   6.342   5.406   9.314  0.9340 -1.3075 -1.3039
  146SAPE  C21616070   6.388   5.192   9.258  0.3764 -0.3360  0.5669
  146SAPE  H16R16071   6.323   5.104   9.277 -0.1649 -0.2011 -0.5636
  146SAPE  H16S16072   6.494   5.163   9.271  0.8706  0.8620 -0.5174
  146SAPE  C21716073   6.361   5.231   9.115  0.0028  0.6414  0.2733
  146SAPE  H17R16074   6.423   5.321   9.098  0.3145  0.6680  1.4610
  146SAPE  H17S16075   6.259   5.267   9.092 -0.1915  0.1179  0.2922
  146SAPE  C21816076   6.404   5.127   9.012 -0.0539  0.7044  0.4101
  146SAPE  H18R16077   6.350   5.030   9.022 -2.6192  1.7064 -2.1833
  146SAPE  H18S16078   6.514   5.116   9.025 -0.1069 -1.1555 -0.3641
  146SAPE  C21916079   6.369   5.175   8.871 -0.2070 -0.2111 -0.5752
  146SAPE  H19R16080   6.426   5.267   8.845 -0.8064 -0.0599 -1.4015
  146SAPE  H19S16081   6.264   5.208   8.864 -0.4313 -0.6255  0.6011
  146SAPE  C22016082   6.404   5.072   8.762  0.0543 -0.2806  0.2191
  146SAPE  H20R16083   6.347   4.977   8.771  0.8232 -0.6300  1.7519
  146SAPE  H20S16084   6.512   5.046   8.772  0.1601 -0.7975 -1.7830
  146SAPE  H20T16085   6.386   5.111   8.659  3.3057  0.8191 -0.0524
  146SAPE   C3316086   6.067   4.809   9.933  0.3717 -0.3386 -0.0509
  146SAPE   H3X16087   5.999   4.722   9.916 -0.2495 -0.1389  1.3093
  146SAPE   H3Y16088   6.170   4.768   9.929  0.5526  0.0616  0.4704
  146SAPE   C3416089   6.062   4.881   9.789 -0.4139 -0.1946 -0.5363
  146SAPE   H4X16090   6.151   4.947   9.798 -0.4814 -0.2823  1.1038
  146SAPE   H4Y16091   5.964   4.932   9.777 -0.2355  0.1243 -0.6598
  146SAPE   C3516092   6.091   4.796   9.668 -0.3051  0.7091 -0.4125
  146SAPE   H5X16093   6.021   4.710   9.664 -1.1770  1.3264  0.7003
  146SAPE   H5Y16094   6.194   4.755   9.676 -0.4759  0.6075  2.0345
  146SAPE   C3616095   6.061   4.874   9.543  0.2083 -0.1657  0.2808
  146SAPE   H6X16096   6.120   4.968   9.550  1.1850 -0.7587  0.3383
  146SAPE   H6Y16097   5.954   4.903   9.534 -0.6291 -2.5131  1.7795
  146SAPE   C3716098   6.112   4.796   9.420 -0.0798  0.2736  0.9577
  146SAPE   H7X16099   6.058   4.700   9.408  1.7094 -0.5760 -0.6243
  146SAPE   H7Y16100   6.221   4.784   9.432  0.2928  0.9222 -1.3072
  146SAPE   C3816101   6.092   4.891   9.304  0.2505  0.0463 -0.4915
  146SAPE   H8X16102   6.151   4.983   9.324  1.3426 -0.7143 -0.1083
  146SAPE   H8Y16103   5.986   4.924   9.293 -0.0777 -1.0155 -0.6803
  146SAPE   C3916104   6.150   4.836   9.171  0.3579  0.0015  0.0753
  146SAPE   H9X16105   6.252   4.798   9.193  0.8699 -0.6595 -3.0483
  146SAPE   H9Y16106   6.161   4.928   9.111  0.6068 -0.4815 -0.6346
  146SAPE  C31016107   6.064   4.741   9.091  0.1415 -0.2348 -0.1983
  146SAPE  H10X16108   5.962   4.782   9.071 -0.1057 -1.6888 -2.2202
  146SAPE  H10Y16109   6.064   4.640   9.138  2.0864 -0.8815 -1.4704
  146SAPE  C31116110   6.120   4.721   8.946 -0.4592  0.4548  0.0375
  146SAPE  H11X16111   6.223   4.687   8.967 -0.1120  2.3260  1.5867
  146SAPE  H11Y16112   6.114   4.821   8.898 -0.1793  0.2024 -0.5357
  146SAPE  C31216113   6.037   4.622   8.868 -0.2575  0.1553 -0.1132
  146SAPE  H12X16114   5.927   4.634   8.882 -0.3027 -0.0897 -0.2479
  146SAPE  H12Y16115   6.063   4.530   8.925  0.3142  0.7669  0.6327
  146SAPE  C31316116   6.063   4.605   8.719  0.3728  0.2018 -0.6639
  146SAPE  H13X16117   6.071   4.705   8.673  3.0815  1.4016  2.0543
  146SAPE  H13Y16118   5.993   4.537   8.666 -1.1565  0.7084  0.6182
  146SAPE  C31416119   6.208   4.551   8.707  0.4775  0.1031  0.2988
  146SAPE  H14X16120   6.222   4.442   8.720  1.3145  0.0475 -0.9001
  146SAPE  H14Y16121   6.273   4.609   8.776  0.9337  1.3364 -1.1083
  146SAPE  C31516122   6.258   4.550   8.555  0.1623  0.0665  0.1706
  146SAPE  H15X16123   6.227   4.649   8.515 -1.8844  0.1196  1.7047
  146SAPE  H15Y16124   6.194   4.469   8.514  1.0066 -0.2803 -0.4745
  146SAPE  C31616125   6.403   4.512   8.529  0.6111  0.0106  0.7968
  146SAPE  H16X16126   6.420   4.470   8.428 -4.7914  0.0185 -0.4050
  146SAPE  H16Y16127   6.433   4.430   8.598  1.3528 -1.2335 -0.9199
  146SAPE  C31716128   6.514   4.622   8.555 -0.0966 -0.5418  0.1326
  146SAPE  H17X16129   6.526   4.679   8.460  0.8620  1.5741  1.4383
  146SAPE  H17Y16130   6.610   4.569   8.570 -0.7756 -2.5669 -1.9988
  146SAPE  C31816131   6.492   4.721   8.667 -0.0831  0.1372 -0.6851
  146SAPE  H18X16132   6.583   4.782   8.682 -0.9129  0.9337  1.6081
  146SAPE  H18Y16133   6.472   4.661   8.759 -0.6868  2.7074  0.9410
  146SAPE  H18Z16134   6.405   4.790   8.656 -0.6071 -0.0523  1.6700
  147SAPE     N16135   3.827   3.058   5.920  0.1422  0.8750  0.0563
  147SAPE   HN116136   3.830   3.045   5.816  0.7036  0.0615  0.1612
  147SAPE   HN216137   3.922   3.048   5.960 -0.6455  3.3405  2.8561
  147SAPE   HN316138   3.765   2.981   5.952  0.1135  0.6412 -0.5339
  147SAPE   C1216139   3.777   3.186   5.974  0.8421 -0.5013 -0.4665
  147SAPE  H12A16140   3.692   3.220   5.911  0.8430  3.2730  1.2804
  147SAPE  H12B16141   3.868   3.249   5.966  0.4691  0.7336  3.1684
  147SAPE   C1116142   3.735   3.168   6.122  0.0440 -0.0900 -0.6499
  147SAPE  H11A16143   3.721   3.265   6.175 -0.5947 -0.5639  0.0721
  147SAPE  H11B16144   3.813   3.109   6.176 -3.1097 -1.5021  2.7602
  147SAPE     P16145   3.589   2.941   6.155 -0.0697 -0.0722 -0.5883
  147SAPE   O1316146   3.445   2.914   6.169 -0.5250  0.4337  0.1721
  147SAPE   O1416147   3.663   2.878   6.041 -0.3121 -0.6044 -0.1421
  147SAPE   O1216148   3.610   3.093   6.139 -0.0155 -0.7719  0.1312
  147SAPE   O1116149   3.659   2.895   6.291 -0.4786 -0.0904  0.3287
  147SAPE    C116150   3.610   2.945   6.419  0.3576 -0.3029 -1.0081
  147SAPE    HA16151   3.700   2.987   6.468  0.5489  0.0698 -1.6551
  147SAPE    HB16152   3.551   3.039   6.407  2.8355  1.3451 -0.8844
  147SAPE    C216153   3.542   2.844   6.514  0.0563 -0.2967 -0.4151
  147SAPE    HS16154   3.498   2.760   6.455 -2.8078  1.0173 -0.3545
  147SAPE   O2116155   3.428   2.915   6.566 -0.1662  0.4320  0.2981
  147SAPE   C2116156   3.326   2.833   6.600  0.8447  0.6184  0.8790
  147SAPE   O2216157   3.317   2.714   6.591 -0.8125 -0.1839  0.2338
  147SAPE   C2216158   3.219   2.918   6.672  0.3225 -0.5214 -0.0865
  147SAPE   H2R16159   3.268   2.966   6.759  2.1986 -1.4921 -0.5603
  147SAPE   H2S16160   3.196   2.995   6.595 -2.2565 -1.5852 -0.4890
  147SAPE    C316161   3.655   2.798   6.623  0.3844  0.3141 -0.2201
  147SAPE    HX16162   3.702   2.896   6.646 -1.9277  1.6843 -1.0389
  147SAPE    HY16163   3.737   2.738   6.578  0.0469 -0.4297  0.1395
  147SAPE   O3116164   3.593   2.730   6.740 -0.4596  0.1400 -0.8000
  147SAPE   C3116165   3.590   2.599   6.723 -0.1881 -0.0614  0.3496
  147SAPE   O3216166   3.630   2.533   6.625  0.4243 -0.5864 -0.0874
  147SAPE   C3216167   3.518   2.541   6.840 -0.3276  0.6105  0.0525
  147SAPE   H2X16168   3.578   2.566   6.931  1.3888  1.3611 -1.2373
  147SAPE   H2Y16169   3.523   2.430   6.832  0.2458  0.5012  1.5265
  147SAPE   C2316170   3.090   2.835   6.716  0.5051  0.3696 -0.0378
  147SAPE   H3R16171   3.115   2.768   6.801 -2.3685  0.3353  0.8995
  147SAPE   H3S16172   3.051   2.771   6.634 -2.5337  0.7751  0.9498
  147SAPE   C2416173   2.976   2.923   6.768  0.2831 -0.0755  0.6405
  147SAPE   H4R16174   2.939   2.975   6.677 -0.6894 -0.4169  0.8354
  147SAPE   H4S16175   3.018   3.004   6.831  0.3587  1.4760 -1.2978
  147SAPE   C2516176   2.856   2.858   6.832 -0.0979 -0.1996 -0.2472
  147SAPE   H5R16177   2.772   2.853   6.761 -0.4596  1.9378 -0.0639
  147SAPE   C2616178   2.841   2.811   6.956 -0.2254  0.0431  0.7560
  147SAPE   H6R16179   2.743   2.772   6.985  0.5127 -0.4792  2.6912
  147SAPE   C2716180   2.942   2.819   7.064 -0.9174  0.3630 -0.1618
  147SAPE   H7R16181   3.025   2.884   7.028 -0.1249  0.2719  1.4049
  147SAPE   H7S16182   2.999   2.727   7.091 -0.0925  0.4746 -1.4173
  147SAPE   C2816183   2.869   2.874   7.182  0.7253 -0.6746 -0.4125
  147SAPE   H8R16184   2.798   2.956   7.163 -0.9574 -1.6863  1.1095
  147SAPE   C2916185   2.871   2.833   7.310 -0.0719 -0.4511 -0.4391
  147SAPE   H9R16186   2.813   2.897   7.379  0.1674 -0.7619  0.0558
  147SAPE  C21016187   2.938   2.718   7.376 -0.1506 -0.2262 -0.2343
  147SAPE  H10R16188   2.987   2.648   7.303  3.5473  0.4641  1.3346
  147SAPE  H10S16189   2.871   2.661   7.443 -0.3945  1.0578  0.6417
  147SAPE  C21116190   3.053   2.766   7.464 -0.5687 -0.1561  0.2146
  147SAPE  H11R16191   3.101   2.860   7.433  0.3443 -1.4013 -2.3908
  147SAPE  C21216192   3.108   2.693   7.567 -0.2595  0.3899 -0.4919
  147SAPE  H12R16193   3.181   2.750   7.627  1.4301 -0.1781 -1.9041
  147SAPE  C21316194   3.057   2.560   7.620  0.1550 -0.1582  0.3643
  147SAPE  H13R16195   3.085   2.483   7.545  0.2568 -0.0493  0.2918
  147SAPE  H13S16196   2.946   2.562   7.631 -0.0250  3.1193 -1.0139
  147SAPE  C21416197   3.109   2.517   7.755 -0.0508  0.1672  0.3777
  147SAPE  H14R16198   3.178   2.432   7.742 -2.3187 -1.5743 -1.0447
  147SAPE  C21516199   3.081   2.569   7.875 -0.2899  0.9586 -0.1014
  147SAPE  H15R16200   3.116   2.508   7.959  1.3816  0.6609 -0.9722
  147SAPE  C21616201   2.983   2.680   7.897 -0.5512 -0.1527 -0.4545
  147SAPE  H16R16202   2.891   2.628   7.930 -0.9139  0.4897 -0.4329
  147SAPE  H16S16203   2.954   2.730   7.801 -0.2461  1.3152  0.1889
  147SAPE  C21716204   3.041   2.776   8.001  0.0196 -0.1106 -0.2126
  147SAPE  H17R16205   2.972   2.863   8.011 -0.6776 -0.6621 -0.2026
  147SAPE  H17S16206   3.133   2.809   7.947  0.6091 -0.6187  0.4547
  147SAPE  C21816207   3.080   2.706   8.139  0.6648 -0.2598  0.5465
  147SAPE  H18R16208   3.171   2.645   8.119  0.7972  0.0592  0.1511
  147SAPE  H18S16209   3.003   2.632   8.171 -0.4123  0.2052 -0.8364
  147SAPE  C21916210   3.106   2.803   8.255  0.0499 -0.1568 -0.4786
  147SAPE  H19R16211   3.011   2.853   8.284 -0.5144 -0.9597 -0.9257
  147SAPE  H19S16212   3.180   2.878   8.220 -0.3402  0.9086  0.8786
  147SAPE  C22016213   3.146   2.740   8.390  0.2899  0.6495  0.2566
  147SAPE  H20R16214   3.067   2.681   8.441  1.4870 -1.0231  0.2415
  147SAPE  H20S16215   3.188   2.817   8.458 -0.7816  2.8731 -1.4690
  147SAPE  H20T16216   3.216   2.657   8.368 -0.7572  0.0096 -0.8205
  147SAPE   C3316217   3.376   2.602   6.863 -0.0932  0.6997 -0.4236
  147SAPE   H3X16218   3.313   2.572   6.777 -0.5796  1.7064 -0.4391
  147SAPE   H3Y16219   3.395   2.711   6.849 -2.3163  1.0482 -1.1938
  147SAPE   C3416220   3.309   2.582   6.994  0.3765  1.1636 -0.0841
  147SAPE   H4X16221   3.311   2.471   7.004 -3.5298  0.9848  0.0273
  147SAPE   H4Y16222   3.203   2.613   6.985  0.0022 -0.2490 -0.8873
  147SAPE   C3516223   3.373   2.677   7.095  0.0327 -0.0797 -0.5595
  147SAPE   H5X16224   3.362   2.782   7.059  1.3472  0.3148  0.1284
  147SAPE   H5Y16225   3.481   2.656   7.102 -0.0118  0.0734  0.8585
  147SAPE   C3616226   3.302   2.681   7.234  0.4760  0.0203  0.3698
  147SAPE   H6X16227   3.193   2.702   7.228 -0.1670 -2.8946  0.4067
  147SAPE   H6Y16228   3.354   2.762   7.289 -0.6612 -0.0339  1.5484
  147SAPE   C3716229   3.312   2.548   7.312  0.4755 -0.4000 -0.0330
  147SAPE   H7X16230   3.292   2.468   7.239 -0.9188 -2.0564  2.0430
  147SAPE   H7Y16231   3.237   2.543   7.394  3.0554  1.7337  2.7118
  147SAPE   C3816232   3.444   2.534   7.383 -1.0003  0.2036 -0.4461
  147SAPE   H8X16233   3.474   2.615   7.452  0.5330 -1.9084  1.5408
  147SAPE   H8Y16234   3.519   2.533   7.300  0.4069 -0.6880  0.7940
  147SAPE   C3916235   3.466   2.401   7.467  0.1573  1.2197  0.8115
  147SAPE   H9X16236   3.462   2.322   7.389 -0.0631  1.1010  0.9452
  147SAPE   H9Y16237   3.381   2.379   7.535 -0.4915 -2.6406 -1.0110
  147SAPE  C31016238   3.606   2.387   7.531  0.1508 -0.2977 -0.5698
  147SAPE  H10X16239   3.680   2.433   7.462 -0.4090  1.5117 -0.0168
  147SAPE  H10Y16240   3.621   2.278   7.549 -1.0078 -0.4176 -0.2253
  147SAPE  C31116241   3.610   2.461   7.667  1.2795 -0.2629  0.3069
  147SAPE  H11X16242   3.524   2.428   7.729 -0.1432  1.3976 -0.6730
  147SAPE  H11Y16243   3.582   2.568   7.663  1.5000 -0.1230  1.7336
  147SAPE  C31216244   3.738   2.452   7.748 -0.1551 -0.4150  0.4800
  147SAPE  H12X16245   3.814   2.511   7.692 -1.2490  1.0423  0.4738
  147SAPE  H12Y16246   3.758   2.344   7.769  2.3325  0.0746  0.9245
  147SAPE  C31316247   3.720   2.516   7.888  0.5528 -0.4303 -0.1433
  147SAPE  H13X16248   3.693   2.624   7.892 -0.4021 -0.5648 -1.7745
  147SAPE  H13Y16249   3.828   2.515   7.911  0.5056  0.1890  0.1090
  147SAPE  C31416250   3.646   2.429   7.992  0.6923  0.9649  0.7059
  147SAPE  H14X16251   3.672   2.321   7.989  1.6590  1.1654  1.3115
  147SAPE  H14Y16252   3.537   2.438   7.976  0.4727  1.2064  2.2392
  147SAPE  C31516253   3.670   2.482   8.130 -0.1172  0.3932 -1.0035
  147SAPE  H15X16254   3.588   2.556   8.144  1.5282  2.3182 -1.1629
  147SAPE  H15Y16255   3.763   2.543   8.128 -0.1785  1.0960  3.7989
  147SAPE  C31616256   3.683   2.366   8.231  0.0922  0.1904 -0.9600
  147SAPE  H16X16257   3.784   2.319   8.225  0.3269  0.4305  0.6816
  147SAPE  H16Y16258   3.604   2.297   8.194 -0.0557  0.0974 -0.4718
  147SAPE  C31716259   3.616   2.397   8.373 -0.1851  0.6585 -0.5337
  147SAPE  H17X16260   3.527   2.459   8.353 -0.7594 -0.2837 -0.9807
  147SAPE  H17Y16261   3.693   2.455   8.429 -1.2127  1.4600  0.0769
  147SAPE  C31816262   3.574   2.282   8.464  0.7314 -0.3589 -0.0699
  147SAPE  H18X16263   3.511   2.321   8.547  0.3006 -1.4010  0.1144
  147SAPE  H18Y16264   3.660   2.226   8.507  0.7885 -0.1361  0.1070
  147SAPE  H18Z16265   3.507   2.209   8.413  0.8377  0.3831 -1.3271
  148SAPE     N16266   2.369   6.218   6.585  0.5412  0.4760 -0.4780
  148SAPE   HN116267   2.422   6.269   6.658 -1.0025  2.8431 -0.8640
  148SAPE   HN216268   2.314   6.135   6.614  0.3189 -0.0164 -2.1934
  148SAPE   HN316269   2.438   6.193   6.511  0.8243  0.1477 -0.1023
  148SAPE   C1216270   2.265   6.312   6.525  0.2298  0.2192 -0.5024
  148SAPE  H12A16271   2.236   6.284   6.421 -0.9258  0.5696 -0.2925
  148SAPE  H12B16272   2.316   6.410   6.522  1.4242 -0.3098  1.1201
  148SAPE   C1116273   2.140   6.316   6.614  0.0294 -0.3600  0.6691
  148SAPE  H11A16274   2.184   6.328   6.716 -0.4508 -1.7791  1.0746
  148SAPE  H11B16275   2.079   6.223   6.619 -2.0952  0.8990 -0.5142
  148SAPE     P16276   1.932   6.413   6.492  0.1804 -0.6485  0.0968
  148SAPE   O1316277   1.876   6.549   6.456 -0.3487  0.0822 -0.0121
  148SAPE   O1416278   1.964   6.317   6.381 -0.6570 -0.2125  0.0749
  148SAPE   O1216279   2.063   6.435   6.576 -0.6040 -0.2841  0.9062
  148SAPE   O1116280   1.835   6.337   6.601  0.4290 -0.5473  0.0273
  148SAPE    C116281   1.771   6.418   6.700  0.1357  0.0800  0.4421
  148SAPE    HA16282   1.734   6.519   6.672  0.0837 -0.1357 -0.2888
  148SAPE    HB16283   1.688   6.350   6.728  0.9203 -0.2538  2.0523
  148SAPE    C216284   1.851   6.451   6.831 -0.2052  1.4363 -0.6304
  148SAPE    HS16285   1.945   6.504   6.807  0.7932  0.3317  0.6430
  148SAPE   O2116286   1.899   6.323   6.878 -0.0545 -0.4601 -0.0428
  148SAPE   C2116287   2.009   6.319   6.953  0.8950  0.3163  0.0256
  148SAPE   O2216288   2.080   6.420   6.974 -0.0939  0.1906  0.1284
  148SAPE   C2216289   2.030   6.173   7.002 -0.6762 -0.2580  0.4747
  148SAPE   H2R16290   2.004   6.175   7.110  2.5594  0.6081  1.3453
  148SAPE   H2S16291   1.964   6.105   6.945 -1.3233 -0.3981  1.3675
  148SAPE    C316292   1.775   6.528   6.948  0.1897  0.1924  0.2258
  148SAPE    HX16293   1.739   6.622   6.900 -0.3188 -0.1691 -0.1060
  148SAPE    HY16294   1.853   6.556   7.023 -0.0517  2.7155 -0.3685
  148SAPE   O3116295   1.657   6.469   7.008 -0.2343 -0.1747 -0.5007
  148SAPE   C3116296   1.689   6.371   7.100  0.9501 -0.1383 -0.4459
  148SAPE   O3216297   1.793   6.371   7.164 -0.4074 -0.0098  0.0053
  148SAPE   C3216298   1.565   6.283   7.128  0.4426  1.1416  0.1379
  148SAPE   H2X16299   1.527   6.246   7.030  3.8194 -0.1801 -0.8339
  148SAPE   H2Y16300   1.498   6.351   7.184 -1.3270  1.0105 -1.6840
  148SAPE   C2316301   2.185   6.135   6.991  0.3748 -0.3259  0.1423
  148SAPE   H3R16302   2.224   6.195   6.906  0.5718 -0.2891  0.2593
  148SAPE   H3S16303   2.188   6.024   6.980  0.4037 -0.3007 -0.1163
  148SAPE   C2416304   2.272   6.162   7.115 -0.1700 -0.8818 -0.8714
  148SAPE   H4R16305   2.349   6.082   7.115  3.1432  2.0926 -1.0472
  148SAPE   H4S16306   2.208   6.149   7.205  1.5663  2.5168  1.0266
  148SAPE   C2516307   2.340   6.300   7.129 -0.7173 -0.1711 -0.9217
  148SAPE   H5R16308   2.387   6.334   7.035  1.7711 -5.0858 -1.7647
  148SAPE   C2616309   2.330   6.383   7.239  1.1701 -0.0998  0.0689
  148SAPE   H6R16310   2.379   6.481   7.239  0.5824  0.3182  3.7290
  148SAPE   C2716311   2.253   6.364   7.364 -0.4936  0.7162 -0.5826
  148SAPE   H7R16312   2.171   6.292   7.345  0.7082 -0.7740 -0.3073
  148SAPE   H7S16313   2.209   6.459   7.401 -0.2582  0.5195  0.2213
  148SAPE   C2816314   2.345   6.303   7.472  0.1937 -0.0767  0.0545
  148SAPE   H8R16315   2.407   6.222   7.430 -1.7352 -0.4303 -2.3560
  148SAPE   C2916316   2.366   6.350   7.594 -0.0636 -0.2728  0.1718
  148SAPE   H9R16317   2.445   6.302   7.654  0.6960  3.7050  2.7500
  148SAPE  C21016318   2.318   6.474   7.664  0.0300  0.4465  0.2859
  148SAPE  H10R16319   2.228   6.448   7.724 -0.9203 -1.0284 -1.6736
  148SAPE  H10S16320   2.263   6.539   7.594 -1.3982 -0.8289  0.1798
  148SAPE  C21116321   2.411   6.564   7.739  0.2256  0.0148  0.0737
  148SAPE  H11R16322   2.430   6.662   7.693  0.8266  0.0949  0.4766
  148SAPE  C21216323   2.457   6.525   7.861 -0.3330 -0.6539  0.4561
  148SAPE  H12R16324   2.523   6.591   7.920 -0.0805 -1.8334  1.5316
  148SAPE  C21316325   2.436   6.391   7.935 -0.0716  0.2536  0.2428
  148SAPE  H13R16326   2.530   6.370   7.990 -0.4659 -1.5931  0.2616
  148SAPE  H13S16327   2.434   6.313   7.856 -0.0773 -1.0105  1.4460
  148SAPE  C21416328   2.327   6.393   8.039 -0.1682 -0.5611 -0.0659
  148SAPE  H14R16329   2.273   6.489   8.045  3.9316  2.2028 -2.6986
  148SAPE  C21516330   2.294   6.285   8.115  0.6043 -1.1262 -1.1092
  148SAPE  H15R16331   2.235   6.302   8.206  0.1765  1.3245 -1.7827
  148SAPE  C21616332   2.359   6.149   8.117 -0.0324  0.3998 -1.0021
  148SAPE  H16R16333   2.432   6.151   8.201 -1.5310 -0.0626  0.3495
  148SAPE  H16S16334   2.412   6.141   8.019  2.0855 -0.9874  0.1831
  148SAPE  C21716335   2.274   6.020   8.123 -0.3785 -0.5364 -0.0311
  148SAPE  H17R16336   2.335   5.931   8.097 -1.3929 -1.4293  0.5473
  148SAPE  H17S16337   2.185   6.023   8.057 -0.7233 -1.9368  0.3499
  148SAPE  C21816338   2.222   5.989   8.264  1.0589 -0.2441 -0.3331
  148SAPE  H18R16339   2.152   5.902   8.260  0.6133  0.1448 -1.1190
  148SAPE  H18S16340   2.163   6.075   8.302  2.3823  0.7431 -0.4362
  148SAPE  C21916341   2.330   5.962   8.370 -0.5297 -0.1397  0.7408
  148SAPE  H19R16342   2.394   6.051   8.387  0.1046 -0.7874  1.8645
  148SAPE  H19S16343   2.391   5.882   8.324  0.9145  0.5499  1.4007
  148SAPE  C22016344   2.280   5.910   8.504  0.2531 -0.4076 -0.3839
  148SAPE  H20R16345   2.362   5.906   8.578 -0.6296  0.3342  0.6806
  148SAPE  H20S16346   2.252   5.805   8.480 -0.0779 -0.4423  0.1297
  148SAPE  H20T16347   2.195   5.974   8.537  0.3048  0.8364 -2.4839
  148SAPE   C3316348   1.584   6.158   7.220 -0.1505  0.2802  1.0099
  148SAPE   H3X16349   1.673   6.105   7.179  0.1565  2.6879 -1.7195
  148SAPE   H3Y16350   1.491   6.099   7.209 -0.9467  1.5424  0.8452
  148SAPE   C3416351   1.596   6.194   7.368 -0.0907 -0.1321  0.1696
  148SAPE   H4X16352   1.507   6.239   7.418 -0.0863  1.0577 -0.8368
  148SAPE   H4Y16353   1.671   6.275   7.351  0.1328 -0.5238 -0.7848
  148SAPE   C3516354   1.657   6.090   7.461  0.3223  0.0914 -0.5207
  148SAPE   H5X16355   1.728   6.026   7.404 -0.0143 -1.4155  0.6689
  148SAPE   H5Y16356   1.570   6.030   7.495 -0.0709  0.8056 -0.2489
  148SAPE   C3616357   1.731   6.149   7.582 -0.1989  0.5866  0.2806
  148SAPE   H6X16358   1.750   6.061   7.647  1.3512  0.4373 -0.3360
  148SAPE   H6Y16359   1.653   6.198   7.644 -1.1882  0.4195 -0.7803
  148SAPE   C3716360   1.856   6.235   7.548 -0.0060 -0.1981 -0.0618
  148SAPE   H7X16361   1.830   6.342   7.537 -1.1158 -0.1089  2.6500
  148SAPE   H7Y16362   1.898   6.188   7.457  0.2948  0.8327 -0.4769
  148SAPE   C3816363   1.960   6.248   7.662 -0.0373  0.0083 -0.8097
  148SAPE   H8X16364   2.035   6.323   7.628 -0.2175 -0.0193 -1.2750
  148SAPE   H8Y16365   2.022   6.156   7.668  2.5641  1.6747 -0.6431
  148SAPE   C3916366   1.895   6.293   7.795 -0.1896  0.4294 -0.6855
  148SAPE   H9X16367   1.800   6.239   7.817 -0.6174  0.8352 -1.4796
  148SAPE   H9Y16368   1.859   6.397   7.780  1.3460  1.1281  0.1625
  148SAPE  C31016369   1.994   6.304   7.916  0.9297  0.1630  0.3127
  148SAPE  H10X16370   2.071   6.381   7.894  0.2985  1.1239  1.3500
  148SAPE  H10Y16371   2.051   6.208   7.919  2.8585  1.1701 -1.2599
  148SAPE  C31116372   1.933   6.337   8.055  0.1088  0.4055  0.4194
  148SAPE  H11X16373   1.858   6.418   8.045  0.9246  0.9714 -1.7229
  148SAPE  H11Y16374   2.020   6.365   8.117  1.7600 -1.5237 -0.8855
  148SAPE  C31216375   1.869   6.215   8.128 -0.1101  0.7605  0.0235
  148SAPE  H12X16376   1.946   6.135   8.119 -0.3832  0.7230 -2.4996
  148SAPE  H12Y16377   1.788   6.180   8.061  0.7951 -0.9190 -0.2570
  148SAPE  C31316378   1.822   6.243   8.272  0.0159  0.0093  0.6405
  148SAPE  H13X16379   1.909   6.272   8.334 -0.7246  1.9774  0.8078
  148SAPE  H13Y16380   1.773   6.152   8.315  0.2439  0.1794  1.2831
  148SAPE  C31416381   1.717   6.351   8.284  0.5105  0.3048  0.1694
  148SAPE  H14X16382   1.623   6.320   8.234  1.0946 -1.1208 -0.0860
  148SAPE  H14Y16383   1.760   6.445   8.242  1.4184 -1.0137 -2.0238
  148SAPE  C31516384   1.691   6.386   8.436 -0.5797 -0.1752  0.6052
  148SAPE  H15X16385   1.789   6.417   8.478 -1.6194  2.6523  1.1872
  148SAPE  H15Y16386   1.651   6.294   8.483 -0.6265 -1.1675 -1.3002
  148SAPE  C31616387   1.604   6.509   8.456 -0.8244  0.6545 -0.0201
  148SAPE  H16X16388   1.497   6.479   8.461 -0.8307  0.4005 -1.3775
  148SAPE  H16Y16389   1.598   6.565   8.361  1.6921  1.9826  0.4926
  148SAPE  C31716390   1.653   6.593   8.576  0.8122  0.6115 -0.4793
  148SAPE  H17X16391   1.722   6.672   8.540  0.9424  0.4452 -0.5937
  148SAPE  H17Y16392   1.699   6.518   8.644 -0.1992 -0.9662 -1.4599
  148SAPE  C31816393   1.527   6.648   8.649 -0.0657 -0.0137 -0.0802
  148SAPE  H18X16394   1.455   6.566   8.670  0.3504 -0.7730 -1.4714
  148SAPE  H18Y16395   1.468   6.712   8.580 -2.4198 -1.8979  0.0701
  148SAPE  H18Z16396   1.557   6.701   8.741 -0.9432  2.0558 -0.9128
  149SAPE     N16397   1.938   0.913   5.891 -0.3797 -0.3918  0.2155
  149SAPE   HN116398   1.994   0.838   5.934 -2.5241 -0.9528  2.2879
  149SAPE   HN216399   1.849   0.908   5.945 -0.6347 -0.8061 -0.2349
  149SAPE   HN316400   1.917   0.878   5.796  0.8113  0.7486 -0.5022
  149SAPE   C1216401   2.005   1.046   5.885 -0.6063 -0.1047 -0.3955
  149SAPE  H12A16402   1.938   1.131   5.861  0.0916  0.5119 -0.2287
  149SAPE  H12B16403   2.086   1.033   5.811  1.1889 -0.1611  1.4687
  149SAPE   C1116404   2.064   1.085   6.030 -0.8720 -0.1139 -0.0525
  149SAPE  H11A16405   2.117   1.180   6.004 -2.5210  0.6800 -0.6791
  149SAPE  H11B16406   2.140   1.010   6.061 -0.0212 -0.5693 -2.9618
  149SAPE     P16407   2.013   1.149   6.274  0.5413  0.3787 -0.1804
  149SAPE   O1316408   2.103   1.269   6.265  0.1556 -0.1826 -0.0454
  149SAPE   O1416409   1.892   1.166   6.354  0.2931 -0.0246  0.0194
  149SAPE   O1216410   1.963   1.112   6.127  0.3842  0.0419 -0.0209
  149SAPE   O1116411   2.100   1.034   6.336 -0.2259  0.1980 -0.3386
  149SAPE    C116412   2.053   0.900   6.370  0.1956 -0.4680 -0.1669
  149SAPE    HA16413   1.973   0.863   6.302 -0.0392  0.4474 -0.4159
  149SAPE    HB16414   2.135   0.827   6.352 -1.0521 -3.1024  3.5495
  149SAPE    C216415   2.024   0.890   6.523  0.4379  0.5073 -0.3863
  149SAPE    HS16416   1.964   0.982   6.538  1.2608  0.8683  0.8440
  149SAPE   O2116417   2.157   0.893   6.578 -0.4566 -0.5772  0.0213
  149SAPE   C2116418   2.193   0.993   6.657  0.5822 -0.4312 -0.3187
  149SAPE   O2216419   2.116   1.078   6.701  0.1908  0.0371  0.4257
  149SAPE   C2216420   2.346   0.999   6.678 -0.0558 -0.1494 -0.1565
  149SAPE   H2R16421   2.389   0.901   6.648  0.9123  0.1383  0.2561
  149SAPE   H2S16422   2.393   1.081   6.620  2.5885 -1.3928  0.0819
  149SAPE    C316423   1.946   0.758   6.560 -0.4716 -0.1052  0.0452
  149SAPE    HX16424   2.016   0.673   6.545  0.9582  1.1828 -0.6907
  149SAPE    HY16425   1.859   0.746   6.492 -0.6888 -0.2336  0.3430
  149SAPE   O3116426   1.917   0.761   6.702  0.1133 -0.8346 -0.0613
  149SAPE   C3116427   1.811   0.842   6.734  0.2594  0.3145 -0.2765
  149SAPE   O3216428   1.748   0.909   6.653 -0.1585  0.1721  0.1034
  149SAPE   C3216429   1.791   0.848   6.886  0.3655  0.2152  0.2994
  149SAPE   H2X16430   1.729   0.936   6.912  0.3906 -0.7010  4.2569
  149SAPE   H2Y16431   1.890   0.853   6.937  1.4007 -1.4326 -1.3841
  149SAPE   C2316432   2.383   1.015   6.826  0.4944 -0.4454  0.4182
  149SAPE   H3R16433   2.321   1.093   6.875 -0.1724 -1.8265  1.8569
  149SAPE   H3S16434   2.489   1.049   6.830  0.7752 -1.2622  0.1678
  149SAPE   C2416435   2.374   0.888   6.914 -0.7405 -0.3015  0.2646
  149SAPE   H4R16436   2.392   0.917   7.020  0.7628 -1.2303  0.2832
  149SAPE   H4S16437   2.461   0.825   6.890 -0.5718 -0.9001  2.2759
  149SAPE   C2516438   2.246   0.808   6.904 -0.1276 -0.0107 -0.3747
  149SAPE   H5R16439   2.247   0.751   6.809  2.1813 -0.3316 -0.2344
  149SAPE   C2616440   2.161   0.800   7.003 -0.3521 -0.0238 -0.3008
  149SAPE   H6R16441   2.073   0.735   6.995 -0.1253 -0.4687  0.6614
  149SAPE   C2716442   2.158   0.864   7.134 -0.5783 -0.2440 -0.4489
  149SAPE   H7R16443   2.053   0.888   7.161 -0.7574 -1.1335 -0.3164
  149SAPE   H7S16444   2.207   0.963   7.123 -2.7543  0.8285 -1.0340
  149SAPE   C2816445   2.223   0.787   7.253  0.6683  0.1127  0.8982
  149SAPE   H8R16446   2.227   0.687   7.206 -2.4267  0.5999 -0.6998
  149SAPE   C2916447   2.247   0.822   7.379 -0.8120  0.2849  0.4721
  149SAPE   H9R16448   2.268   0.739   7.448  1.8731  0.7864  0.3729
  149SAPE  C21016449   2.227   0.959   7.432  0.2121 -0.1431 -0.4986
  149SAPE  H10R16450   2.132   0.952   7.490  1.2055  1.8017  1.5403
  149SAPE  H10S16451   2.212   1.033   7.350 -0.1409 -0.3198 -0.5932
  149SAPE  C21116452   2.341   0.988   7.525 -0.5116 -0.0681 -0.3789
  149SAPE  H11R16453   2.418   1.040   7.465 -1.5424 -0.4354 -2.1002
  149SAPE  C21216454   2.342   0.981   7.661 -0.5773 -0.5642  0.6946
  149SAPE  H12R16455   2.434   1.009   7.715 -1.0855  0.3111  1.1318
  149SAPE  C21316456   2.235   0.925   7.750 -0.1682  0.2807  0.0035
  149SAPE  H13R16457   2.286   0.834   7.788  1.7523  0.4855 -1.8896
  149SAPE  H13S16458   2.158   0.872   7.689  0.6764  1.0774 -1.8255
  149SAPE  C21416459   2.179   1.022   7.851 -0.5699 -0.0488  0.2620
  149SAPE  H14R16460   2.152   1.121   7.810 -0.5996 -1.0302 -2.2421
  149SAPE  C21516461   2.185   1.008   7.984  0.0354  0.2735 -0.2504
  149SAPE  H15R16462   2.132   1.082   8.046  2.0719 -0.8797  3.2095
  149SAPE  C21616463   2.237   0.887   8.055  0.7426 -0.2443  0.3330
  149SAPE  H16R16464   2.248   0.796   7.991  0.1356 -0.0052 -0.1186
  149SAPE  H16S16465   2.155   0.875   8.128  0.3193  0.2799 -0.0466
  149SAPE  C21716466   2.369   0.913   8.128 -0.8148  1.2211  0.2648
  149SAPE  H17R16467   2.360   0.984   8.213 -0.1263 -0.8578  2.1515
  149SAPE  H17S16468   2.453   0.935   8.058  0.2876 -1.2634  0.7003
  149SAPE  C21816469   2.413   0.776   8.199 -0.2784  0.1855  0.3639
  149SAPE  H18R16470   2.454   0.723   8.111  0.2906  2.1739 -0.6323
  149SAPE  H18S16471   2.324   0.725   8.243  0.3300  1.7413  3.7469
  149SAPE  C21916472   2.526   0.787   8.304 -0.0925  0.1731 -0.0269
  149SAPE  H19R16473   2.484   0.854   8.381  1.8891  0.6046  0.7390
  149SAPE  H19S16474   2.616   0.833   8.258  0.4958 -0.4858  0.4445
  149SAPE  C22016475   2.570   0.658   8.372 -0.6481  0.3441 -0.0480
  149SAPE  H20R16476   2.492   0.616   8.439 -0.7690 -1.5562 -1.3056
  149SAPE  H20S16477   2.652   0.677   8.444 -0.3396 -0.1500 -0.2610
  149SAPE  H20T16478   2.612   0.578   8.309 -0.5231  0.1522  0.2785
  149SAPE   C3316479   1.728   0.717   6.941 -0.0080 -0.3396  0.1833
  149SAPE   H3X16480   1.807   0.640   6.939 -0.4848 -0.8274 -1.2689
  149SAPE   H3Y16481   1.651   0.690   6.866 -1.5468  2.7687  0.4486
  149SAPE   C3416482   1.669   0.745   7.079 -0.2276  0.1090 -0.4023
  149SAPE   H4X16483   1.606   0.666   7.126  0.5847 -1.0903 -1.3009
  149SAPE   H4Y16484   1.612   0.841   7.073 -3.8823 -1.6618  2.2443
  149SAPE   C3516485   1.779   0.765   7.187 -0.4363  0.3671 -0.1510
  149SAPE   H5X16486   1.838   0.856   7.162  0.6569 -0.7066 -1.6687
  149SAPE   H5Y16487   1.846   0.676   7.187  0.0723  0.7424 -1.1302
  149SAPE   C3616488   1.721   0.788   7.330 -0.0398 -0.2002  0.4308
  149SAPE   H6X16489   1.659   0.700   7.356  1.6180 -1.4210  0.3393
  149SAPE   H6Y16490   1.662   0.882   7.335 -0.4511 -0.4121 -0.3347
  149SAPE   C3716491   1.822   0.797   7.440  0.8826  0.7196 -0.9627
  149SAPE   H7X16492   1.907   0.862   7.412  2.0955 -0.8549 -1.0891
  149SAPE   H7Y16493   1.865   0.694   7.434 -1.5328 -0.3283 -1.3183
  149SAPE   C3816494   1.760   0.829   7.573 -0.0243  0.6999 -0.0231
  149SAPE   H8X16495   1.695   0.746   7.609  0.7522 -1.3528 -2.9759
  149SAPE   H8Y16496   1.705   0.924   7.565 -0.5383  0.3943 -0.1589
  149SAPE   C3916497   1.865   0.844   7.683 -0.8268  0.2961  0.4179
  149SAPE   H9X16498   1.925   0.933   7.655 -0.6746 -0.0319 -0.3400
  149SAPE   H9Y16499   1.935   0.758   7.692 -2.2303 -1.0099 -0.4993
  149SAPE  C31016500   1.803   0.884   7.815  0.7086  0.2681 -0.9512
  149SAPE  H10X16501   1.894   0.888   7.879  0.8003  1.1253 -1.1213
  149SAPE  H10Y16502   1.734   0.804   7.848  1.6928 -0.0917  0.3320
  149SAPE  C31116503   1.742   1.028   7.823  0.0875  0.4547  0.5620
  149SAPE  H11X16504   1.642   1.038   7.775 -0.0431  1.7868  1.0484
  149SAPE  H11Y16505   1.813   1.098   7.774 -0.0449 -0.1477 -0.5208
  149SAPE  C31216506   1.742   1.080   7.970  0.2179  1.0773 -0.5549
  149SAPE  H12X16507   1.690   1.177   7.985 -0.5080  0.7159 -0.7003
  149SAPE  H12Y16508   1.847   1.098   8.000  0.2269 -0.8178  0.7278
  149SAPE  C31316509   1.671   0.977   8.065  0.0587  0.5480 -0.2200
  149SAPE  H13X16510   1.734   0.886   8.063 -2.1805 -1.0718 -1.7651
  149SAPE  H13Y16511   1.566   0.966   8.030  0.0372  1.3527 -0.4484
  149SAPE  C31416512   1.652   1.027   8.210  0.1643  0.1366 -0.5563
  149SAPE  H14X16513   1.616   0.934   8.259  0.6279  0.4459  0.3949
  149SAPE  H14Y16514   1.572   1.104   8.215  0.4433  0.3712  0.8222
  149SAPE  C31516515   1.781   1.071   8.292 -0.2475 -0.5875 -0.2180
  149SAPE  H15X16516   1.742   1.125   8.381 -1.5686  1.9927 -2.2264
  149SAPE  H15Y16517   1.833   1.151   8.234  0.1132 -0.7166 -0.0763
  149SAPE  C31616518   1.859   0.947   8.325  0.4741  0.1385 -0.6119
  149SAPE  H16X16519   1.871   0.885   8.233 -0.6441  0.5597 -1.0650
  149SAPE  H16Y16520   1.798   0.885   8.394 -0.2988 -1.8070 -2.8823
  149SAPE  C31716521   1.997   0.966   8.380  0.2358  0.8123 -0.6730
  149SAPE  H17X16522   1.990   1.015   8.479  1.6989 -0.1850 -0.0347
  149SAPE  H17Y16523   2.049   1.029   8.305 -1.1750  2.9545  0.0606
  149SAPE  C31816524   2.066   0.827   8.401 -0.6062  0.5841 -0.1245
  149SAPE  H18X16525   2.169   0.848   8.437 -2.1597  3.4993  3.2526
  149SAPE  H18Y16526   2.062   0.778   8.302 -2.6133  0.0522  0.1613
  149SAPE  H18Z16527   2.014   0.767   8.479  1.7390 -0.9610  0.3345
  150SAPE     N16528   1.258   1.894   6.203  0.2148  0.4413 -0.0649
  150SAPE   HN116529   1.286   1.991   6.177 -0.9060  0.3933 -1.6418
  150SAPE   HN216530   1.272   1.834   6.119  0.3680 -2.9404  2.1815
  150SAPE   HN316531   1.155   1.893   6.220  0.2750  1.2663  0.3707
  150SAPE   C1216532   1.318   1.831   6.329  0.1300  0.4470 -0.7069
  150SAPE  H12A16533   1.421   1.872   6.326 -0.0527  0.8991 -0.8003
  150SAPE  H12B16534   1.333   1.722   6.313  2.2012  0.8793 -2.1325
  150SAPE   C1116535   1.235   1.862   6.460 -0.2667  0.6807  0.6833
  150SAPE  H11A16536   1.300   1.843   6.549  1.0430  0.2550 -0.3341
  150SAPE  H11B16537   1.150   1.791   6.471  2.0736 -2.1633  1.8179
  150SAPE     P16538   1.211   2.102   6.563  0.2878 -0.4054 -0.0201
  150SAPE   O1316539   1.353   2.129   6.592 -0.3427 -0.2640  0.5416
  150SAPE   O1416540   1.133   2.220   6.519  0.1506 -0.2419 -0.1468
  150SAPE   O1216541   1.201   1.997   6.447  0.1975 -0.1708 -0.4116
  150SAPE   O1116542   1.142   2.031   6.687 -0.3436 -0.1280  0.6194
  150SAPE    C116543   1.022   1.956   6.686  0.1822 -0.0425  0.3865
  150SAPE    HA16544   1.033   1.863   6.626 -1.2782  0.0658 -0.0812
  150SAPE    HB16545   1.018   1.902   6.783  3.1045 -2.6539 -0.7560
  150SAPE    C216546   0.888   2.023   6.645 -0.4933  0.0494 -0.2647
  150SAPE    HS16547   0.901   2.059   6.540 -1.4077  1.0420 -0.0641
  150SAPE   O2116548   0.852   2.131   6.741  0.0037 -0.3279 -0.3762
  150SAPE   C2116549   0.823   2.242   6.675  0.9109  0.0690  0.5319
  150SAPE   O2216550   0.806   2.251   6.554  0.5939 -0.2288 -0.1905
  150SAPE   C2216551   0.793   2.347   6.774  0.3430 -1.1519 -0.4994
  150SAPE   H2R16552   0.734   2.424   6.719  2.1204  0.5478 -0.1187
  150SAPE   H2S16553   0.721   2.312   6.851 -0.4482  1.8704  0.2954
  150SAPE    C316554   0.776   1.921   6.659 -0.0224 -0.5170  0.3076
  150SAPE    HX16555   0.772   1.841   6.582 -1.9315 -1.6769  1.5523
  150SAPE    HY16556   0.680   1.977   6.664 -0.6992 -1.7152  1.2784
  150SAPE   O3116557   0.802   1.853   6.789  0.4917  0.4331  0.7885
  150SAPE   C3116558   0.686   1.788   6.831 -0.7093  0.4824 -0.5146
  150SAPE   O3216559   0.586   1.781   6.759  0.0046 -0.1866 -0.0427
  150SAPE   C3216560   0.720   1.750   6.979  0.5701 -0.1615  0.4282
  150SAPE   H2X16561   0.732   1.842   7.040 -1.2605  0.8462 -0.6500
  150SAPE   H2Y16562   0.824   1.711   6.988  1.1120  0.0737 -3.2094
  150SAPE   C2316563   0.922   2.412   6.847  0.4335  0.0733 -0.8309
  150SAPE   H3R16564   0.979   2.465   6.768 -1.1334  2.5013 -0.4087
  150SAPE   H3S16565   0.992   2.337   6.889 -0.5317  0.2304  1.1555
  150SAPE   C2416566   0.874   2.517   6.950  0.3735  0.8735 -0.2409
  150SAPE   H4R16567   0.792   2.581   6.909 -0.2333 -0.2663 -0.8476
  150SAPE   H4S16568   0.956   2.587   6.976  0.2690  0.3706  1.6164
  150SAPE   C2516569   0.819   2.466   7.074 -0.6691  0.2239  0.4512
  150SAPE   H5R16570   0.750   2.383   7.054 -0.8399  0.0763  1.5592
  150SAPE   C2616571   0.852   2.498   7.202  0.1797  0.3982 -0.2923
  150SAPE   H6R16572   0.797   2.444   7.280  4.7852 -3.4025  0.7937
  150SAPE   C2716573   0.957   2.596   7.245  0.3501  0.1030  0.1826
  150SAPE   H7R16574   0.892   2.686   7.256 -3.0870 -1.9968 -1.1792
  150SAPE   H7S16575   1.025   2.620   7.161  0.0308 -1.2113 -0.4825
  150SAPE   C2816576   1.035   2.550   7.365  0.4829 -0.3954  0.0022
  150SAPE   H8R16577   1.121   2.487   7.338  1.5682  0.7291  0.7552
  150SAPE   C2916578   1.013   2.583   7.492  0.0366 -0.2558 -1.1642
  150SAPE   H9R16579   1.079   2.540   7.568  0.0572  0.4908 -0.7490
  150SAPE  C21016580   0.889   2.664   7.535  0.4476  0.3858 -0.0125
  150SAPE  H10R16581   0.824   2.683   7.447  2.2785  1.3684 -1.2136
  150SAPE  H10S16582   0.921   2.767   7.561 -0.6571  0.8967 -0.6214
  150SAPE  C21116583   0.813   2.608   7.646 -0.0497  0.2598  0.4221
  150SAPE  H11R16584   0.717   2.565   7.612 -0.5887  0.5390  1.5520
  150SAPE  C21216585   0.837   2.618   7.777  0.4624 -1.1767 -0.0483
  150SAPE  H12R16586   0.763   2.566   7.839 -0.7848  0.3425 -0.2079
  150SAPE  C21316587   0.946   2.691   7.854 -0.0791  0.4138 -0.2485
  150SAPE  H13R16588   1.036   2.685   7.790  0.9361  1.6057  0.9860
  150SAPE  H13S16589   0.955   2.632   7.948 -2.5699  0.3609  0.0297
  150SAPE  C21416590   0.914   2.836   7.884  0.0374  0.7083  0.2139
  150SAPE  H14R16591   0.842   2.877   7.811  0.5608  0.3838 -0.4973
  150SAPE  C21516592   0.963   2.908   7.981  0.2908 -0.0221 -1.0290
  150SAPE  H15R16593   0.925   3.010   7.994  0.5041  0.0257 -0.7698
  150SAPE  C21616594   1.064   2.853   8.084  1.1239  0.5580  0.3314
  150SAPE  H16R16595   1.159   2.911   8.087  1.9456 -0.7355  0.3538
  150SAPE  H16S16596   1.110   2.756   8.056 -0.1521  0.0794 -0.1608
  150SAPE  C21716597   1.011   2.828   8.229  0.0963 -0.0157 -0.2201
  150SAPE  H17R16598   0.937   2.745   8.221 -0.1254  0.2018 -0.3982
  150SAPE  H17S16599   0.960   2.913   8.279  1.7228 -0.2915  2.0617
  150SAPE  C21816600   1.127   2.795   8.335  0.7367  0.1715  0.0284
  150SAPE  H18R16601   1.084   2.767   8.433 -1.1879  0.9800 -0.5314
  150SAPE  H18S16602   1.193   2.884   8.338 -0.3818  1.0806 -0.9136
  150SAPE  C21916603   1.207   2.670   8.301  0.0511  0.1683  0.3444
  150SAPE  H19R16604   1.250   2.697   8.202 -0.7616  0.6055  0.1004
  150SAPE  H19S16605   1.141   2.583   8.283 -0.6043  0.2653  2.0825
  150SAPE  C22016606   1.301   2.636   8.414 -0.0240  0.8593 -0.6705
  150SAPE  H20R16607   1.337   2.733   8.453  2.5441  0.1939 -1.1897
  150SAPE  H20S16608   1.388   2.580   8.375 -0.4359  0.9119 -1.6912
  150SAPE  H20T16609   1.250   2.593   8.503  2.1615  0.5715  0.5154
  150SAPE   C3316610   0.622   1.650   7.041  0.3826 -0.1488 -0.6404
  150SAPE   H3X16611   0.649   1.544   7.019  0.9084  0.3055 -2.3826
  150SAPE   H3Y16612   0.516   1.664   7.012  0.0988  0.2022  0.5064
  150SAPE   C3416613   0.606   1.674   7.193  0.0469  0.2655 -0.0259
  150SAPE   H4X16614   0.508   1.625   7.211  0.4167 -1.4323 -2.2259
  150SAPE   H4Y16615   0.606   1.783   7.215 -0.1794  0.2438  0.0764
  150SAPE   C3516616   0.710   1.611   7.281 -0.3616  0.3226 -0.5514
  150SAPE   H5X16617   0.812   1.629   7.241  0.5156  0.4119  1.5743
  150SAPE   H5Y16618   0.690   1.502   7.272  0.9154 -0.1328  1.4997
  150SAPE   C3616619   0.696   1.649   7.426  0.2802 -0.4173 -0.0040
  150SAPE   H6X16620   0.593   1.668   7.462 -0.3371 -1.2510 -1.2814
  150SAPE   H6Y16621   0.740   1.750   7.440 -0.2349 -0.3304  1.1083
  150SAPE   C3716622   0.769   1.546   7.521  0.2113  0.5803  0.1300
  150SAPE   H7X16623   0.878   1.532   7.508  0.2970 -0.2102  1.5100
  150SAPE   H7Y16624   0.722   1.445   7.526  1.6139 -0.2176 -1.5810
  150SAPE   C3816625   0.770   1.600   7.669 -0.1966 -0.5560 -0.2921
  150SAPE   H8X16626   0.665   1.612   7.703  0.9601  0.2043  3.4343
  150SAPE   H8Y16627   0.805   1.705   7.663 -2.4998  0.3905  1.2958
  150SAPE   C3916628   0.850   1.517   7.770 -0.3983 -0.1221 -0.0712
  150SAPE   H9X16629   0.948   1.498   7.723  0.6819  0.2046  1.9653
  150SAPE   H9Y16630   0.789   1.425   7.786 -0.3060  0.1431  2.1740
  150SAPE  C31016631   0.878   1.599   7.902 -0.5758  0.9167  0.6718
  150SAPE  H10X16632   0.926   1.693   7.869  0.9948 -0.0956 -0.0870
  150SAPE  H10Y16633   0.953   1.545   7.965 -0.2857 -2.3114 -2.1033
  150SAPE  C31116634   0.752   1.600   7.990  0.4057  0.1174  0.3426
  150SAPE  H11X16635   0.729   1.496   8.019  0.3740  0.2131  0.6761
  150SAPE  H11Y16636   0.667   1.650   7.938  0.1355 -1.5094 -0.8277
  150SAPE  C31216637   0.763   1.661   8.136  0.9235 -0.7799  0.4397
  150SAPE  H12X16638   0.818   1.758   8.133 -0.6499  0.1572  0.9141
  150SAPE  H12Y16639   0.821   1.590   8.198  0.8006 -0.0806  1.3790
  150SAPE  C31316640   0.630   1.690   8.204  1.5616 -0.1483  0.0087
  150SAPE  H13X16641   0.598   1.593   8.248  0.7541 -0.1159 -0.4761
  150SAPE  H13Y16642   0.554   1.702   8.123 -1.4760 -1.9869  2.3634
  150SAPE  C31416643   0.624   1.808   8.302 -0.7813 -0.7673 -0.3291
  150SAPE  H14X16644   0.695   1.778   8.382 -0.7390 -3.0756 -1.1565
  150SAPE  H14Y16645   0.524   1.818   8.348  0.3356  1.9588  1.7831
  150SAPE  C31516646   0.675   1.950   8.256 -0.2411  0.4986  0.6079
  150SAPE  H15X16647   0.600   1.987   8.183 -0.8605  2.3933  2.1248
  150SAPE  H15Y16648   0.774   1.944   8.208 -0.2128 -2.7281  0.8358
  150SAPE  C31616649   0.698   2.046   8.369  0.2179 -0.1664  0.3370
  150SAPE  H16X16650   0.719   2.144   8.321  1.0639 -0.4552  0.1006
  150SAPE  H16Y16651   0.787   2.022   8.430  1.8837  0.6235 -1.6525
  150SAPE  C31716652   0.572   2.077   8.452 -0.9086  0.3397  0.3930
  150SAPE  H17X16653   0.530   1.979   8.485 -0.8344  0.0829 -0.2707
  150SAPE  H17Y16654   0.492   2.122   8.390 -0.8869 -0.0031  0.1119
  150SAPE  C31816655   0.605   2.166   8.571  0.2062  0.3614  0.3009
  150SAPE  H18X16656   0.506   2.187   8.618  0.2405 -1.0227  1.0235
  150SAPE  H18Y16657   0.649   2.263   8.538 -3.1097  2.7528  2.2411
  150SAPE  H18Z16658   0.672   2.115   8.643  0.4358 -0.4433 -0.4800
  151SAPE     N16659   3.009   0.540   6.493 -0.2734 -0.0035  0.1339
  151SAPE   HN116660   3.061   0.588   6.416  0.2880 -0.9089 -0.0706
  151SAPE   HN216661   3.066   0.542   6.579 -0.4168 -0.9263  0.2597
  151SAPE   HN316662   3.008   0.438   6.473  1.7240 -0.0649  0.2018
  151SAPE   C1216663   2.883   0.614   6.507  0.2843 -0.4764  0.4683
  151SAPE  H12A16664   2.895   0.699   6.578  0.2484  0.3056 -0.4303
  151SAPE  H12B16665   2.804   0.549   6.550 -1.4084  0.9461 -0.3612
  151SAPE   C1116666   2.838   0.677   6.375  0.0006  0.7173 -0.0171
  151SAPE  H11A16667   2.744   0.735   6.388 -0.7507 -0.2382 -0.9357
  151SAPE  H11B16668   2.811   0.597   6.302 -0.5832  0.2548  0.6987
  151SAPE     P16669   2.938   0.906   6.300  0.1606 -0.4164  0.6511
  151SAPE   O1316670   3.077   0.954   6.274 -0.1903 -0.0989  0.0655
  151SAPE   O1416671   2.833   0.947   6.197 -0.0103 -0.3669  0.0369
  151SAPE   O1216672   2.944   0.747   6.310  0.5127 -0.0583  0.6683
  151SAPE   O1116673   2.888   0.951   6.439 -0.0235 -0.1506  0.0558
  151SAPE    C116674   2.903   1.088   6.482 -0.6693  0.1448  0.5238
  151SAPE    HA16675   2.993   1.144   6.446 -1.2201  1.3782  0.9946
  151SAPE    HB16676   2.811   1.144   6.455  0.2619  1.4016 -0.1653
  151SAPE    C216677   2.914   1.094   6.637  0.9323 -0.0343 -0.0567
  151SAPE    HS16678   2.902   1.203   6.654  1.6422 -0.0479  0.6276
  151SAPE   O2116679   3.046   1.039   6.673  0.4387  0.1451 -0.5403
  151SAPE   C2116680   3.105   1.101   6.777  0.5234  0.3141 -0.2384
  151SAPE   O2216681   3.051   1.189   6.843  0.2542 -0.4148  0.6071
  151SAPE   C2216682   3.235   1.037   6.810 -0.2585 -0.6321 -0.3864
  151SAPE   H2R16683   3.214   0.950   6.876 -4.7710 -1.3619 -2.4648
  151SAPE   H2S16684   3.274   0.988   6.718  2.4690  0.1699  0.2541
  151SAPE    C316685   2.796   1.013   6.700  0.4359 -0.0781  0.3509
  151SAPE    HX16686   2.814   0.906   6.678  0.2780 -0.0945  0.3012
  151SAPE    HY16687   2.695   1.026   6.655  0.5978  0.6449  0.1870
  151SAPE   O3116688   2.782   1.032   6.841  0.2557  0.8969  0.2791
  151SAPE   C3116689   2.741   1.141   6.888 -0.3426 -0.1444 -0.2629
  151SAPE   O3216690   2.688   1.234   6.830  0.8825 -0.2754  0.2027
  151SAPE   C3216691   2.771   1.140   7.037 -0.0811  0.6410  0.1456
  151SAPE   H2X16692   2.863   1.201   7.051 -0.0062  0.7635 -0.8510
  151SAPE   H2Y16693   2.799   1.038   7.073 -0.0530  1.9423  4.4038
  151SAPE   C2316694   3.355   1.131   6.856 -0.1199  0.5734  0.1001
  151SAPE   H3R16695   3.351   1.237   6.821 -0.9857  0.4924 -0.0757
  151SAPE   H3S16696   3.451   1.095   6.813  0.0300  0.6285  0.3843
  151SAPE   C2416697   3.383   1.123   7.014  0.1638 -0.0548  0.7601
  151SAPE   H4R16698   3.468   1.193   7.024  0.1710  0.3468 -1.5449
  151SAPE   H4S16699   3.406   1.019   7.048 -0.0847  0.1898  1.7185
  151SAPE   C2516700   3.257   1.175   7.085 -0.1944  0.1672 -0.8842
  151SAPE   H5R16701   3.209   1.252   7.022  1.1390  1.5166 -0.3214
  151SAPE   C2616702   3.198   1.129   7.195 -0.1676 -0.7944 -0.5123
  151SAPE   H6R16703   3.103   1.173   7.228  1.1763  1.2881  0.8562
  151SAPE   C2716704   3.239   1.010   7.277 -0.3110 -0.2242  0.8568
  151SAPE   H7R16705   3.270   0.927   7.211 -1.5321 -0.3311  0.3867
  151SAPE   H7S16706   3.155   0.962   7.332 -1.4609 -1.5038 -1.8637
  151SAPE   C2816707   3.349   1.051   7.371 -0.3009 -0.3713 -1.4245
  151SAPE   H8R16708   3.449   1.055   7.326  0.7425  1.0969  0.8664
  151SAPE   C2916709   3.341   1.078   7.501  0.1428 -0.4191 -0.1625
  151SAPE   H9R16710   3.432   1.088   7.562 -0.8946 -0.1032  1.4076
  151SAPE  C21016711   3.213   1.075   7.577  0.1335 -0.3203 -0.4691
  151SAPE  H10R16712   3.127   1.083   7.508  0.8279 -1.2133 -1.4720
  151SAPE  H10S16713   3.210   1.165   7.642  0.0121 -0.7093  0.0744
  151SAPE  C21116714   3.202   0.950   7.659  0.4567 -0.5875 -0.0608
  151SAPE  H11R16715   3.134   0.875   7.616  0.5017  0.0639 -1.2989
  151SAPE  C21216716   3.269   0.928   7.780  0.3280 -0.6789  0.5882
  151SAPE  H12R16717   3.249   0.827   7.819 -1.2329 -1.8519 -2.8517
  151SAPE  C21316718   3.364   1.010   7.864  0.1544 -0.0816 -0.7454
  151SAPE  H13R16719   3.468   1.018   7.828  0.0029  0.6598 -1.0397
  151SAPE  H13S16720   3.377   0.962   7.964 -0.1347 -0.0473 -0.6906
  151SAPE  C21416721   3.334   1.157   7.905  1.4341 -0.6635 -0.0832
  151SAPE  H14R16722   3.356   1.239   7.834 -2.0994 -0.0227 -0.6504
  151SAPE  C21516723   3.243   1.195   8.001  0.4642 -0.0932  0.7111
  151SAPE  H15R16724   3.240   1.298   8.039 -1.8824 -1.1003  3.5960
  151SAPE  C21616725   3.150   1.102   8.076  0.2776 -0.1420 -0.5793
  151SAPE  H16R16726   3.175   1.091   8.183 -0.7256 -1.0896 -0.4254
  151SAPE  H16S16727   3.173   1.005   8.027  0.6304 -0.2805 -0.1431
  151SAPE  C21716728   3.004   1.144   8.057  0.7012  0.0521 -0.7594
  151SAPE  H17R16729   2.941   1.053   8.066  0.1724  0.4760 -0.0781
  151SAPE  H17S16730   2.984   1.196   7.961 -1.1866 -0.8134 -0.8863
  151SAPE  C21816731   2.959   1.235   8.170  0.6085 -0.1462 -1.3025
  151SAPE  H18R16732   2.866   1.290   8.143 -0.3798 -0.2916  1.4754
  151SAPE  H18S16733   3.042   1.306   8.186  0.1897  0.0214  0.3690
  151SAPE  C21916734   2.942   1.158   8.301 -0.2217 -0.1377 -0.1552
  151SAPE  H19R16735   3.035   1.118   8.345 -1.5747 -1.4278  1.7168
  151SAPE  H19S16736   2.879   1.076   8.259 -0.1497  0.7286 -2.0708
  151SAPE  C22016737   2.866   1.240   8.409  0.3626 -0.4970 -0.6268
  151SAPE  H20R16738   2.823   1.166   8.480  0.9075 -0.2776 -0.0491
  151SAPE  H20S16739   2.925   1.312   8.471 -1.1850 -1.6897  2.4610
  151SAPE  H20T16740   2.779   1.285   8.358  0.4659 -0.2960 -0.6270
  151SAPE   C3316741   2.644   1.192   7.114  0.1755 -0.8165 -0.7007
  151SAPE   H3X16742   2.556   1.132   7.084  1.0370 -1.7537 -1.4146
  151SAPE   H3Y16743   2.627   1.292   7.069  0.5456 -0.7354 -0.6675
  151SAPE   C3416744   2.671   1.193   7.260  0.5540 -0.0140 -0.8675
  151SAPE   H4X16745   2.575   1.197   7.316  0.0521 -2.1881 -1.4752
  151SAPE   H4Y16746   2.728   1.282   7.293 -0.3557  1.3205 -2.7831
  151SAPE   C3516747   2.745   1.075   7.313  0.4463 -0.0556 -1.0564
  151SAPE   H5X16748   2.851   1.059   7.284  0.2830 -0.0607 -1.6746
  151SAPE   H5Y16749   2.707   0.979   7.271  1.7644 -1.1180  0.0753
  151SAPE   C3616750   2.759   1.066   7.468 -0.0164  0.5974  0.3205
  151SAPE   H6X16751   2.831   0.984   7.486  1.0669  1.8925  2.2265
  151SAPE   H6Y16752   2.661   1.041   7.514 -0.1182 -0.8448 -0.6063
  151SAPE   C3716753   2.829   1.186   7.534  0.0047 -0.4350 -0.6232
  151SAPE   H7X16754   2.780   1.284   7.515  0.6354 -0.1657 -0.8754
  151SAPE   H7Y16755   2.930   1.189   7.488  0.3482  1.7988  0.1902
  151SAPE   C3816756   2.859   1.176   7.686 -0.0954  1.4782 -0.3137
  151SAPE   H8X16757   2.936   1.250   7.716  2.9799 -1.8917  0.8714
  151SAPE   H8Y16758   2.906   1.076   7.693 -1.6218  0.7027 -0.7027
  151SAPE   C3916759   2.746   1.168   7.785  0.0366  0.1218  0.2423
  151SAPE   H9X16760   2.784   1.123   7.880 -1.2944  2.0034  1.7588
  151SAPE   H9Y16761   2.672   1.092   7.752 -0.9943  0.8107  0.9022
  151SAPE  C31016762   2.665   1.294   7.792  0.2100 -0.2857 -0.0290
  151SAPE  H10X16763   2.610   1.309   7.696 -0.7832 -1.7406  0.2651
  151SAPE  H10Y16764   2.724   1.387   7.808  1.0197 -0.5647 -1.2498
  151SAPE  C31116765   2.542   1.285   7.885 -0.8025 -0.2608 -0.4109
  151SAPE  H11X16766   2.471   1.213   7.839 -1.5776 -0.1056  0.5159
  151SAPE  H11Y16767   2.491   1.382   7.866 -0.0818  0.0864 -0.6127
  151SAPE  C31216768   2.583   1.273   8.035 -0.9199  0.1216  0.3382
  151SAPE  H12X16769   2.661   1.348   8.062  0.5608 -1.3485  0.2778
  151SAPE  H12Y16770   2.630   1.174   8.050 -0.9617 -0.2186 -1.5614
  151SAPE  C31316771   2.464   1.286   8.126  0.5260  0.3412 -0.4328
  151SAPE  H13X16772   2.395   1.201   8.105  0.1415  0.8212 -1.1709
  151SAPE  H13Y16773   2.397   1.373   8.114 -0.1756 -0.2341 -0.7556
  151SAPE  C31416774   2.493   1.292   8.285  0.0989  0.2719 -0.3985
  151SAPE  H14X16775   2.564   1.376   8.298  0.0773  0.1292  0.7367
  151SAPE  H14Y16776   2.548   1.202   8.319 -1.5905 -0.0654  1.7039
  151SAPE  C31516777   2.377   1.315   8.378 -0.2983 -0.1466  0.6957
  151SAPE  H15X16778   2.372   1.426   8.387  0.6481 -0.1696  1.6708
  151SAPE  H15Y16779   2.399   1.294   8.485  1.4360 -0.1791  0.3617
  151SAPE  C31616780   2.239   1.254   8.338  0.5919 -0.8328 -0.0151
  151SAPE  H16X16781   2.194   1.209   8.430 -1.6503 -1.5071 -1.3640
  151SAPE  H16Y16782   2.265   1.162   8.281  2.0425  0.3415 -1.3292
  151SAPE  C31716783   2.142   1.350   8.269  0.2493 -0.2013  0.6817
  151SAPE  H17X16784   2.055   1.302   8.218 -1.8272  1.6019  2.3449
  151SAPE  H17Y16785   2.198   1.388   8.181 -2.3036  0.7620 -0.6460
  151SAPE  C31816786   2.089   1.466   8.346 -0.4137  0.1685 -0.8189
  151SAPE  H18X16787   2.035   1.551   8.301  2.6876  1.9860 -1.3695
  151SAPE  H18Y16788   2.184   1.516   8.375  1.5148 -1.8312 -3.2380
  151SAPE  H18Z16789   2.042   1.432   8.441  0.1224 -0.0565 -0.6284
  152SAPE     N16790   0.221   3.082   6.185 -0.8362 -0.0668 -0.3221
  152SAPE   HN116791   0.154   3.002   6.187 -1.7937  0.7010 -0.7445
  152SAPE   HN216792   0.282   3.051   6.263 -1.3976 -1.4681 -0.4115
  152SAPE   HN316793   0.173   3.171   6.206  0.5697  0.2294  1.9190
  152SAPE   C1216794   0.296   3.093   6.058 -0.1885 -0.0389  0.6711
  152SAPE  H12A16795   0.333   3.198   6.050 -0.5433  0.0733  0.4997
  152SAPE  H12B16796   0.228   3.088   5.970  2.5901  2.4143 -1.8634
  152SAPE   C1116797   0.416   3.003   6.063  0.6562 -0.0545 -0.0793
  152SAPE  H11A16798   0.471   3.036   5.972  0.0218  2.3931  0.3388
  152SAPE  H11B16799   0.386   2.897   6.048 -1.3139  0.2873  1.0527
  152SAPE     P16800   0.619   2.920   6.193  0.4015 -0.4276  0.1620
  152SAPE   O1316801   0.605   2.814   6.087  0.5718 -0.5282 -0.5737
  152SAPE   O1416802   0.738   3.011   6.183  0.1428  0.4386  0.5311
  152SAPE   O1216803   0.494   3.024   6.185 -0.0983 -0.2267  0.3320
  152SAPE   O1116804   0.614   2.855   6.338  0.0548  0.0745  0.4543
  152SAPE    C116805   0.491   2.840   6.414 -0.4144 -0.5159  0.2799
  152SAPE    HA16806   0.404   2.886   6.363 -1.4526 -0.5920  1.9413
  152SAPE    HB16807   0.473   2.731   6.417  0.0825 -0.5941  3.6667
  152SAPE    C216808   0.503   2.879   6.557 -0.1638  0.2107  0.3191
  152SAPE    HS16809   0.409   2.842   6.605 -0.8487  0.1386 -1.0418
  152SAPE   O2116810   0.511   3.013   6.580 -0.3946 -0.3976  0.6918
  152SAPE   C2116811   0.422   3.099   6.536  0.5293  0.1509 -0.1195
  152SAPE   O2216812   0.321   3.072   6.469 -0.4201  0.1193 -0.2527
  152SAPE   C2216813   0.467   3.243   6.556 -0.0857 -0.4673 -0.0874
  152SAPE   H2R16814   0.562   3.269   6.504 -0.6437 -2.7572 -2.4681
  152SAPE   H2S16815   0.386   3.313   6.527  1.4475  1.5959  0.3555
  152SAPE    C316816   0.615   2.802   6.614  0.0638  0.3145 -0.2097
  152SAPE    HX16817   0.710   2.838   6.568 -0.2796  0.1542 -1.0671
  152SAPE    HY16818   0.606   2.695   6.585  1.7934 -0.1183  0.7714
  152SAPE   O3116819   0.606   2.816   6.755  0.3184 -0.3074  0.2279
  152SAPE   C3116820   0.710   2.878   6.816  0.4370 -0.5362  0.6622
  152SAPE   O3216821   0.804   2.936   6.763 -0.0430  0.1946 -0.0481
  152SAPE   C3216822   0.681   2.871   6.965  0.1699 -0.4064  0.7153
  152SAPE   H2X16823   0.750   2.797   7.010  1.1447  0.6710  1.0518
  152SAPE   H2Y16824   0.577   2.839   6.988  0.2024  0.2582  1.9001
  152SAPE   C2316825   0.505   3.262   6.710 -0.1014  0.1770  0.8379
  152SAPE   H3R16826   0.544   3.364   6.729 -1.1984  0.8067 -0.1621
  152SAPE   H3S16827   0.594   3.196   6.722 -0.2391 -0.1490  0.0994
  152SAPE   C2416828   0.389   3.248   6.809  0.1176 -0.3025 -0.5891
  152SAPE   H4R16829   0.430   3.211   6.905 -1.5367  0.6769  0.5399
  152SAPE   H4S16830   0.318   3.165   6.787 -1.7309  0.9330  0.4158
  152SAPE   C2516831   0.305   3.372   6.832 -0.2884 -0.5021  0.4153
  152SAPE   H5R16832   0.260   3.398   6.735  1.4589 -1.8757 -0.8154
  152SAPE   C2616833   0.299   3.446   6.941  0.1309 -0.2222  0.2940
  152SAPE   H6R16834   0.224   3.525   6.937 -0.3043 -0.6406 -3.1158
  152SAPE   C2716835   0.371   3.418   7.069 -0.3616 -0.1390 -0.5122
  152SAPE   H7R16836   0.460   3.352   7.060 -0.4503 -0.2267 -0.7646
  152SAPE   H7S16837   0.301   3.372   7.142  2.4212  0.1721  2.5975
  152SAPE   C2816838   0.436   3.531   7.134  0.0847 -0.4346 -0.1999
  152SAPE   H8R16839   0.471   3.613   7.070 -2.5255  1.2703  0.3869
  152SAPE   C2916840   0.451   3.538   7.271  0.4611 -0.1188  0.1758
  152SAPE   H9R16841   0.511   3.627   7.294  0.9219 -0.1817 -0.7319
  152SAPE  C21016842   0.414   3.426   7.370 -0.6233 -0.4355 -0.4889
  152SAPE  H10R16843   0.432   3.327   7.323  0.7475 -1.8320  2.6887
  152SAPE  H10S16844   0.303   3.430   7.381 -0.8214 -0.4074 -2.2051
  152SAPE  C21116845   0.472   3.433   7.508  0.2814 -0.6659 -0.1980
  152SAPE  H11R16846   0.540   3.350   7.534 -2.0484 -2.2762  1.0816
  152SAPE  C21216847   0.449   3.534   7.597  0.0564  0.1650 -0.4685
  152SAPE  H12R16848   0.509   3.531   7.690  0.4488 -0.6157 -0.7346
  152SAPE  C21316849   0.376   3.660   7.569 -0.9561 -0.1922 -0.3939
  152SAPE  H13R16850   0.409   3.710   7.475  1.0186 -2.3034 -0.8966
  152SAPE  H13S16851   0.393   3.732   7.652 -3.4564 -2.9742  2.8068
  152SAPE  C21416852   0.225   3.649   7.569  0.3277  0.4571 -0.3219
  152SAPE  H14R16853   0.166   3.602   7.489 -2.4290  2.6930  0.2135
  152SAPE  C21516854   0.138   3.680   7.671  0.0065  0.4544 -0.2097
  152SAPE  H15R16855   0.032   3.656   7.655  0.3956 -0.4484 -1.7049
  152SAPE  C21616856   0.179   3.727   7.805 -0.1916  0.1407  0.9639
  152SAPE  H16R16857   0.119   3.820   7.818 -0.1031  0.4859 -0.8585
  152SAPE  H16S16858   0.288   3.744   7.817  0.0525  0.0525 -0.9065
  152SAPE  C21716859   0.143   3.620   7.905 -0.2368 -0.0563 -0.0986
  152SAPE  H17R16860   0.220   3.542   7.886  2.7414  2.5579  0.3152
  152SAPE  H17S16861   0.042   3.578   7.885 -0.5205  0.9013 -0.7640
  152SAPE  C21816862   0.143   3.670   8.047  0.0269 -0.0575 -0.3617
  152SAPE  H18R16863   0.229   3.738   8.062  1.2384 -1.3884 -1.0254
  152SAPE  H18S16864   0.156   3.586   8.118  3.4172  0.6118 -0.0248
  152SAPE  C21916865   0.008   3.736   8.089 -0.0893  0.2314  0.1788
  152SAPE  H19R16866  -0.058   3.647   8.094 -1.1358  1.0316  1.1874
  152SAPE  H19S16867  -0.014   3.808   8.008  2.4623  0.2131 -0.6343
  152SAPE  C22016868   0.029   3.795   8.225 -0.7868 -0.1642  0.1329
  152SAPE  H20R16869   0.076   3.727   8.299 -0.1840  1.0880  0.9246
  152SAPE  H20S16870  -0.064   3.838   8.266 -0.1642 -0.4905  1.9609
  152SAPE  H20T16871   0.110   3.869   8.213 -1.5745  0.6833 -0.0347
  152SAPE   C3316872   0.719   2.997   7.042 -0.1318  0.2948  0.5965
  152SAPE   H3X16873   0.646   3.072   7.004 -1.2097 -1.2712 -0.5021
  152SAPE   H3Y16874   0.823   3.027   7.015 -0.5601 -0.9804 -3.0050
  152SAPE   C3416875   0.716   2.972   7.193  0.4646  0.4614 -0.4304
  152SAPE   H4X16876   0.776   3.049   7.246 -0.3243  0.2021  0.9048
  152SAPE   H4Y16877   0.759   2.873   7.218 -3.5474 -1.2182  0.7167
  152SAPE   C3516878   0.580   2.968   7.263  0.9755  0.1900  0.3427
  152SAPE   H5X16879   0.521   2.893   7.205 -1.5515 -0.0276  2.9814
  152SAPE   H5Y16880   0.517   3.054   7.232 -3.7402 -2.6646  0.8935
  152SAPE   C3616881   0.571   2.943   7.410 -0.1600 -0.7089 -0.1121
  152SAPE   H6X16882   0.640   2.861   7.438 -1.0189 -1.3948  0.0437
  152SAPE   H6Y16883   0.465   2.913   7.427 -1.1667  3.0883  1.5535
  152SAPE   C3716884   0.605   3.067   7.506  0.8117 -0.8536 -0.6767
  152SAPE   H7X16885   0.517   3.135   7.517  0.6097 -1.5412  3.4884
  152SAPE   H7Y16886   0.693   3.120   7.464  0.1657 -2.0449 -3.7746
  152SAPE   C3816887   0.634   3.011   7.650 -0.4581  0.0306  0.2278
  152SAPE   H8X16888   0.709   2.930   7.632 -0.9636  0.3154 -4.4229
  152SAPE   H8Y16889   0.541   2.963   7.686  0.3851 -1.5671  0.4256
  152SAPE   C3916890   0.687   3.121   7.749  0.1629  0.2084  0.2099
  152SAPE   H9X16891   0.757   3.196   7.706 -0.9256  0.3958 -1.2815
  152SAPE   H9Y16892   0.742   3.072   7.833  0.8130 -0.9909 -0.8800
  152SAPE  C31016893   0.566   3.188   7.808 -0.1031  0.0364  0.3114
  152SAPE  H10X16894   0.493   3.117   7.851  0.5104 -2.2943 -2.2089
  152SAPE  H10Y16895   0.510   3.235   7.724 -0.5796 -2.1539 -0.6556
  152SAPE  C31116896   0.598   3.302   7.909 -0.0605 -0.8874  0.3390
  152SAPE  H11X16897   0.663   3.378   7.861 -2.0454  1.3001  0.9832
  152SAPE  H11Y16898   0.662   3.258   7.989  0.8252  0.3226  0.3219
  152SAPE  C31216899   0.474   3.365   7.966 -0.2193  0.0757 -0.0626
  152SAPE  H12X16900   0.408   3.295   8.020  0.5235  0.0012  0.7746
  152SAPE  H12Y16901   0.423   3.405   7.875  1.5075  0.8753 -0.7330
  152SAPE  C31316902   0.515   3.481   8.059  0.5481  1.0952  0.4815
  152SAPE  H13X16903   0.558   3.429   8.147 -0.8150 -0.2581  0.3964
  152SAPE  H13Y16904   0.419   3.524   8.093  0.9583  1.1586  1.5958
  152SAPE  C31416905   0.602   3.591   7.999  0.1347  0.0840  0.2260
  152SAPE  H14X16906   0.552   3.646   7.917  2.3529  0.3329 -1.0456
  152SAPE  H14Y16907   0.697   3.545   7.963 -0.7637 -1.6304 -0.0832
  152SAPE  C31516908   0.648   3.695   8.109 -0.0748  0.2714  0.3268
  152SAPE  H15X16909   0.725   3.763   8.066  1.8350 -0.8971  1.7733
  152SAPE  H15Y16910   0.706   3.637   8.183  0.1393  1.3843  1.0619
  152SAPE  C31616911   0.544   3.775   8.185 -0.0732 -0.7030  0.2267
  152SAPE  H16X16912   0.452   3.722   8.219  0.3032 -0.7459  1.2005
  152SAPE  H16Y16913   0.516   3.847   8.105 -2.1038 -0.2819  1.2388
  152SAPE  C31716914   0.607   3.862   8.303  0.3173  0.0563  0.1654
  152SAPE  H17X16915   0.526   3.936   8.320 -0.3130 -0.1979 -1.5406
  152SAPE  H17Y16916   0.700   3.911   8.266 -0.3585 -0.3428 -2.2707
  152SAPE  C31816917   0.626   3.782   8.427 -0.0954  0.2860 -0.2867
  152SAPE  H18X16918   0.650   3.676   8.408  0.6283  0.2388  0.8059
  152SAPE  H18Y16919   0.536   3.781   8.493  0.2072  0.6110  0.1415
  152SAPE  H18Z16920   0.704   3.822   8.495 -0.1013 -2.5093  1.5249
  153SAPE     N16921   4.939   4.551   6.150 -0.0154  1.2220  0.2298
  153SAPE   HN116922   5.001   4.633   6.135  2.1544 -0.3957 -0.1257
  153SAPE   HN216923   4.981   4.457   6.134 -3.9586 -0.4629 -1.5146
  153SAPE   HN316924   4.867   4.549   6.075  0.4232 -1.0398 -0.2040
  153SAPE   C1216925   4.883   4.566   6.287  0.1000 -0.8951 -0.2632
  153SAPE  H12A16926   4.846   4.670   6.295  0.7274 -0.7112  0.2744
  153SAPE  H12B16927   4.965   4.569   6.361 -0.6759  2.2361  0.6008
  153SAPE   C1116928   4.761   4.466   6.310  0.0436 -0.9693 -0.0356
  153SAPE  H11A16929   4.718   4.478   6.411  0.8509  1.2838  0.0913
  153SAPE  H11B16930   4.802   4.363   6.321  0.6846 -0.6828  0.2417
  153SAPE     P16931   4.540   4.583   6.231 -0.0079  0.0361  0.0394
  153SAPE   O1316932   4.552   4.697   6.142  0.0565  0.0703 -0.1444
  153SAPE   O1416933   4.411   4.506   6.215  0.1273  0.1949  0.5294
  153SAPE   O1216934   4.660   4.491   6.206  0.3246  0.8017 -0.3097
  153SAPE   O1116935   4.550   4.637   6.376  0.3382  0.7024 -0.3576
  153SAPE    C116936   4.426   4.675   6.452 -0.1898 -0.2039 -0.1402
  153SAPE    HA16937   4.425   4.782   6.480 -0.2768 -0.6298  1.5947
  153SAPE    HB16938   4.335   4.670   6.389 -1.2958  2.6441  1.0518
  153SAPE    C216939   4.415   4.597   6.592  0.2731  0.2403 -0.9224
  153SAPE    HS16940   4.350   4.660   6.657  1.4196 -0.2915  0.8210
  153SAPE   O2116941   4.541   4.575   6.658 -1.0685 -0.2088 -0.4184
  153SAPE   C2116942   4.611   4.688   6.691 -0.5791  0.7329 -0.3966
  153SAPE   O2216943   4.577   4.802   6.658  0.2439 -0.6555 -0.3770
  153SAPE   C2216944   4.743   4.646   6.748  0.1652 -0.4284 -0.5872
  153SAPE   H2R16945   4.760   4.538   6.730  0.3477 -0.8021  1.5551
  153SAPE   H2S16946   4.814   4.710   6.690 -0.7130  1.0372 -0.1056
  153SAPE    C316947   4.349   4.459   6.567 -0.1913  0.4300  0.8189
  153SAPE    HX16948   4.429   4.387   6.539 -1.6239 -0.7793 -0.4298
  153SAPE    HY16949   4.278   4.461   6.481  1.3184 -1.1313 -0.5296
  153SAPE   O3116950   4.285   4.406   6.688  0.3130 -0.5966 -0.2202
  153SAPE   C3116951   4.230   4.287   6.675  0.2451  0.1002 -0.8067
  153SAPE   O3216952   4.241   4.217   6.574 -0.0080  0.1454 -0.9168
  153SAPE   C3216953   4.143   4.252   6.803 -0.1289  0.5210 -0.0071
  153SAPE   H2X16954   4.070   4.335   6.810 -1.4867 -0.7018  0.9300
  153SAPE   H2Y16955   4.207   4.235   6.893  0.1955  1.2265 -0.0999
  153SAPE   C2316956   4.771   4.676   6.896  0.1116  0.2282 -0.6265
  153SAPE   H3R16957   4.684   4.651   6.960 -0.5850  2.5337 -0.5774
  153SAPE   H3S16958   4.795   4.785   6.903 -0.3072  0.3072 -0.4046
  153SAPE   C2416959   4.903   4.601   6.932  0.4528 -0.5986 -0.2933
  153SAPE   H4R16960   4.961   4.675   6.993 -2.2828  1.0421  0.4954
  153SAPE   H4S16961   4.961   4.591   6.838 -0.3980 -1.2498 -0.7629
  153SAPE   C2516962   4.906   4.473   7.006 -0.1372  0.5813 -0.0392
  153SAPE   H5R16963   4.849   4.391   6.961 -0.8324  1.7345 -1.3418
  153SAPE   C2616964   4.980   4.452   7.118 -0.2983 -0.1286 -0.7349
  153SAPE   H6R16965   4.990   4.350   7.158  0.6242  0.6283  1.0705
  153SAPE   C2716966   5.070   4.552   7.195 -0.0672 -0.0891  0.7496
  153SAPE   H7R16967   5.014   4.605   7.275  0.5430  1.4299  0.2231
  153SAPE   H7S16968   5.104   4.641   7.136  0.7725  1.4172  3.3638
  153SAPE   C2816969   5.189   4.486   7.256 -0.4118 -0.0710  0.0022
  153SAPE   H8R16970   5.279   4.471   7.195 -1.3950 -0.3064 -1.4290
  153SAPE   C2916971   5.197   4.437   7.385  0.3781 -1.0764  0.2032
  153SAPE   H9R16972   5.293   4.396   7.421  0.8938  0.7795  1.1066
  153SAPE  C21016973   5.079   4.435   7.485  0.4757  0.0429  0.0881
  153SAPE  H10R16974   4.983   4.427   7.431  0.5267  0.0968 -0.0111
  153SAPE  H10S16975   5.086   4.530   7.543 -0.6246  1.2996 -1.7434
  153SAPE  C21116976   5.094   4.310   7.570 -0.5848  0.1618 -0.6324
  153SAPE  H11R16977   5.083   4.216   7.514 -2.2320  0.3354 -0.6517
  153SAPE  C21216978   5.105   4.309   7.707 -0.0267  0.2934  0.3796
  153SAPE  H12R16979   5.112   4.207   7.746  0.8456 -0.6508 -2.0367
  153SAPE  C21316980   5.107   4.431   7.795  0.0600 -0.1929 -0.3175
  153SAPE  H13R16981   5.014   4.492   7.806 -0.0661 -0.7907  2.7643
  153SAPE  H13S16982   5.189   4.497   7.759 -0.9218  1.6308  0.5962
  153SAPE  C21416983   5.143   4.389   7.937  0.1688 -0.2714 -0.4050
  153SAPE  H14R16984   5.051   4.391   7.997 -0.4167  1.1697 -1.2821
  153SAPE  C21516985   5.261   4.334   7.982 -1.2137 -0.4765  0.6066
  153SAPE  H15R16986   5.278   4.314   8.089  1.7104 -0.8057  0.1390
  153SAPE  C21616987   5.387   4.297   7.902 -0.6210  0.2862  0.5228
  153SAPE  H16R16988   5.373   4.321   7.795 -2.5443  1.9887  1.0892
  153SAPE  H16S16989   5.397   4.186   7.903 -0.4442  0.2819 -0.5488
  153SAPE  C21716990   5.512   4.368   7.958 -0.2255 -0.1079  0.0747
  153SAPE  H17R16991   5.594   4.349   7.885  2.7724  0.3853  3.0749
  153SAPE  H17S16992   5.542   4.316   8.051  0.0546 -1.1844 -0.5987
  153SAPE  C21816993   5.493   4.522   7.963 -0.1355  0.1306  0.0276
  153SAPE  H18R16994   5.434   4.554   8.051 -0.8120 -1.7928  0.3260
  153SAPE  H18S16995   5.440   4.561   7.873  0.1528  1.3263  0.3647
  153SAPE  C21916996   5.631   4.594   7.975  0.1256 -0.5917  0.1647
  153SAPE  H19R16997   5.709   4.551   7.908  0.2140 -0.5586  0.2460
  153SAPE  H19S16998   5.680   4.572   8.072  0.5373 -0.1686  0.0605
  153SAPE  C22016999   5.621   4.739   7.950 -0.3503 -0.1958 -1.0956
  153SAPE  H20R17000   5.553   4.785   8.026  0.8497  0.1587 -0.2077
  153SAPE  H20S17001   5.565   4.760   7.857  1.1282  1.0653 -1.7542
  153SAPE  H20T17002   5.716   4.796   7.944 -0.4895  0.3755  1.1173
  153SAPE   C3317003   4.070   4.119   6.780 -0.2820 -0.3675 -0.1266
  153SAPE   H3X17004   4.138   4.045   6.733  0.8409  1.6638 -1.8510
  153SAPE   H3Y17005   3.987   4.132   6.708  0.5275 -0.3817 -1.0797
  153SAPE   C3417006   4.009   4.061   6.908 -0.0972 -0.3770  0.3768
  153SAPE   H4X17007   4.077   4.033   6.991  0.6520  0.1474 -0.0505
  153SAPE   H4Y17008   3.960   3.969   6.867  1.0055 -1.2257  0.9049
  153SAPE   C3517009   3.893   4.150   6.965  0.1620 -0.4806 -0.3312
  153SAPE   H5X17010   3.838   4.193   6.878  0.7530  1.1652  0.0639
  153SAPE   H5Y17011   3.936   4.239   7.016 -0.5838 -0.9256  1.1172
  153SAPE   C3617012   3.808   4.085   7.064  0.0797  0.5478  0.8331
  153SAPE   H6X17013   3.868   4.012   7.124 -0.7997 -1.4530 -0.6166
  153SAPE   H6Y17014   3.748   4.014   7.003 -0.5385  0.2777  1.7326
  153SAPE   C3717015   3.713   4.167   7.154 -0.1380  0.0306 -0.2965
  153SAPE   H7X17016   3.657   4.110   7.231  2.1760  1.0209  2.2647
  153SAPE   H7Y17017   3.639   4.220   7.089 -1.3003 -1.3944 -0.1871
  153SAPE   C3817018   3.782   4.262   7.242 -0.3787 -0.4970  0.1905
  153SAPE   H8X17019   3.851   4.333   7.190 -1.0297 -0.8941 -1.2560
  153SAPE   H8Y17020   3.848   4.205   7.311 -0.6026 -0.8180  0.1401
  153SAPE   C3917021   3.696   4.347   7.336 -0.3463  0.5046  0.9817
  153SAPE   H9X17022   3.614   4.395   7.278 -0.4631 -2.5724 -1.6996
  153SAPE   H9Y17023   3.766   4.427   7.367  1.2129 -0.5182  0.2333
  153SAPE  C31017024   3.638   4.272   7.458 -0.3121  0.1137 -0.7262
  153SAPE  H10X17025   3.722   4.241   7.523 -0.7174  0.7866  0.1438
  153SAPE  H10Y17026   3.584   4.189   7.407  1.7518 -0.9398 -1.3262
  153SAPE  C31117027   3.556   4.363   7.543 -1.2098  0.3104 -0.0004
  153SAPE  H11X17028   3.464   4.372   7.481 -0.7822  1.9797 -0.4373
  153SAPE  H11Y17029   3.607   4.462   7.549 -2.9819  1.2566  0.3796
  153SAPE  C31217030   3.515   4.324   7.683  0.1318  0.7426 -0.1489
  153SAPE  H12X17031   3.468   4.224   7.673 -0.2721  0.9872 -0.7209
  153SAPE  H12Y17032   3.433   4.395   7.708  3.0665  4.3137  0.3199
  153SAPE  C31317033   3.624   4.347   7.789  0.4269 -0.0655  1.1555
  153SAPE  H13X17034   3.647   4.456   7.790  1.6112 -0.3004  1.1896
  153SAPE  H13Y17035   3.712   4.283   7.767  0.3372 -0.2204  1.2472
  153SAPE  C31417036   3.572   4.311   7.922  0.2380  0.0025  0.2425
  153SAPE  H14X17037   3.547   4.203   7.927 -1.1283  0.2873 -0.0961
  153SAPE  H14Y17038   3.486   4.380   7.938 -0.4142 -0.3833 -1.3992
  153SAPE  C31517039   3.671   4.332   8.041  0.5307  0.4822 -0.1586
  153SAPE  H15X17040   3.689   4.440   8.058 -0.3180  0.3056  2.1856
  153SAPE  H15Y17041   3.766   4.275   8.030  0.0338 -0.2673 -0.6459
  153SAPE  C31617042   3.610   4.302   8.178 -0.1112 -0.1623  1.0139
  153SAPE  H16X17043   3.595   4.192   8.181 -0.4929 -0.1384  0.1781
  153SAPE  H16Y17044   3.510   4.349   8.174 -0.4401 -0.7073  2.3497
  153SAPE  C31717045   3.684   4.354   8.298  0.1431 -0.1468 -0.4067
  153SAPE  H17X17046   3.618   4.345   8.386  2.4145  2.8561  1.8131
  153SAPE  H17Y17047   3.699   4.464   8.307 -2.5867  0.0971  2.8523
  153SAPE  C31817048   3.807   4.265   8.330  0.4705 -0.3069  0.5686
  153SAPE  H18X17049   3.780   4.166   8.372 -0.3590 -0.4687 -0.3105
  153SAPE  H18Y17050   3.872   4.319   8.402  0.5879  1.4672 -0.7844
  153SAPE  H18Z17051   3.862   4.269   8.234 -1.2305 -0.9156 -0.4782
  154SAPE     N17052   1.717   1.992   6.467 -0.1906  0.5677 -0.6884
  154SAPE   HN117053   1.693   1.891   6.464  1.3706  0.1648 -0.8057
  154SAPE   HN217054   1.723   2.009   6.570  1.0399  1.7346 -0.9271
  154SAPE   HN317055   1.648   2.057   6.426  0.1821  1.5753  0.2170
  154SAPE   C1217056   1.851   2.022   6.411 -0.9771 -0.4846  0.3072
  154SAPE  H12A17057   1.921   1.955   6.467 -0.7911 -1.6292 -1.2369
  154SAPE  H12B17058   1.870   2.128   6.438  2.4815 -1.4646  2.4780
  154SAPE   C1117059   1.859   1.984   6.267  0.0841  0.0884  0.2494
  154SAPE  H11A17060   1.810   1.888   6.241  1.0027 -0.7172  1.3864
  154SAPE  H11B17061   1.966   1.969   6.239 -0.5118 -3.5132 -0.6010
  154SAPE     P17062   1.893   2.200   6.136  0.2368 -0.3391 -0.2472
  154SAPE   O1317063   1.974   2.143   6.028  0.0005  0.0604 -0.1903
  154SAPE   O1417064   1.794   2.299   6.090 -0.0662  0.0700 -0.4315
  154SAPE   O1217065   1.798   2.087   6.193  0.2355  0.7115  0.0010
  154SAPE   O1117066   1.984   2.248   6.252  0.0454 -0.0419  0.3861
  154SAPE    C117067   1.980   2.384   6.306 -0.5865  0.1920  0.4990
  154SAPE    HA17068   2.066   2.439   6.265 -2.0771  0.6707 -2.2493
  154SAPE    HB17069   1.882   2.433   6.287 -0.4147  1.0710  1.7313
  154SAPE    C217070   2.001   2.402   6.458  0.0539 -0.1285 -0.5010
  154SAPE    HS17071   2.058   2.495   6.480  0.0618  0.0385 -1.1882
  154SAPE   O2117072   2.069   2.286   6.507  0.3627 -0.3133  0.4637
  154SAPE   C2117073   2.194   2.281   6.477  0.5534  0.0855 -1.0358
  154SAPE   O2217074   2.263   2.364   6.423 -0.1358 -0.2281  0.8060
  154SAPE   C2217075   2.251   2.151   6.536 -0.5418 -0.0870 -0.5682
  154SAPE   H2R17076   2.171   2.073   6.531  0.1686 -0.7224 -3.4604
  154SAPE   H2S17077   2.343   2.136   6.477 -1.1420 -2.0129 -1.0865
  154SAPE    C317078   1.865   2.407   6.526  0.2059  0.2872 -0.7574
  154SAPE    HX17079   1.804   2.330   6.474 -1.0712  0.9438 -0.2835
  154SAPE    HY17080   1.815   2.506   6.517  0.0711  0.5164  1.6754
  154SAPE   O3117081   1.875   2.356   6.662 -0.2867  0.1561 -0.5591
  154SAPE   C3117082   1.887   2.451   6.759  0.2204 -0.1122 -0.7137
  154SAPE   O3217083   1.892   2.568   6.736  0.1190 -0.0795 -0.0525
  154SAPE   C3217084   1.911   2.379   6.898 -0.4118 -0.6590  0.8576
  154SAPE   H2X17085   2.000   2.316   6.876  0.1853  0.4667  0.0025
  154SAPE   H2Y17086   1.829   2.306   6.917  0.1413 -1.1454  1.4216
  154SAPE   C2317087   2.279   2.176   6.691  0.5346 -1.0896 -0.3858
  154SAPE   H3R17088   2.319   2.084   6.738  3.0382 -0.3942 -1.0180
  154SAPE   H3S17089   2.180   2.210   6.728  0.9452 -0.1596 -0.1091
  154SAPE   C2417090   2.388   2.286   6.716 -0.5907 -0.1867 -1.3377
  154SAPE   H4R17091   2.423   2.291   6.821 -1.1651  0.6174 -1.1805
  154SAPE   H4S17092   2.335   2.379   6.687 -0.4021  0.8038  1.2718
  154SAPE   C2517093   2.518   2.280   6.627 -0.0787  0.6075  0.6130
  154SAPE   H5R17094   2.509   2.318   6.524  0.2439 -0.7787  0.0540
  154SAPE   C2617095   2.650   2.267   6.663  0.1159  0.3786 -0.0579
  154SAPE   H6R17096   2.730   2.263   6.588 -2.0754 -2.4384 -2.4873
  154SAPE   C2717097   2.701   2.247   6.804 -0.6744  0.3374 -0.4370
  154SAPE   H7R17098   2.633   2.299   6.875 -1.1918  0.3302 -0.9184
  154SAPE   H7S17099   2.785   2.317   6.821  0.1220 -0.8344  0.5567
  154SAPE   C2817100   2.742   2.110   6.856 -0.3537  0.0106  0.2537
  154SAPE   H8R17101   2.801   2.050   6.784  0.2410 -1.1943  1.6805
  154SAPE   C2917102   2.718   2.059   6.980  0.3856 -0.3476  0.4178
  154SAPE   H9R17103   2.745   1.955   7.003  0.4690 -0.4832 -0.2767
  154SAPE  C21017104   2.635   2.123   7.085 -0.3330  0.3219  0.1633
  154SAPE  H10R17105   2.653   2.233   7.089  1.4716  0.0461  0.1592
  154SAPE  H10S17106   2.671   2.093   7.185 -0.6260 -0.2332  0.1039
  154SAPE  C21117107   2.492   2.086   7.079 -0.4736 -0.4260  0.6279
  154SAPE  H11R17108   2.456   2.077   6.975 -0.3999  0.1546  0.5481
  154SAPE  C21217109   2.411   2.051   7.180  0.2996 -0.3620  0.0925
  154SAPE  H12R17110   2.303   2.031   7.166  0.0149  0.8410  0.4715
  154SAPE  C21317111   2.451   2.054   7.326  0.4042  0.3287  0.1358
  154SAPE  H13R17112   2.560   2.058   7.349  0.4033  1.8983  0.0054
  154SAPE  H13S17113   2.421   1.955   7.366  1.3058 -0.4200 -0.9946
  154SAPE  C21417114   2.380   2.161   7.402  0.1727 -0.3956  0.2689
  154SAPE  H14R17115   2.356   2.246   7.337 -1.4883 -0.8847  0.1991
  154SAPE  C21517116   2.370   2.166   7.536 -0.6384  0.0198 -0.0544
  154SAPE  H15R17117   2.314   2.247   7.586 -3.2723 -0.7416 -1.5942
  154SAPE  C21617118   2.431   2.066   7.633  0.0516  0.2740 -0.7119
  154SAPE  H16R17119   2.476   1.972   7.594 -1.3923 -1.4347  1.4935
  154SAPE  H16S17120   2.358   2.048   7.714 -1.4982 -0.1865 -2.1557
  154SAPE  C21717121   2.552   2.145   7.697 -0.2753 -0.2590  0.3829
  154SAPE  H17R17122   2.629   2.167   7.619 -0.5996  0.5430  0.2727
  154SAPE  H17S17123   2.607   2.069   7.755 -0.8027  0.3251  1.6953
  154SAPE  C21817124   2.527   2.260   7.798 -0.2696  0.3842  0.1785
  154SAPE  H18R17125   2.467   2.336   7.745  0.6594  1.4527  0.6030
  154SAPE  H18S17126   2.628   2.303   7.815  0.9872 -1.1381 -2.7525
  154SAPE  C21917127   2.449   2.230   7.926  0.0940  0.1032 -0.3371
  154SAPE  H19R17128   2.341   2.215   7.905  0.0660 -0.6525  0.2681
  154SAPE  H19S17129   2.450   2.327   7.980  0.2894  0.6229 -1.2671
  154SAPE  C22017130   2.511   2.127   8.015 -0.1576 -0.1576 -0.1860
  154SAPE  H20R17131   2.619   2.149   8.028 -0.1433  0.1922 -0.8521
  154SAPE  H20S17132   2.499   2.021   7.984 -1.9986 -0.1359  0.3666
  154SAPE  H20T17133   2.467   2.137   8.117 -1.9009 -2.4762 -0.6210
  154SAPE   C3317134   1.936   2.488   6.999  0.3890 -0.9586 -0.2298
  154SAPE   H3X17135   1.851   2.559   7.010  0.3612 -0.9558 -0.4631
  154SAPE   H3Y17136   2.029   2.546   6.985 -0.9591  1.5440  0.5442
  154SAPE   C3417137   1.959   2.427   7.130  0.1197  0.4141  0.5548
  154SAPE   H4X17138   2.042   2.355   7.111 -0.1658 -0.8481  3.5030
  154SAPE   H4Y17139   1.863   2.381   7.161 -0.4335  0.9952 -0.2689
  154SAPE   C3517140   2.015   2.512   7.248  0.4772 -0.3765 -0.5489
  154SAPE   H5X17141   1.954   2.601   7.271  1.9678  0.4410  0.4114
  154SAPE   H5Y17142   2.122   2.542   7.234  0.0969  0.7316 -1.2411
  154SAPE   C3617143   2.024   2.441   7.381 -0.6592 -0.0879  0.0890
  154SAPE   H6X17144   2.085   2.349   7.386 -0.3366  0.1823  3.6871
  154SAPE   H6Y17145   1.920   2.424   7.418 -1.0115  1.4673 -0.0909
  154SAPE   C3717146   2.091   2.538   7.488  0.8781 -0.0663  0.1696
  154SAPE   H7X17147   2.029   2.630   7.483  2.8137  1.3675  1.1623
  154SAPE   H7Y17148   2.196   2.563   7.461  0.2124  0.6506 -1.9202
  154SAPE   C3817149   2.095   2.480   7.629  0.0660  0.4606  0.1350
  154SAPE   H8X17150   2.151   2.384   7.624  0.9408  0.8701  1.7006
  154SAPE   H8Y17151   1.990   2.449   7.647 -0.7790  1.3219 -2.7629
  154SAPE   C3917152   2.153   2.575   7.739 -0.0168  0.7030  0.3489
  154SAPE   H9X17153   2.090   2.665   7.723 -2.7801 -1.2282 -0.6143
  154SAPE   H9Y17154   2.262   2.589   7.728 -0.1757  2.5840  0.8493
  154SAPE  C31017155   2.133   2.524   7.884  0.6926 -0.8339  0.7958
  154SAPE  H10X17156   2.209   2.447   7.912  1.3777 -0.6558 -0.5332
  154SAPE  H10Y17157   2.033   2.481   7.903  0.7043 -0.8574  0.8042
  154SAPE  C31117158   2.131   2.644   7.991  0.8623 -0.1512  0.4349
  154SAPE  H11X17159   2.074   2.724   7.937  2.5302  0.5697 -0.3162
  154SAPE  H11Y17160   2.235   2.683   7.994  1.1457 -0.6051 -1.8751
  154SAPE  C31217161   2.081   2.599   8.134  0.1172 -0.8392  0.2489
  154SAPE  H12X17162   2.014   2.510   8.128  0.3190 -1.0255  0.7668
  154SAPE  H12Y17163   2.022   2.681   8.180 -0.4288 -2.3193  2.2890
  154SAPE  C31317164   2.195   2.553   8.227 -0.3380 -0.5031  1.1468
  154SAPE  H13X17165   2.271   2.633   8.243 -0.7793  0.6614 -1.9216
  154SAPE  H13Y17166   2.245   2.462   8.187 -1.3345 -0.0323 -1.3318
  154SAPE  C31417167   2.154   2.520   8.372  0.4003  0.2206  0.3740
  154SAPE  H14X17168   2.103   2.606   8.420 -1.1575 -1.3512  1.6805
  154SAPE  H14Y17169   2.249   2.513   8.429  0.9736  0.0837 -0.5720
  154SAPE  C31517170   2.075   2.390   8.376  0.1305  0.1899  0.1284
  154SAPE  H15X17171   2.122   2.312   8.313 -2.1484 -0.8282 -0.4387
  154SAPE  H15Y17172   1.980   2.415   8.325 -0.7543  2.4316  2.5857
  154SAPE  C31617173   2.036   2.341   8.520  0.2620 -0.1367  1.1852
  154SAPE  H16X17174   1.947   2.399   8.554  0.4727  2.2310 -1.8761
  154SAPE  H16Y17175   2.111   2.372   8.595 -0.5505 -0.6985  2.2740
  154SAPE  C31717176   2.011   2.191   8.533  0.0338  0.0550 -0.3927
  154SAPE  H17X17177   2.112   2.150   8.513 -0.4881 -0.7189 -1.5274
  154SAPE  H17Y17178   1.935   2.159   8.458 -0.8101  0.8379  0.1075
  154SAPE  C31817179   1.966   2.137   8.670  0.3690  0.0629 -0.1520
  154SAPE  H18X17180   1.963   2.026   8.664  0.5586  0.0755 -0.5667
  154SAPE  H18Y17181   1.866   2.181   8.692  0.6685  1.7151 -1.8510
  154SAPE  H18Z17182   2.041   2.166   8.746 -1.1693  1.5764  0.8539
  155SAPE     N17183   1.791   3.664   6.274  0.2873 -0.2133  0.9236
  155SAPE   HN117184   1.700   3.689   6.230  1.3113 -0.6705 -1.6558
  155SAPE   HN217185   1.861   3.707   6.211 -0.9749  0.7628  0.1473
  155SAPE   HN317186   1.795   3.560   6.276  2.1334 -0.1628  1.2312
  155SAPE   C1217187   1.809   3.718   6.414  0.0334 -0.1601 -0.5076
  155SAPE  H12A17188   1.772   3.646   6.490 -0.7291 -0.4292 -1.1254
  155SAPE  H12B17189   1.760   3.817   6.405 -2.6032 -1.5486 -2.9846
  155SAPE   C1117190   1.958   3.725   6.450 -0.0634 -0.6079 -0.6435
  155SAPE  H11A17191   1.994   3.620   6.440 -2.9694 -2.1680  2.8941
  155SAPE  H11B17192   1.968   3.748   6.558  0.3288 -1.4691 -0.4848
  155SAPE     P17193   2.162   3.855   6.367  0.2881 -0.0867  0.3863
  155SAPE   O1317194   2.235   3.792   6.252 -0.0072 -0.4588 -0.6413
  155SAPE   O1417195   2.166   3.999   6.387  0.0207  0.1847 -0.4243
  155SAPE   O1217196   2.012   3.823   6.362 -0.6109  0.0145 -0.1058
  155SAPE   O1117197   2.219   3.783   6.492 -0.3578 -0.4080  0.4496
  155SAPE    C117198   2.304   3.857   6.580 -0.2723 -0.6988 -0.6885
  155SAPE    HA17199   2.270   3.960   6.604 -1.0161 -1.1557  0.2969
  155SAPE    HB17200   2.323   3.809   6.678 -0.0835  3.2507  1.4059
  155SAPE    C217201   2.455   3.879   6.528  0.5062  0.2980 -0.1309
  155SAPE    HS17202   2.440   3.936   6.434 -2.3845  1.2957  0.8164
  155SAPE   O2117203   2.506   3.743   6.503 -0.1751  0.1738  0.3921
  155SAPE   C2117204   2.614   3.740   6.425  0.0761 -0.3464  0.2073
  155SAPE   O2217205   2.663   3.842   6.368 -0.2076  0.2006 -0.1366
  155SAPE   C2217206   2.671   3.599   6.437  0.0695  0.5528  0.0392
  155SAPE   H2R17207   2.637   3.558   6.535  1.1864 -1.3752 -0.3323
  155SAPE   H2S17208   2.617   3.544   6.358 -1.2508  1.2950  0.3785
  155SAPE    C317209   2.536   3.945   6.632 -0.3777 -0.1537 -0.5972
  155SAPE    HX17210   2.643   3.963   6.606 -0.8086  0.9197 -1.6901
  155SAPE    HY17211   2.551   3.864   6.707  0.2557  0.3464 -0.1731
  155SAPE   O3117212   2.471   4.054   6.704 -0.3704  0.5200 -0.2328
  155SAPE   C3117213   2.505   4.174   6.675 -0.2889  0.5122 -0.9189
  155SAPE   O3217214   2.597   4.203   6.603 -0.3411 -0.3948 -0.3125
  155SAPE   C3217215   2.408   4.274   6.742 -0.3501 -0.0628  0.5440
  155SAPE   H2X17216   2.308   4.228   6.733 -0.6965  0.4776  1.5035
  155SAPE   H2Y17217   2.407   4.352   6.663 -0.7972 -1.4307 -0.8557
  155SAPE   C2317218   2.827   3.576   6.430  0.1382  0.4733 -0.0782
  155SAPE   H3R17219   2.873   3.631   6.345  5.1130  0.6857  2.3627
  155SAPE   H3S17220   2.848   3.467   6.417 -0.1525  0.0517  2.4389
  155SAPE   C2417221   2.908   3.616   6.557  0.2911  0.1760 -0.3887
  155SAPE   H4R17222   2.856   3.564   6.640  2.4605  0.0371  0.9841
  155SAPE   H4S17223   2.901   3.726   6.569 -0.0614  0.3306 -1.7861
  155SAPE   C2517224   3.053   3.565   6.548 -0.3576 -1.4434 -0.1865
  155SAPE   H5R17225   3.073   3.483   6.477  0.2882 -0.6633 -0.9285
  155SAPE   C2617226   3.154   3.621   6.623  0.0025 -0.3336 -0.4531
  155SAPE   H6R17227   3.253   3.577   6.605  0.7982  1.9157 -2.1063
  155SAPE   C2717228   3.146   3.728   6.729  0.0849 -0.2729 -0.3740
  155SAPE   H7R17229   3.246   3.734   6.778 -0.6196 -1.7583  1.3257
  155SAPE   H7S17230   3.074   3.707   6.811 -1.4826  1.0149 -1.3742
  155SAPE   C2817231   3.111   3.867   6.680 -0.3929  0.0546  0.0489
  155SAPE   H8R17232   3.173   3.912   6.602  0.2006 -0.5989  0.1313
  155SAPE   C2917233   3.021   3.951   6.734  0.5990 -0.6119  0.4787
  155SAPE   H9R17234   3.004   4.047   6.684  1.8058 -0.1859  0.8662
  155SAPE  C21017235   2.935   3.929   6.854  0.4191  0.7060  0.0446
  155SAPE  H10R17236   2.866   4.015   6.858 -1.9526 -1.0696 -0.2877
  155SAPE  H10S17237   2.995   3.932   6.947  3.3600  2.7407 -1.7400
  155SAPE  C21117238   2.837   3.816   6.849  0.4227 -0.2129 -0.1293
  155SAPE  H11R17239   2.777   3.816   6.757 -1.2001  0.2465  0.8681
  155SAPE  C21217240   2.815   3.734   6.952 -0.4091 -0.2140 -0.4257
  155SAPE  H12R17241   2.742   3.653   6.940  0.4331 -1.0855  0.2120
  155SAPE  C21317242   2.870   3.724   7.093  0.2467  0.1333  0.0901
  155SAPE  H13R17243   2.791   3.681   7.159  0.5828 -0.4999  0.0831
  155SAPE  H13S17244   2.877   3.827   7.135  0.0100  1.0096 -1.8867
  155SAPE  C21417245   2.986   3.630   7.123  0.3096 -0.5636 -0.1819
  155SAPE  H14R17246   3.020   3.561   7.044  3.2807  1.0182 -0.4297
  155SAPE  C21517247   3.052   3.633   7.239  0.4252 -0.5942  0.5246
  155SAPE  H15R17248   3.125   3.551   7.251 -0.2521 -1.9458 -3.1903
  155SAPE  C21617249   3.028   3.712   7.362  0.5450  0.7261 -0.4845
  155SAPE  H16R17250   2.937   3.775   7.372 -1.2342 -1.8736  0.6432
  155SAPE  H16S17251   3.114   3.781   7.381  1.2478 -0.9573  3.1361
  155SAPE  C21717252   3.024   3.637   7.498 -0.7824  0.2852  0.7285
  155SAPE  H17R17253   2.933   3.574   7.491 -0.6699  0.1993 -0.1573
  155SAPE  H17S17254   3.018   3.714   7.578  0.5237 -0.0502  1.1787
  155SAPE  C21817255   3.145   3.552   7.521 -0.4848 -0.6787 -0.8293
  155SAPE  H18R17256   3.236   3.591   7.471 -1.2829  0.7385 -1.2344
  155SAPE  H18S17257   3.142   3.451   7.475  2.3115 -1.6376  0.7861
  155SAPE  C21917258   3.161   3.531   7.677  0.0747  0.2618 -0.5296
  155SAPE  H19R17259   3.067   3.501   7.729 -0.1298  2.4898  0.5196
  155SAPE  H19S17260   3.183   3.626   7.732 -1.6578 -0.3962  1.4641
  155SAPE  C22017261   3.267   3.425   7.705 -0.6368 -0.1945  0.2109
  155SAPE  H20R17262   3.365   3.460   7.667 -0.2139 -0.5944  0.9096
  155SAPE  H20S17263   3.234   3.331   7.655 -2.4854  1.2607 -1.4817
  155SAPE  H20T17264   3.281   3.410   7.814  1.8107  3.5894  0.6245
  155SAPE   C3317265   2.456   4.347   6.874  0.1074 -0.0308 -0.1645
  155SAPE   H3X17266   2.380   4.418   6.912 -1.5149 -0.8756 -1.6824
  155SAPE   H3Y17267   2.554   4.399   6.866  0.0319  0.1654  0.1851
  155SAPE   C3417268   2.477   4.257   7.001  0.0449 -0.4055 -0.9449
  155SAPE   H4X17269   2.546   4.171   6.989  0.3465 -0.3262  0.0881
  155SAPE   H4Y17270   2.375   4.213   7.012 -0.0491 -0.0782 -0.4375
  155SAPE   C3517271   2.496   4.334   7.137  0.6624  0.5466 -0.3747
  155SAPE   H5X17272   2.425   4.417   7.159 -0.2222 -0.6880  1.7154
  155SAPE   H5Y17273   2.599   4.375   7.136  1.2589 -0.7220  1.9268
  155SAPE   C3617274   2.487   4.237   7.260  0.2989  0.2433 -0.6249
  155SAPE   H6X17275   2.383   4.201   7.268 -0.9660  3.7118  0.3526
  155SAPE   H6Y17276   2.512   4.288   7.356  2.3363 -1.8810  0.0531
  155SAPE   C3717277   2.568   4.101   7.246 -0.4644 -0.4308  0.2243
  155SAPE   H7X17278   2.671   4.125   7.214 -0.9891  0.9944 -0.5283
  155SAPE   H7Y17279   2.530   4.048   7.156 -1.4737  0.9870 -0.2400
  155SAPE   C3817280   2.572   4.012   7.370 -0.3062 -0.2059 -0.7487
  155SAPE   H8X17281   2.625   3.919   7.342 -2.5407 -1.2711 -1.6863
  155SAPE   H8Y17282   2.466   3.979   7.383 -0.0453 -2.1913 -3.1349
  155SAPE   C3917283   2.628   4.072   7.503 -0.5084  0.1049  0.0752
  155SAPE   H9X17284   2.552   4.141   7.545 -0.3338  0.6530 -0.4827
  155SAPE   H9Y17285   2.715   4.142   7.499 -0.4290  0.0138  0.1795
  155SAPE  C31017286   2.658   3.957   7.600 -0.1835  0.2326 -0.2524
  155SAPE  H10X17287   2.743   3.906   7.549  1.4559  2.2899  0.2585
  155SAPE  H10Y17288   2.574   3.886   7.611  1.1642 -1.3182  0.5065
  155SAPE  C31117289   2.704   4.005   7.736 -0.2297 -0.1761 -0.0792
  155SAPE  H11X17290   2.642   4.094   7.763 -0.7478 -0.0932 -1.4199
  155SAPE  H11Y17291   2.802   4.051   7.713  0.3962 -2.3073 -2.0501
  155SAPE  C31217292   2.719   3.907   7.854 -0.7198  0.0924  0.3160
  155SAPE  H12X17293   2.631   3.844   7.878 -1.8841  2.0372  1.3874
  155SAPE  H12Y17294   2.733   3.976   7.940  0.6089 -0.4356  0.5433
  155SAPE  C31317295   2.857   3.828   7.850  0.2221 -0.5063 -0.1937
  155SAPE  H13X17296   2.938   3.899   7.822 -0.1652  0.2606  0.5782
  155SAPE  H13Y17297   2.849   3.756   7.766 -2.0357  0.4024 -0.8349
  155SAPE  C31417298   2.884   3.768   7.987  0.1584 -0.2736 -0.1957
  155SAPE  H14X17299   2.814   3.685   8.011  0.5516  0.1667  2.9085
  155SAPE  H14Y17300   2.870   3.846   8.065 -1.7671 -0.4993 -0.2525
  155SAPE  C31517301   3.022   3.706   7.992 -0.3180 -0.0160 -0.4575
  155SAPE  H15X17302   3.099   3.783   7.971  0.5210 -0.2966  1.4542
  155SAPE  H15Y17303   3.019   3.622   7.919 -2.1048 -1.7775  1.5072
  155SAPE  C31617304   3.060   3.632   8.127  0.2877 -0.2059 -0.2780
  155SAPE  H16X17305   2.985   3.550   8.131 -0.2284  0.2730 -0.0220
  155SAPE  H16Y17306   3.042   3.695   8.216  1.9451  0.2441 -0.2260
  155SAPE  C31717307   3.195   3.568   8.132  0.2094  0.1457  0.1402
  155SAPE  H17X17308   3.216   3.484   8.063 -0.0818 -0.3255  0.6128
  155SAPE  H17Y17309   3.208   3.518   8.230  0.0308 -2.2508 -0.9974
  155SAPE  C31817310   3.312   3.659   8.104 -0.6337  0.5171  0.6873
  155SAPE  H18X17311   3.306   3.747   8.172 -0.9783  0.9253  0.1375
  155SAPE  H18Y17312   3.308   3.701   8.001 -1.6255 -0.4199  0.3239
  155SAPE  H18Z17313   3.407   3.603   8.093 -0.7299  0.2854  1.0300
  156SAPE     N17314   0.034   4.359   6.463 -0.5711 -0.3646  0.1103
  156SAPE   HN117315   0.096   4.416   6.524  3.6630 -3.3631 -0.9090
  156SAPE   HN217316   0.099   4.359   6.381 -0.7209  0.4398 -0.0154
  156SAPE   HN317317  -0.039   4.427   6.435 -0.3208 -0.0080  0.3146
  156SAPE   C1217318  -0.004   4.223   6.498  0.8013  0.3737  0.2742
  156SAPE  H12A17319  -0.072   4.237   6.584 -1.1360  1.2840 -1.3201
  156SAPE  H12B17320   0.084   4.169   6.538 -0.0596 -0.3243  1.2863
  156SAPE   C1117321  -0.071   4.145   6.381 -0.3323 -0.7696 -0.0023
  156SAPE  H11A17322  -0.160   4.207   6.360 -2.2426 -3.2084  0.3998
  156SAPE  H11B17323  -0.110   4.047   6.418  0.8754 -1.3913 -0.3252
  156SAPE     P17324   0.129   4.033   6.255  0.0465  0.1137  0.5452
  156SAPE   O1317325   0.071   3.907   6.209 -0.7234  0.0688  0.5984
  156SAPE   O1417326   0.228   4.101   6.173  0.0180 -0.2365 -0.2537
  156SAPE   O1217327   0.014   4.130   6.270 -0.0531 -0.3879 -0.0587
  156SAPE   O1117328   0.203   4.020   6.395  0.7635 -0.5496 -0.2193
  156SAPE    C117329   0.232   3.888   6.455  0.2315 -0.0531  0.0898
  156SAPE    HA17330   0.277   3.822   6.378 -0.4580 -0.4206 -0.0054
  156SAPE    HB17331   0.311   3.904   6.531 -1.1732  0.5881  1.4811
  156SAPE    C217332   0.109   3.808   6.516  0.2692 -0.7208 -0.3893
  156SAPE    HS17333   0.023   3.788   6.448 -1.8355  0.3012  1.8101
  156SAPE   O2117334   0.066   3.896   6.629  0.3708 -0.3457  0.4573
  156SAPE   C2117335  -0.061   3.886   6.661  0.1131  1.0422 -0.6469
  156SAPE   O2217336  -0.148   3.825   6.598 -1.1243  0.7545 -0.0999
  156SAPE   C2217337  -0.084   3.958   6.794 -0.0494  0.0983  0.4205
  156SAPE   H2R17338  -0.008   3.916   6.863 -1.4886  0.6750  2.4805
  156SAPE   H2S17339  -0.071   4.068   6.782  0.9569  0.4876  3.8436
  156SAPE    C317340   0.150   3.665   6.572 -0.3958 -0.1803 -0.6625
  156SAPE    HX17341   0.223   3.683   6.653  0.6663  1.4974 -1.9149
  156SAPE    HY17342   0.197   3.617   6.484 -2.0417  0.6549 -2.0648
  156SAPE   O3117343   0.041   3.591   6.619 -0.3578  0.4039 -0.0098
  156SAPE   C3117344  -0.040   3.525   6.544 -0.1452  0.1523  0.1435
  156SAPE   O3217345  -0.040   3.520   6.423  0.2608 -0.7349 -0.2275
  156SAPE   C3217346  -0.139   3.449   6.629 -0.4247 -1.4725 -0.1543
  156SAPE   H2X17347  -0.186   3.376   6.560  2.5518 -3.2551 -0.4806
  156SAPE   H2Y17348  -0.211   3.528   6.659 -1.1863 -1.1023 -2.7689
  156SAPE   C2317349  -0.221   3.924   6.857 -0.4533 -0.0522 -0.4358
  156SAPE   H3R17350  -0.254   3.825   6.818  0.2801 -0.5278  0.1154
  156SAPE   H3S17351  -0.294   4.002   6.829 -0.7194  0.3064  1.1383
  156SAPE   C2417352  -0.228   3.927   7.010  0.2766 -0.0483 -0.0528
  156SAPE   H4R17353  -0.156   3.853   7.052 -1.1326 -2.2036 -1.2388
  156SAPE   H4S17354  -0.331   3.889   7.026  0.6615 -1.3935 -0.5652
  156SAPE   C2517355  -0.209   4.069   7.062 -0.6854  0.1590  0.2707
  156SAPE   H5R17356  -0.150   4.144   7.007  1.6339 -1.1775  0.7754
  156SAPE   C2617357  -0.245   4.114   7.185  0.1180  0.0729 -0.8255
  156SAPE   H6R17358  -0.219   4.218   7.206 -2.9152  0.6013  0.8820
  156SAPE   C2717359  -0.321   4.040   7.290  1.0207 -0.2638 -0.8869
  156SAPE   H7R17360  -0.303   4.098   7.382  0.3036  0.5558 -1.2521
  156SAPE   H7S17361  -0.291   3.935   7.309 -1.4737 -1.3317 -2.2445
  156SAPE   C2817362  -0.474   4.042   7.251  0.2388 -0.4730  0.7134
  156SAPE   H8R17363  -0.502   3.983   7.162  0.5486 -1.0165  0.9783
  156SAPE   C2917364  -0.576   4.093   7.330 -0.3669  0.4275 -0.2634
  156SAPE   H9R17365  -0.678   4.108   7.291 -1.1021  1.0470  1.7764
  156SAPE  C21017366  -0.562   4.156   7.466  0.8084 -0.2297 -0.5460
  156SAPE  H10R17367  -0.615   4.254   7.467 -1.2382 -1.2723  0.7658
  156SAPE  H10S17368  -0.458   4.179   7.497  0.8100  0.0784 -0.7729
  156SAPE  C21117369  -0.621   4.061   7.568  0.0291  0.2811 -0.6490
  156SAPE  H11R17370  -0.603   3.955   7.545 -0.0591  0.6419 -2.5153
  156SAPE  C21217371  -0.688   4.095   7.675 -0.0607  0.1337 -0.0202
  156SAPE  H12R17372  -0.708   4.013   7.745  0.6663  0.8632  1.0772
  156SAPE  C21317373  -0.736   4.231   7.714 -0.0975 -0.1874 -0.3294
  156SAPE  H13R17374  -0.725   4.302   7.629  0.8575 -0.0289 -0.0770
  156SAPE  H13S17375  -0.664   4.256   7.795  1.3909 -3.0352 -0.6533
  156SAPE  C21417376  -0.879   4.226   7.772  0.3113  0.0642  0.3682
  156SAPE  H14R17377  -0.954   4.180   7.706 -0.8278  0.0920  1.6126
  156SAPE  C21517378  -0.910   4.264   7.896 -0.0505 -0.3848 -0.4698
  156SAPE  H15R17379  -1.014   4.260   7.930 -0.5014 -0.8385 -1.8150
  156SAPE  C21617380  -0.815   4.316   7.999 -0.1767  0.2518 -1.0590
  156SAPE  H16R17381  -0.706   4.303   7.981  0.1517  0.5368  0.6181
  156SAPE  H16S17382  -0.835   4.258   8.091 -1.9109  1.2966 -0.7314
  156SAPE  C21717383  -0.846   4.463   8.038  0.0193  0.4179 -0.4521
  156SAPE  H17R17384  -0.952   4.495   8.032 -0.6022 -1.2761  0.7615
  156SAPE  H17S17385  -0.790   4.527   7.966  0.8382  0.3675  0.1226
  156SAPE  C21817386  -0.797   4.497   8.181  0.0513  0.6555 -0.5587
  156SAPE  H18R17387  -0.694   4.457   8.186 -0.8948 -2.0607 -0.9512
  156SAPE  H18S17388  -0.865   4.446   8.252  1.2502  0.5187  0.5131
  156SAPE  C21917389  -0.790   4.649   8.215  0.0328  0.7115  0.3589
  156SAPE  H19R17390  -0.691   4.685   8.179 -0.7145  1.1764 -1.3264
  156SAPE  H19S17391  -0.781   4.659   8.325  1.3652  0.9712  0.2430
  156SAPE  C22017392  -0.907   4.729   8.159 -0.8836  0.0638  0.7829
  156SAPE  H20R17393  -0.905   4.836   8.187  0.3227  0.6648 -1.3930
  156SAPE  H20S17394  -1.003   4.684   8.193 -0.4572  0.4487  2.5820
  156SAPE  H20T17395  -0.902   4.723   8.048  0.2875  1.3753  0.7398
  156SAPE   C3317396  -0.078   3.377   6.755  0.2416 -0.7294 -0.3169
  156SAPE   H3X17397   0.019   3.329   6.729 -1.0412 -3.1264 -0.9227
  156SAPE   H3Y17398  -0.137   3.284   6.767 -1.0044  0.0600 -0.1033
  156SAPE   C3417399  -0.086   3.457   6.886  0.0063  0.6870 -0.0235
  156SAPE   H4X17400  -0.190   3.495   6.880 -0.3798 -0.5752 -3.0445
  156SAPE   H4Y17401  -0.011   3.540   6.887  1.4185 -0.5403  0.2189
  156SAPE   C3517402  -0.061   3.368   7.013  0.4528  0.4593  0.3246
  156SAPE   H5X17403   0.040   3.326   6.997  1.3464  2.2015  1.1305
  156SAPE   H5Y17404  -0.132   3.283   7.008  1.8190 -0.6473 -1.1188
  156SAPE   C3617405  -0.074   3.446   7.142  0.6665 -0.3133 -0.3212
  156SAPE   H6X17406   0.009   3.519   7.155 -0.8562  1.2022  1.5296
  156SAPE   H6Y17407  -0.070   3.366   7.219  4.6643 -1.7485 -1.7717
  156SAPE   C3717408  -0.201   3.535   7.138  0.1341  0.6486 -0.0976
  156SAPE   H7X17409  -0.294   3.481   7.113  1.7461 -1.2651 -2.4365
  156SAPE   H7Y17410  -0.190   3.609   7.056  0.3042 -0.1474 -0.8078
  156SAPE   C3817411  -0.223   3.618   7.267  0.8701  0.1152  0.0086
  156SAPE   H8X17412  -0.299   3.698   7.255  0.6026  0.1994  1.9687
  156SAPE   H8Y17413  -0.130   3.677   7.285  1.2065  0.0899 -1.5541
  156SAPE   C3917414  -0.281   3.537   7.377  0.0570  0.1304  0.2949
  156SAPE   H9X17415  -0.213   3.449   7.386  0.2492  0.1081 -1.1755
  156SAPE   H9Y17416  -0.383   3.495   7.364 -0.1220  0.3902  0.8650
  156SAPE  C31017417  -0.287   3.612   7.512  0.4615  0.1772 -0.7837
  156SAPE  H10X17418  -0.353   3.701   7.498 -0.4810 -0.1991  0.9977
  156SAPE  H10Y17419  -0.185   3.640   7.546  0.1991  0.3618 -0.1361
  156SAPE  C31117420  -0.356   3.534   7.621 -0.1817 -0.0987  0.0266
  156SAPE  H11X17421  -0.309   3.435   7.602  1.9152  0.5698  1.3906
  156SAPE  H11Y17422  -0.462   3.530   7.587  0.1344  0.1583 -1.0229
  156SAPE  C31217423  -0.342   3.586   7.759 -0.3938  0.0038 -1.2182
  156SAPE  H12X17424  -0.377   3.692   7.754 -0.7803 -0.1292 -1.4098
  156SAPE  H12Y17425  -0.232   3.588   7.769 -0.3998 -0.2668 -1.0942
  156SAPE  C31317426  -0.411   3.514   7.872 -0.3049  0.3103 -0.1455
  156SAPE  H13X17427  -0.402   3.407   7.844  1.9369 -0.1187  1.8741
  156SAPE  H13Y17428  -0.517   3.548   7.878 -0.4116  0.3558 -1.7946
  156SAPE  C31417429  -0.345   3.548   8.002 -0.5941 -0.1399  0.2605
  156SAPE  H14X17430  -0.343   3.658   8.016 -0.1169 -0.2250  0.9569
  156SAPE  H14Y17431  -0.242   3.507   7.990 -0.5031 -0.1854  1.1207
  156SAPE  C31517432  -0.411   3.499   8.133  0.6231  0.1187  0.0212
  156SAPE  H15X17433  -0.428   3.390   8.122  1.2198  0.1654 -1.5408
  156SAPE  H15Y17434  -0.517   3.530   8.143  0.0587 -1.0816 -1.7834
  156SAPE  C31617435  -0.330   3.529   8.254  0.2988  0.6285 -0.3145
  156SAPE  H16X17436  -0.281   3.626   8.274 -0.2146  0.4562  2.1471
  156SAPE  H16Y17437  -0.238   3.467   8.255  0.6534  1.1535 -0.2064
  156SAPE  C31717438  -0.411   3.490   8.375 -0.6158  0.4259 -0.6550
  156SAPE  H17X17439  -0.416   3.379   8.375 -0.0954  0.3921  0.2422
  156SAPE  H17Y17440  -0.519   3.506   8.353 -1.1007 -1.8103 -0.2094
  156SAPE  C31817441  -0.373   3.541   8.515 -0.4281  0.0068  0.1960
  156SAPE  H18X17442  -0.442   3.506   8.595 -2.5354  1.4100 -0.9044
  156SAPE  H18Y17443  -0.358   3.651   8.520 -2.4294  0.3811 -1.0246
  156SAPE  H18Z17444  -0.268   3.507   8.525  0.8771  2.7815 -2.3215
  157SAPE     N17445   5.788   4.058   6.199 -0.3721 -0.0209 -0.5138
  157SAPE   HN117446   5.884   4.038   6.165  0.6620 -0.6757  2.5403
  157SAPE   HN217447   5.806   4.058   6.301 -2.2272 -0.3955 -0.1459
  157SAPE   HN317448   5.716   3.992   6.162  0.0928  0.3336 -2.1047
  157SAPE   C1217449   5.740   4.202   6.165 -0.7559  0.4759  0.0325
  157SAPE  H12A17450   5.738   4.214   6.055  1.7978  2.8254  0.1381
  157SAPE  H12B17451   5.815   4.275   6.202  1.6319 -0.3570 -2.7785
  157SAPE   C1117452   5.603   4.242   6.221  0.0093 -0.5307  0.0556
  157SAPE  H11A17453   5.567   4.338   6.179 -1.9605 -1.1087  0.2949
  157SAPE  H11B17454   5.606   4.253   6.332 -0.9239 -1.4155  0.1894
  157SAPE     P17455   5.351   4.157   6.211 -0.0679  0.6322 -0.0915
  157SAPE   O1317456   5.300   4.256   6.106 -0.4907  0.3931 -0.0435
  157SAPE   O1417457   5.300   4.018   6.208 -0.4520  0.5713 -0.3458
  157SAPE   O1217458   5.512   4.138   6.193 -0.1219  0.1378  0.1012
  157SAPE   O1117459   5.338   4.217   6.356  0.4629  0.0779  0.0594
  157SAPE    C117460   5.348   4.120   6.464  0.4168 -0.2476  0.5003
  157SAPE    HA17461   5.271   4.041   6.451 -0.7696  0.8675  0.6247
  157SAPE    HB17462   5.445   4.066   6.465  1.6198  1.2995 -4.1966
  157SAPE    C217463   5.322   4.178   6.607 -0.1476 -0.6983 -0.0166
  157SAPE    HS17464   5.211   4.176   6.617 -0.1348 -1.0968  0.0568
  157SAPE   O2117465   5.370   4.313   6.618 -0.0090 -0.6263 -0.3292
  157SAPE   C2117466   5.314   4.385   6.709 -0.1570  0.2925 -0.5349
  157SAPE   O2217467   5.199   4.366   6.754 -0.0567 -0.4798 -0.1309
  157SAPE   C2217468   5.402   4.509   6.744 -0.0246 -0.1311 -0.1921
  157SAPE   H2R17469   5.510   4.486   6.728  0.8945  1.5219  2.8406
  157SAPE   H2S17470   5.382   4.588   6.668  0.5965 -0.4478 -0.6943
  157SAPE    C317471   5.370   4.078   6.715  0.0612 -0.1787  0.1161
  157SAPE    HX17472   5.481   4.074   6.714  0.1206  1.0615  0.4077
  157SAPE    HY17473   5.341   3.976   6.680 -1.6709  0.6475 -0.9446
  157SAPE   O3117474   5.326   4.112   6.849  0.6661 -1.0802  0.4224
  157SAPE   C3117475   5.217   4.057   6.881 -0.4542 -0.1178 -0.3831
  157SAPE   O3217476   5.159   3.970   6.818 -0.1932  0.2019 -0.6166
  157SAPE   C3217477   5.170   4.112   7.018 -0.6072 -0.6884 -0.1598
  157SAPE   H2X17478   5.180   4.222   7.021 -0.6178 -0.7105  1.7350
  157SAPE   H2Y17479   5.231   4.061   7.095 -1.9712  0.3684  1.6906
  157SAPE   C2317480   5.368   4.568   6.880 -0.1480  0.0797  0.2490
  157SAPE   H3R17481   5.385   4.495   6.962 -0.6835 -0.7839 -0.3885
  157SAPE   H3S17482   5.258   4.585   6.869 -0.1441  1.2896  1.7307
  157SAPE   C2417483   5.431   4.710   6.898  0.8833 -0.5461 -0.5068
  157SAPE   H4R17484   5.445   4.756   6.798  0.0894 -0.6910 -0.6938
  157SAPE   H4S17485   5.531   4.696   6.945  0.7853  0.2254 -0.0492
  157SAPE   C2517486   5.354   4.792   6.995 -0.5726 -0.5006 -0.2616
  157SAPE   H5R17487   5.251   4.809   6.959 -0.5245  0.9607  0.2147
  157SAPE   C2617488   5.390   4.833   7.125 -0.5876  0.1076 -0.4868
  157SAPE   H6R17489   5.321   4.899   7.179  0.2687  0.2691  0.4317
  157SAPE   C2717490   5.521   4.812   7.199  0.2744  0.1470 -0.3545
  157SAPE   H7R17491   5.549   4.904   7.254  0.9639 -1.0995  1.4641
  157SAPE   H7S17492   5.599   4.805   7.120  1.2769 -0.5245  0.6629
  157SAPE   C2817493   5.522   4.694   7.295 -0.4498  0.1213 -0.1332
  157SAPE   H8R17494   5.555   4.601   7.247 -0.2747 -0.6896  1.4951
  157SAPE   C2917495   5.481   4.679   7.425 -0.7666 -0.2265  0.5320
  157SAPE   H9R17496   5.488   4.580   7.474  2.6435 -0.6548 -0.5871
  157SAPE  C21017497   5.425   4.782   7.522  0.1843  0.0919 -0.6989
  157SAPE  H10R17498   5.512   4.815   7.582 -0.2419 -1.4138  0.8437
  157SAPE  H10S17499   5.359   4.723   7.589 -1.4537  0.7287 -1.6901
  157SAPE  C21117500   5.352   4.895   7.463 -0.0269 -0.3004  0.7181
  157SAPE  H11R17501   5.275   4.863   7.391 -1.0326  3.0768  0.1095
  157SAPE  C21217502   5.351   5.024   7.496 -0.2184  0.7097 -0.0425
  157SAPE  H12R17503   5.300   5.103   7.439 -1.9021 -0.5158 -0.3058
  157SAPE  C21317504   5.438   5.080   7.607 -0.4735  0.6286  0.1369
  157SAPE  H13R17505   5.542   5.093   7.569  0.4622  2.0214  2.9143
  157SAPE  H13S17506   5.452   5.009   7.692  0.0575 -1.0904 -1.3233
  157SAPE  C21417507   5.395   5.205   7.669 -0.1808  0.4102 -0.4349
  157SAPE  H14R17508   5.349   5.285   7.610 -0.1263  0.7189 -0.0606
  157SAPE  C21517509   5.427   5.237   7.795  0.0771 -0.5648  1.5202
  157SAPE  H15R17510   5.393   5.337   7.824  0.1578 -0.0664  0.0072
  157SAPE  C21617511   5.504   5.166   7.902  0.1876  0.6980 -0.7106
  157SAPE  H16R17512   5.568   5.088   7.857 -1.9614 -1.6005 -0.0023
  157SAPE  H16S17513   5.437   5.115   7.975  0.9162 -1.6386 -1.6016
  157SAPE  C21717514   5.595   5.259   7.981 -0.4458 -0.9148 -1.7517
  157SAPE  H17R17515   5.528   5.342   8.013  0.8494 -0.2346 -0.6787
  157SAPE  H17S17516   5.666   5.296   7.904  1.5145  1.4854  0.9696
  157SAPE  C21817517   5.671   5.206   8.104 -0.0198  0.1777 -0.1399
  157SAPE  H18R17518   5.749   5.279   8.134 -0.3151 -0.2425  1.8143
  157SAPE  H18S17519   5.734   5.117   8.081 -0.1004  0.0146  0.2563
  157SAPE  C21917520   5.577   5.176   8.220 -0.8575 -0.3242  0.1742
  157SAPE  H19R17521   5.500   5.104   8.183 -1.1853  0.1165 -0.0114
  157SAPE  H19S17522   5.527   5.273   8.241  0.0189  0.6488 -1.8571
  157SAPE  C22017523   5.637   5.103   8.342  0.0397 -0.0533  0.0276
  157SAPE  H20R17524   5.739   5.144   8.361 -0.8144  2.2354 -0.0145
  157SAPE  H20S17525   5.652   4.996   8.314 -1.5578 -0.4574  0.6469
  157SAPE  H20T17526   5.563   5.112   8.423 -0.1615  0.3182 -0.1938
  157SAPE   C3317527   5.034   4.060   7.065 -0.0391 -0.1276 -0.5921
  157SAPE   H3X17528   5.029   3.951   7.041  2.3688 -0.6708  0.9788
  157SAPE   H3Y17529   4.952   4.097   7.001 -0.4323 -0.3777 -0.2406
  157SAPE   C3417530   5.014   4.081   7.214  0.2042  0.9543  0.2239
  157SAPE   H4X17531   5.052   4.182   7.239  1.0746  0.3764  1.3624
  157SAPE   H4Y17532   5.065   4.011   7.283 -1.1506 -0.1787  0.1348
  157SAPE   C3517533   4.861   4.071   7.238 -0.0459  0.0741  0.3889
  157SAPE   H5X17534   4.853   3.960   7.232 -1.6303  0.1499  0.8447
  157SAPE   H5Y17535   4.807   4.114   7.151  1.1484  1.0385  0.0906
  157SAPE   C3617536   4.817   4.126   7.368  0.3005 -0.2480 -0.1910
  157SAPE   H6X17537   4.816   4.236   7.356 -1.9068 -0.1916  0.1029
  157SAPE   H6Y17538   4.896   4.093   7.439  0.7893 -0.9256 -1.0279
  157SAPE   C3717539   4.680   4.083   7.403  0.8858  0.5390 -0.1584
  157SAPE   H7X17540   4.670   3.975   7.425 -0.9818  0.8536  0.6829
  157SAPE   H7Y17541   4.612   4.107   7.319 -0.0250 -1.3617 -0.0166
  157SAPE   C3817542   4.634   4.159   7.532 -0.8392  0.4258 -0.2820
  157SAPE   H8X17543   4.525   4.154   7.552 -0.5411  1.9413  2.1074
  157SAPE   H8Y17544   4.662   4.264   7.514  1.8845  0.1048  1.4736
  157SAPE   C3917545   4.715   4.107   7.648 -0.2862  0.6395 -0.6033
  157SAPE   H9X17546   4.825   4.120   7.641 -0.2712  0.7774 -0.1570
  157SAPE   H9Y17547   4.687   3.999   7.655 -1.7390  1.0193  6.1135
  157SAPE  C31017548   4.682   4.170   7.779  0.4849  0.0030 -0.2970
  157SAPE  H10X17549   4.573   4.157   7.792  0.5011 -0.4011 -0.5671
  157SAPE  H10Y17550   4.712   4.277   7.783 -1.3877  0.5162  0.8514
  157SAPE  C31117551   4.772   4.119   7.895 -0.0194 -0.4753 -0.2171
  157SAPE  H11X17552   4.879   4.149   7.885  0.2603 -0.5611  2.0231
  157SAPE  H11Y17553   4.775   4.008   7.896 -0.1978 -0.5247  2.3917
  157SAPE  C31217554   4.731   4.162   8.040 -0.7311  0.3582  0.6047
  157SAPE  H12X17555   4.622   4.141   8.048 -0.4832 -0.4290  2.3772
  157SAPE  H12Y17556   4.747   4.271   8.055  1.9002  0.0490  0.4795
  157SAPE  C31317557   4.795   4.097   8.162 -0.2858  0.0537  0.0660
  157SAPE  H13X17558   4.759   4.155   8.250 -0.6627  0.9540 -0.6661
  157SAPE  H13Y17559   4.904   4.108   8.148 -0.3320  1.0621  0.4405
  157SAPE  C31417560   4.760   3.952   8.186  0.2658  0.3910 -0.7965
  157SAPE  H14X17561   4.739   3.892   8.095  0.8608 -2.0361  0.5650
  157SAPE  H14Y17562   4.659   3.954   8.233  0.4645 -0.2065 -0.3200
  157SAPE  C31517563   4.840   3.866   8.284 -0.4192  0.4715  0.3435
  157SAPE  H15X17564   4.942   3.845   8.245 -0.8507 -0.9533 -0.0669
  157SAPE  H15Y17565   4.784   3.771   8.299 -1.6328  1.2672  1.0089
  157SAPE  C31617566   4.872   3.924   8.421  0.3058  0.0552 -0.4172
  157SAPE  H16X17567   4.863   3.849   8.502  0.3284  1.5911  1.0909
  157SAPE  H16Y17568   4.788   3.992   8.447  0.5161  0.9575 -1.9559
  157SAPE  C31717569   5.001   4.002   8.442  0.4565  0.3811 -0.1760
  157SAPE  H17X17570   5.014   4.066   8.352 -0.6941  0.8512 -0.0232
  157SAPE  H17Y17571   5.084   3.929   8.442  0.0892 -0.0608  1.3583
  157SAPE  C31817572   4.994   4.068   8.575  0.1576  0.3320 -0.4690
  157SAPE  H18X17573   4.982   3.980   8.641  0.8553 -0.1902 -1.0192
  157SAPE  H18Y17574   4.901   4.127   8.588 -0.5703 -0.6875 -0.8669
  157SAPE  H18Z17575   5.084   4.119   8.616  0.6127 -3.1028  3.4349
  158SAPE     N17576   5.316   2.956   6.082 -0.5479 -0.6008  0.3569
  158SAPE   HN117577   5.270   3.003   6.162 -0.0814  0.1828  0.1768
  158SAPE   HN217578   5.396   3.012   6.045 -1.2149  0.2516  0.1790
  158SAPE   HN317579   5.251   2.957   6.001 -0.2686 -0.4543  0.1322
  158SAPE   C1217580   5.375   2.823   6.108 -0.1031 -0.2459  0.0418
  158SAPE  H12A17581   5.432   2.786   6.021 -0.3937  1.4377 -0.8983
  158SAPE  H12B17582   5.298   2.752   6.145  0.7195 -0.6315  1.0543
  158SAPE   C1117583   5.485   2.836   6.214 -0.2734  0.1617  0.2373
  158SAPE  H11A17584   5.518   2.731   6.230 -0.7748  0.0170  0.3236
  158SAPE  H11B17585   5.440   2.877   6.306  0.6162  1.6781  0.0184
  158SAPE     P17586   5.716   2.959   6.240 -0.4983  0.4226 -0.2492
  158SAPE   O1317587   5.807   2.845   6.237  0.0707  0.0151 -0.4694
  158SAPE   O1417588   5.765   3.095   6.205  0.2656  0.3591  0.4655
  158SAPE   O1217589   5.585   2.925   6.158  0.9380  0.0117  0.3987
  158SAPE   O1117590   5.657   2.965   6.386  0.4180 -0.7099  0.0058
  158SAPE    C117591   5.579   3.079   6.429  0.1094 -0.3517  0.1389
  158SAPE    HA17592   5.520   3.127   6.348 -1.0140 -2.1214 -0.1525
  158SAPE    HB17593   5.517   3.040   6.513 -0.5019 -2.3412 -1.1616
  158SAPE    C217594   5.669   3.192   6.493  0.4015 -0.2716  0.3592
  158SAPE    HS17595   5.738   3.222   6.412 -0.7702 -1.3328 -1.0752
  158SAPE   O2117596   5.726   3.148   6.616  0.1708  0.0538  0.4078
  158SAPE   C2117597   5.849   3.095   6.611  0.4770 -0.4603  0.4110
  158SAPE   O2217598   5.914   3.100   6.512 -0.1659  0.8904  0.0059
  158SAPE   C2217599   5.887   3.044   6.744 -0.2306  1.1368 -0.2608
  158SAPE   H2R17600   5.878   3.124   6.821 -0.3399 -1.1881  2.2810
  158SAPE   H2S17601   5.809   2.976   6.785  0.4913  0.6514  0.3336
  158SAPE    C317602   5.585   3.323   6.521 -0.8991  0.8656  0.0191
  158SAPE    HX17603   5.497   3.290   6.579 -0.7098 -1.1347 -0.7636
  158SAPE    HY17604   5.560   3.353   6.417  0.3310 -1.1957 -0.9291
  158SAPE   O3117605   5.651   3.425   6.593  0.2818 -0.6722 -0.2209
  158SAPE   C3117606   5.760   3.476   6.548  0.4729  0.6194  0.7049
  158SAPE   O3217607   5.819   3.444   6.446  0.0199  0.4698 -0.4828
  158SAPE   C3217608   5.811   3.578   6.644 -0.4870 -0.8158 -0.0370
  158SAPE   H2X17609   5.728   3.649   6.665  0.4235  0.3028 -0.1307
  158SAPE   H2Y17610   5.885   3.635   6.584 -0.8784  0.1515  0.3898
  158SAPE   C2317611   6.021   2.973   6.751 -0.1672  0.1746 -0.4786
  158SAPE   H3R17612   6.099   3.044   6.715 -0.9647  0.8458 -0.9236
  158SAPE   H3S17613   6.027   2.889   6.678 -0.9773 -2.4120  2.2454
  158SAPE   C2417614   6.059   2.910   6.889  0.6803 -0.4127  0.7312
  158SAPE   H4R17615   5.986   2.833   6.921  1.6810 -2.3609 -1.3417
  158SAPE   H4S17616   6.058   2.977   6.977 -2.2593 -0.3398  0.7335
  158SAPE   C2517617   6.196   2.848   6.875 -0.3942  0.3115  0.5460
  158SAPE   H5R17618   6.240   2.839   6.775  1.2995 -0.4741  1.3339
  158SAPE   C2617619   6.269   2.803   6.975  0.4698  0.5746  0.3803
  158SAPE   H6R17620   6.367   2.760   6.950  0.0623  0.4187 -1.0420
  158SAPE   C2717621   6.227   2.811   7.121  0.2455 -0.4954  0.7534
  158SAPE   H7R17622   6.124   2.853   7.126 -0.0679 -1.3152  1.5778
  158SAPE   H7S17623   6.296   2.885   7.167  2.6502 -0.1163 -3.0053
  158SAPE   C2817624   6.221   2.683   7.200  0.5041  1.1015 -0.0014
  158SAPE   H8R17625   6.209   2.595   7.135  2.7050  3.2657 -3.6605
  158SAPE   C2917626   6.248   2.671   7.333 -0.4493 -0.7892 -0.0012
  158SAPE   H9R17627   6.241   2.571   7.380 -3.5296 -0.4142  0.5174
  158SAPE  C21017628   6.275   2.781   7.431 -0.0311 -0.2964 -0.1403
  158SAPE  H10R17629   6.182   2.801   7.488  1.0107 -2.4914  2.5713
  158SAPE  H10S17630   6.299   2.876   7.380  1.1522 -0.7862 -0.5356
  158SAPE  C21117631   6.386   2.740   7.530 -0.9683 -0.7430 -0.6861
  158SAPE  H11R17632   6.475   2.711   7.472 -0.7205 -1.3343 -0.0315
  158SAPE  C21217633   6.388   2.731   7.664  0.0289  0.4449  0.6300
  158SAPE  H12R17634   6.478   2.697   7.716 -0.4023  0.1533  1.1943
  158SAPE  C21317635   6.268   2.769   7.752  0.4296  0.2286 -0.2065
  158SAPE  H13R17636   6.185   2.805   7.688 -2.0841 -0.8098  2.2635
  158SAPE  H13S17637   6.293   2.864   7.804 -2.2573  0.6932  0.3978
  158SAPE  C21417638   6.224   2.650   7.840 -0.4898 -1.5002  0.5314
  158SAPE  H14R17639   6.189   2.562   7.784  2.0513 -1.6451 -0.9999
  158SAPE  C21517640   6.205   2.644   7.972 -0.3054  0.2923  0.5680
  158SAPE  H15R17641   6.161   2.551   8.011 -0.1462  0.2434  0.6317
  158SAPE  C21617642   6.221   2.763   8.061 -0.0376 -0.0327 -0.3456
  158SAPE  H16R17643   6.141   2.764   8.138  0.5809  0.1808  0.3083
  158SAPE  H16S17644   6.216   2.860   8.008 -0.9443  1.4965  2.3236
  158SAPE  C21717645   6.363   2.767   8.136  0.3509  0.0092 -0.4335
  158SAPE  H17R17646   6.349   2.703   8.226 -1.7421  1.7691  0.6129
  158SAPE  H17S17647   6.382   2.872   8.168  0.7770 -0.1771 -0.0640
  158SAPE  C21817648   6.483   2.729   8.048 -0.0253 -0.1058  0.4467
  158SAPE  H18R17649   6.464   2.787   7.955 -2.5334 -0.3972  0.6997
  158SAPE  H18S17650   6.475   2.625   8.009 -1.6230  0.5212 -1.0260
  158SAPE  C21917651   6.621   2.742   8.115  0.0925  0.1005 -0.1602
  158SAPE  H19R17652   6.638   2.663   8.191  1.5861 -0.8272 -1.4023
  158SAPE  H19S17653   6.611   2.839   8.168 -1.7275 -1.2312  2.1040
  158SAPE  C22017654   6.728   2.742   8.009 -0.1560  0.2555  0.0614
  158SAPE  H20R17655   6.737   2.646   7.954 -0.9780  0.3255 -0.2133
  158SAPE  H20S17656   6.830   2.778   8.034 -0.2093  1.8686 -1.8337
  158SAPE  H20T17657   6.701   2.816   7.931  1.0867  0.0647 -0.5819
  158SAPE   C3317658   5.876   3.543   6.785  0.5676  0.3535  0.5024
  158SAPE   H3X17659   5.944   3.617   6.832 -0.3952  1.5512  0.0614
  158SAPE   H3Y17660   5.931   3.447   6.776  0.9544  0.4484  1.6851
  158SAPE   C3417661   5.760   3.517   6.888 -0.6435  0.6895 -0.2270
  158SAPE   H4X17662   5.695   3.445   6.835  0.8405 -2.8724  2.3615
  158SAPE   H4Y17663   5.702   3.612   6.892 -2.9349 -0.6569  0.1295
  158SAPE   C3517664   5.805   3.481   7.032 -0.1740  0.0474 -0.3161
  158SAPE   H5X17665   5.882   3.555   7.063  1.0344 -0.7717 -1.2378
  158SAPE   H5Y17666   5.858   3.383   7.034 -1.3052 -0.6835 -2.7635
  158SAPE   C3617667   5.691   3.486   7.140  0.5453 -0.2368 -0.5497
  158SAPE   H6X17668   5.607   3.430   7.094  0.8303 -1.6541  0.5974
  158SAPE   H6Y17669   5.675   3.595   7.151  0.6593 -0.1693 -1.0269
  158SAPE   C3717670   5.720   3.418   7.274  0.2570 -0.2075 -0.5646
  158SAPE   H7X17671   5.738   3.309   7.263  1.6676 -0.1289  0.6713
  158SAPE   H7Y17672   5.817   3.454   7.313  0.0479 -0.0903 -0.1451
  158SAPE   C3817673   5.612   3.436   7.378 -0.5400 -0.4406  0.4039
  158SAPE   H8X17674   5.534   3.359   7.356  1.7165 -1.9600 -3.3041
  158SAPE   H8Y17675   5.579   3.541   7.364 -1.7536 -0.8620 -0.1235
  158SAPE   C3917676   5.658   3.411   7.527 -0.7960  0.1600 -0.0570
  158SAPE   H9X17677   5.732   3.492   7.545  0.3901 -1.0243  0.6395
  158SAPE   H9Y17678   5.708   3.312   7.535 -0.2887  0.5140  1.4292
  158SAPE  C31017679   5.560   3.433   7.643  0.0197  0.1052 -0.3684
  158SAPE  H10X17680   5.475   3.361   7.642  1.3472 -1.5093 -1.9453
  158SAPE  H10Y17681   5.526   3.539   7.643  0.0038  0.1465 -2.4194
  158SAPE  C31117682   5.627   3.409   7.787 -0.3819  0.2470  0.2217
  158SAPE  H11X17683   5.722   3.464   7.805 -1.2920  2.4297 -1.1807
  158SAPE  H11Y17684   5.659   3.303   7.782  0.6257  0.5929 -1.6894
  158SAPE  C31217685   5.530   3.424   7.900 -0.0892  0.4921 -0.5084
  158SAPE  H12X17686   5.565   3.358   7.982  0.2356  1.0101 -0.2247
  158SAPE  H12Y17687   5.424   3.401   7.877 -0.3392 -1.6091  2.2848
  158SAPE  C31317688   5.551   3.566   7.965 -0.5967 -0.3909  0.5504
  158SAPE  H13X17689   5.564   3.625   7.872 -0.0733 -0.9723  0.2435
  158SAPE  H13Y17690   5.643   3.567   8.026 -1.3548 -0.6241  1.7278
  158SAPE  C31417691   5.439   3.619   8.045 -0.1161  0.4989  0.4914
  158SAPE  H14X17692   5.385   3.538   8.099  0.1820  0.3841  0.6153
  158SAPE  H14Y17693   5.370   3.668   7.972 -0.7187  1.1288  1.4549
  158SAPE  C31517694   5.492   3.729   8.144 -0.3589 -0.0893  0.6118
  158SAPE  H15X17695   5.554   3.797   8.083 -1.3348  0.0268 -0.2794
  158SAPE  H15Y17696   5.559   3.692   8.225 -2.1706  0.2662  2.3765
  158SAPE  C31617697   5.386   3.819   8.214  0.0739  0.2950 -0.6034
  158SAPE  H16X17698   5.324   3.745   8.270  2.0921 -2.2522 -1.5293
  158SAPE  H16Y17699   5.342   3.872   8.127  1.7300  1.0065 -1.0367
  158SAPE  C31717700   5.438   3.918   8.316  0.0813  0.2862  0.2312
  158SAPE  H17X17701   5.474   3.865   8.407 -1.6593  0.6229  1.1630
  158SAPE  H17Y17702   5.348   3.976   8.346  0.1323  0.8802 -0.7027
  158SAPE  C31817703   5.551   4.004   8.267 -0.4474 -0.6006 -0.5897
  158SAPE  H18X17704   5.646   3.948   8.274  0.3568  0.6714 -0.9626
  158SAPE  H18Y17705   5.578   4.095   8.326  0.4016 -0.7751 -0.6974
  158SAPE  H18Z17706   5.531   4.035   8.163  1.8836 -0.9918 -1.2012
  159SAPE     N17707   5.779   0.437   6.150  0.4871  0.2687  0.6282
  159SAPE   HN117708   5.720   0.401   6.072  1.6231 -1.9163  0.6929
  159SAPE   HN217709   5.795   0.539   6.137  1.8213 -0.1187 -1.3561
  159SAPE   HN317710   5.876   0.404   6.131 -0.3309 -1.0183 -1.8120
  159SAPE   C1217711   5.726   0.390   6.282  0.1473  0.1861  0.7189
  159SAPE  H12A17712   5.669   0.476   6.323 -0.0282  0.1243  0.6057
  159SAPE  H12B17713   5.816   0.381   6.347  0.2794 -0.2643  0.4749
  159SAPE   C1117714   5.651   0.256   6.278  0.2421  0.4302  0.5104
  159SAPE  H11A17715   5.575   0.268   6.358  0.0795 -0.2508  0.4629
  159SAPE  H11B17716   5.722   0.172   6.291  0.4996 -0.0260 -2.9291
  159SAPE     P17717   5.572   0.093   6.097 -0.3632 -0.1845  0.1204
  159SAPE   O1317718   5.453   0.084   6.011 -0.0692 -0.0832  0.3094
  159SAPE   O1417719   5.705   0.068   6.035  0.4244  0.6757  0.5400
  159SAPE   O1217720   5.574   0.239   6.164 -0.4045 -0.2816  0.1809
  159SAPE   O1117721   5.565  -0.006   6.214  0.2712 -0.2463  0.8586
  159SAPE    C117722   5.430  -0.056   6.243 -0.1888 -0.2939  0.0367
  159SAPE    HA17723   5.358   0.028   6.245 -0.0817 -0.1196 -1.7383
  159SAPE    HB17724   5.400  -0.129   6.165  0.6309  0.8026 -1.3644
  159SAPE    C217725   5.414  -0.128   6.379 -0.0085 -0.2180  1.5789
  159SAPE    HS17726   5.304  -0.129   6.399 -0.6253  0.0023 -1.2831
  159SAPE   O2117727   5.493  -0.061   6.480 -0.3012 -0.1097  0.3659
  159SAPE   C2117728   5.425   0.045   6.526 -0.5960 -0.0670  0.1112
  159SAPE   O2217729   5.311   0.076   6.493  0.2731  0.1360 -0.0539
  159SAPE   C2217730   5.511   0.114   6.627 -0.2713  0.2440  0.2280
  159SAPE   H2R17731   5.543   0.048   6.710  1.5700  0.5783 -0.1811
  159SAPE   H2S17732   5.607   0.140   6.577 -0.5287  0.5144 -0.1333
  159SAPE    C317733   5.463  -0.273   6.372 -0.3211 -0.2669 -0.6492
  159SAPE    HX17734   5.572  -0.264   6.353  0.0845 -0.7080  1.2676
  159SAPE    HY17735   5.409  -0.328   6.291 -0.9801 -1.3530  0.4820
  159SAPE   O3117736   5.445  -0.352   6.490  0.6401  0.0645 -0.0975
  159SAPE   C3117737   5.544  -0.358   6.576 -0.1807 -0.4921 -0.3851
  159SAPE   O3217738   5.651  -0.292   6.576  0.6458  0.8853 -0.3511
  159SAPE   C3217739   5.502  -0.453   6.684  0.1189  0.3250 -0.0364
  159SAPE   H2X17740   5.529  -0.558   6.659  1.5062  0.5206  0.5287
  159SAPE   H2Y17741   5.392  -0.441   6.695 -0.3024 -2.8255  0.0819
  159SAPE   C2317742   5.451   0.254   6.680 -1.3697 -0.3596  0.3134
  159SAPE   H3R17743   5.448   0.327   6.596  1.1694  0.9919  1.2849
  159SAPE   H3S17744   5.527   0.297   6.749 -2.0099  1.6255 -0.1389
  159SAPE   C2417745   5.324   0.252   6.753  0.3355  0.5564 -1.0781
  159SAPE   H4R17746   5.312   0.163   6.819 -2.7567 -1.0254 -3.4960
  159SAPE   H4S17747   5.246   0.219   6.681  0.6311  0.4239 -1.3397
  159SAPE   C2517748   5.280   0.385   6.803  1.0085  0.5160 -0.7129
  159SAPE   H5R17749   5.290   0.471   6.735  0.8093 -0.2970 -1.7925
  159SAPE   C2617750   5.225   0.414   6.925 -0.4079  0.6477  0.6048
  159SAPE   H6R17751   5.194   0.517   6.945 -0.8511  0.9426 -1.3846
  159SAPE   C2717752   5.208   0.311   7.036 -0.7375  0.1333 -0.2535
  159SAPE   H7R17753   5.228   0.359   7.134 -0.9459  1.4390 -0.8372
  159SAPE   H7S17754   5.285   0.231   7.036 -1.1555 -0.2799 -1.2349
  159SAPE   C2817755   5.073   0.241   7.038 -0.2900  0.3453  0.2562
  159SAPE   H8R17756   5.037   0.231   6.934  2.4024 -2.2560 -0.5268
  159SAPE   C2917757   4.993   0.211   7.140  0.0882 -0.2309 -0.0495
  159SAPE   H9R17758   4.904   0.147   7.129  0.2985 -0.5185 -0.0805
  159SAPE  C21017759   5.015   0.245   7.283  0.5927 -1.1383  0.5956
  159SAPE  H10R17760   4.916   0.281   7.315 -0.0841  0.4031 -2.7996
  159SAPE  H10S17761   5.076   0.338   7.278 -1.3214  0.1230 -0.7540
  159SAPE  C21117762   5.084   0.135   7.358  0.0956 -0.6673 -0.3513
  159SAPE  H11R17763   5.125   0.046   7.308  1.3270 -1.5040  2.0171
  159SAPE  C21217764   5.092   0.135   7.490 -0.5018  0.2761 -0.2193
  159SAPE  H12R17765   5.151   0.057   7.541  0.2635  1.7449  1.2557
  159SAPE  C21317766   5.021   0.237   7.578  0.3955  0.3144 -0.2249
  159SAPE  H13R17767   4.947   0.183   7.640  1.7525  1.9192  3.0529
  159SAPE  H13S17768   4.976   0.317   7.515  0.0821 -0.1148 -0.5570
  159SAPE  C21417769   5.128   0.299   7.652 -0.1661  0.3755  0.1806
  159SAPE  H14R17770   5.211   0.351   7.602 -1.1103  2.6134  0.7816
  159SAPE  C21517771   5.135   0.295   7.787 -0.7350  0.5358 -0.3873
  159SAPE  H15R17772   5.219   0.349   7.832  2.1200 -2.6759 -1.4047
  159SAPE  C21617773   5.046   0.231   7.888  0.0030 -0.1804 -0.6283
  159SAPE  H16R17774   5.099   0.167   7.961 -0.0263  0.4776 -0.0198
  159SAPE  H16S17775   4.957   0.178   7.846 -2.4810  2.2526  1.1467
  159SAPE  C21717776   4.987   0.329   7.988  0.0216 -0.1517 -0.0677
  159SAPE  H17R17777   4.910   0.277   8.050 -1.0045  1.3690 -0.0118
  159SAPE  H17S17778   4.937   0.403   7.922 -1.5790  0.7021  1.9736
  159SAPE  C21817779   5.089   0.400   8.079 -0.0076 -0.8288 -0.4522
  159SAPE  H18R17780   5.180   0.438   8.027 -0.0332  0.2923  0.2858
  159SAPE  H18S17781   5.112   0.342   8.171 -2.0549  1.2755  1.5166
  159SAPE  C21917782   5.035   0.539   8.135  0.0278  0.1771  0.1388
  159SAPE  H19R17783   5.007   0.596   8.044  1.5642 -1.0860 -1.1841
  159SAPE  H19S17784   5.121   0.589   8.186 -0.1023 -0.7034  1.2644
  159SAPE  C22017785   4.915   0.535   8.226 -0.1911 -0.2031  0.3256
  159SAPE  H20R17786   4.904   0.641   8.257 -0.4731  0.1542 -0.9740
  159SAPE  H20S17787   4.918   0.481   8.323 -0.2412  0.0068  0.4453
  159SAPE  H20T17788   4.832   0.492   8.166  0.1595 -0.4456  0.0139
  159SAPE   C3317789   5.564  -0.412   6.822  0.5012 -0.0816  0.2648
  159SAPE   H3X17790   5.536  -0.308   6.850 -1.3916 -0.8838  1.5866
  159SAPE   H3Y17791   5.675  -0.419   6.825  0.4486 -0.7445  1.0050
  159SAPE   C3417792   5.518  -0.504   6.933  0.7686  0.8209 -0.2855
  159SAPE   H4X17793   5.560  -0.606   6.919 -1.8017 -0.1563 -1.5078
  159SAPE   H4Y17794   5.409  -0.519   6.942  0.6912 -0.8257 -2.8071
  159SAPE   C3517795   5.563  -0.458   7.072 -0.5462 -0.4931  0.6264
  159SAPE   H5X17796   5.548  -0.348   7.075  0.0646 -0.4209  1.2415
  159SAPE   H5Y17797   5.672  -0.477   7.082 -0.4375 -0.2185  0.0143
  159SAPE   C3617798   5.486  -0.527   7.191 -0.3179 -0.8468  0.0052
  159SAPE   H6X17799   5.526  -0.628   7.211 -0.5908 -0.3075  4.0509
  159SAPE   H6Y17800   5.377  -0.522   7.168 -0.1619  0.4607 -0.5506
  159SAPE   C3717801   5.489  -0.446   7.321  0.2157 -1.2570 -0.4557
  159SAPE   H7X17802   5.414  -0.368   7.298 -0.4262 -1.2158  1.6110
  159SAPE   H7Y17803   5.584  -0.389   7.328 -0.8092  0.7307 -1.9414
  159SAPE   C3817804   5.445  -0.522   7.437  0.7713 -0.2643  0.3969
  159SAPE   H8X17805   5.541  -0.572   7.460  1.1962  0.0650 -0.6069
  159SAPE   H8Y17806   5.365  -0.598   7.421  1.1660 -0.2517 -2.0200
  159SAPE   C3917807   5.397  -0.439   7.557  0.0992 -1.1464  0.1968
  159SAPE   H9X17808   5.300  -0.393   7.529  0.7797  0.3129  0.1233
  159SAPE   H9Y17809   5.472  -0.361   7.584  1.1061 -1.2267 -2.1789
  159SAPE  C31017810   5.375  -0.510   7.695  0.3321 -0.3527  0.4244
  159SAPE  H10X17811   5.471  -0.536   7.744 -1.1396 -2.8262  2.3019
  159SAPE  H10Y17812   5.318  -0.605   7.688 -1.2925  0.6162 -0.0069
  159SAPE  C31117813   5.281  -0.429   7.782  0.0467 -0.8824  0.2511
  159SAPE  H11X17814   5.186  -0.403   7.732 -0.4006 -0.9215  1.0721
  159SAPE  H11Y17815   5.330  -0.329   7.791 -1.9850  0.4495 -2.2455
  159SAPE  C31217816   5.245  -0.486   7.921 -0.6572  0.6226 -0.0504
  159SAPE  H12X17817   5.340  -0.501   7.976  0.4049 -2.3805 -2.4317
  159SAPE  H12Y17818   5.199  -0.587   7.914  0.1153  0.2229  0.5458
  159SAPE  C31317819   5.148  -0.398   8.002  0.1162  0.2706  0.1783
  159SAPE  H13X17820   5.062  -0.361   7.943  0.6503  0.9210 -0.2016
  159SAPE  H13Y17821   5.196  -0.307   8.043 -0.3451  0.4514  0.3246
  159SAPE  C31417822   5.079  -0.473   8.111 -0.8607  0.1598  0.0308
  159SAPE  H14X17823   5.149  -0.548   8.154 -0.3392  0.2106 -0.7086
  159SAPE  H14Y17824   5.001  -0.536   8.064  0.2877  0.1702 -1.9712
  159SAPE  C31517825   5.018  -0.378   8.223 -0.6697  0.1799  0.4771
  159SAPE  H15X17826   4.964  -0.300   8.165  0.8574  0.3514 -0.7846
  159SAPE  H15Y17827   5.102  -0.322   8.270 -1.2848  2.8218 -1.3420
  159SAPE  C31617828   4.926  -0.468   8.317 -0.3842  0.5978 -0.2558
  159SAPE  H16X17829   4.899  -0.412   8.409 -2.0328 -1.5781  0.6642
  159SAPE  H16Y17830   4.988  -0.550   8.359 -1.6162  0.7187  1.9634
  159SAPE  C31717831   4.796  -0.519   8.247  0.8691  0.4808 -0.4242
  159SAPE  H17X17832   4.806  -0.625   8.216  1.9542  0.1927  0.8236
  159SAPE  H17Y17833   4.779  -0.457   8.156 -0.5476 -0.4777 -0.8406
  159SAPE  C31817834   4.670  -0.510   8.335  0.5185 -0.1606 -0.6756
  159SAPE  H18X17835   4.579  -0.518   8.272  0.9537 -0.2290 -1.3013
  159SAPE  H18Y17836   4.669  -0.418   8.398 -0.0879 -1.2397  0.9515
  159SAPE  H18Z17837   4.666  -0.602   8.396 -0.7769 -0.7338 -1.5771
  160SAPE     N17838   6.336   4.859   6.299 -0.3394  0.8358  0.1629
  160SAPE   HN117839   6.355   4.913   6.213 -1.4677  2.3361  0.8154
  160SAPE   HN217840   6.259   4.911   6.346 -1.3520  0.2216 -0.7493
  160SAPE   HN317841   6.421   4.865   6.358  2.4044 -2.0932 -3.0754
  160SAPE   C1217842   6.291   4.715   6.275  0.5185  1.0322  0.0170
  160SAPE  H12A17843   6.198   4.727   6.217  0.8809  0.3228 -0.7364
  160SAPE  H12B17844   6.260   4.660   6.367  1.3430 -2.6775 -1.7484
  160SAPE   C1117845   6.394   4.642   6.192  0.0351 -0.4944  0.6387
  160SAPE  H11A17846   6.423   4.684   6.093 -2.0185  0.1175  0.2438
  160SAPE  H11B17847   6.337   4.548   6.177 -3.5976  1.7833 -1.4181
  160SAPE     P17848   6.546   4.502   6.356 -0.4286 -0.4495  0.4049
  160SAPE   O1317849   6.525   4.379   6.277 -0.1779 -0.8651 -0.0338
  160SAPE   O1417850   6.674   4.533   6.423 -0.1569 -0.4605 -0.9907
  160SAPE   O1217851   6.513   4.635   6.263  0.8504 -0.1092  0.6602
  160SAPE   O1117852   6.437   4.518   6.459  0.0694 -0.0292 -0.6717
  160SAPE    C117853   6.447   4.601   6.579 -0.7850  0.6753 -0.7085
  160SAPE    HA17854   6.498   4.699   6.567 -1.4549  1.4468  2.1217
  160SAPE    HB17855   6.348   4.646   6.603 -0.0747  2.4832 -1.0159
  160SAPE    C217856   6.491   4.525   6.703  0.2968  0.0453 -0.1537
  160SAPE    HS17857   6.586   4.475   6.674  0.4734 -0.0726  0.6199
  160SAPE   O2117858   6.387   4.439   6.740 -0.1086 -0.0834  0.3886
  160SAPE   C2117859   6.410   4.309   6.754 -0.3646  0.4733  0.1046
  160SAPE   O2217860   6.515   4.251   6.743  0.5604 -0.5561  0.1175
  160SAPE   C2217861   6.285   4.248   6.815  0.5289  0.1494  0.0251
  160SAPE   H2R17862   6.193   4.286   6.766 -0.1750 -0.4132  0.8786
  160SAPE   H2S17863   6.274   4.144   6.776 -3.7741  0.4456  0.0312
  160SAPE    C317864   6.533   4.624   6.818  0.4590 -0.2792 -0.4619
  160SAPE    HX17865   6.436   4.671   6.847  0.2462 -1.6859  1.3027
  160SAPE    HY17866   6.618   4.685   6.783  1.1348 -2.2584 -2.4629
  160SAPE   O3117867   6.570   4.541   6.934  0.1084 -0.2330  0.0163
  160SAPE   C3117868   6.578   4.610   7.044 -0.2664 -0.0215 -0.4924
  160SAPE   O3217869   6.580   4.729   7.050 -0.3716  0.6999  0.1918
  160SAPE   C3217870   6.560   4.510   7.158 -0.9613 -0.0093 -0.0977
  160SAPE   H2X17871   6.655   4.452   7.162 -0.4725  0.7748 -0.0716
  160SAPE   H2Y17872   6.479   4.440   7.131 -0.8563  0.9294 -3.1847
  160SAPE   C2317873   6.291   4.258   6.971  0.4757 -0.6085 -0.1935
  160SAPE   H3R17874   6.394   4.262   7.012 -0.8679  1.1399  3.5633
  160SAPE   H3S17875   6.248   4.168   7.020 -0.0787 -0.3365 -0.1608
  160SAPE   C2417876   6.214   4.382   7.017 -0.6484 -0.0579 -0.9879
  160SAPE   H4R17877   6.258   4.472   6.968 -0.4923  1.1523  1.2310
  160SAPE   H4S17878   6.247   4.392   7.123  2.9221  4.1928 -2.2129
  160SAPE   C2517879   6.064   4.367   7.006 -0.5998  0.2632 -0.4322
  160SAPE   H5R17880   6.035   4.338   6.904  0.9455 -0.3103 -0.7455
  160SAPE   C2617881   5.973   4.404   7.103 -0.6996 -0.2919  0.4331
  160SAPE   H6R17882   5.868   4.399   7.072 -0.4548  2.4863 -1.2372
  160SAPE   C2717883   5.987   4.456   7.246 -0.8453  0.1027 -0.1118
  160SAPE   H7R17884   6.084   4.433   7.294 -0.6240  1.1231 -0.0610
  160SAPE   H7S17885   5.933   4.379   7.306  0.6079 -1.2716 -0.5042
  160SAPE   C2817886   5.925   4.590   7.260 -0.5993 -0.0243  0.0823
  160SAPE   H8R17887   5.932   4.649   7.168 -2.0529 -2.8614 -2.0075
  160SAPE   C2917888   5.864   4.624   7.375  0.0221 -0.0028 -0.6274
  160SAPE   H9R17889   5.808   4.719   7.379  0.1272  0.0420 -0.1441
  160SAPE  C21017890   5.852   4.533   7.500  0.2758 -0.4688 -0.4518
  160SAPE  H10R17891   5.932   4.455   7.501 -0.6123 -1.4113  1.1692
  160SAPE  H10S17892   5.753   4.485   7.490  0.8205 -1.2608 -2.6591
  160SAPE  C21117893   5.854   4.613   7.629 -0.0795 -0.1393 -0.1941
  160SAPE  H11R17894   5.760   4.639   7.680 -1.1274 -1.8227 -1.2143
  160SAPE  C21217895   5.966   4.658   7.694 -0.8296 -0.5226 -0.1952
  160SAPE  H12R17896   5.951   4.729   7.777  0.4224 -0.8193  0.3151
  160SAPE  C21317897   6.107   4.653   7.647  0.0839 -0.1491  0.2423
  160SAPE  H13R17898   6.110   4.604   7.547  0.9711 -1.8949  1.0644
  160SAPE  H13S17899   6.167   4.587   7.715  0.7446  1.0894  0.8900
  160SAPE  C21417900   6.186   4.786   7.649  0.2819  0.2007  0.1753
  160SAPE  H14R17901   6.292   4.773   7.678  0.2071  2.4432  1.6450
  160SAPE  C21517902   6.147   4.913   7.619 -0.2942  0.0508  0.1082
  160SAPE  H15R17903   6.212   4.998   7.644  0.5668 -0.6431  0.2771
  160SAPE  C21617904   6.012   4.960   7.566 -0.3598 -0.0911 -0.5306
  160SAPE  H16R17905   5.970   4.878   7.504  0.8259 -1.1116 -0.0375
  160SAPE  H16S17906   6.028   5.037   7.488  1.7339  0.2932  0.2026
  160SAPE  C21717907   5.912   5.011   7.670 -0.0141  0.1206 -0.0692
  160SAPE  H17R17908   5.889   4.930   7.743  2.1911 -1.3009 -0.8370
  160SAPE  H17S17909   5.821   5.032   7.611 -0.2145  1.9213  0.8127
  160SAPE  C21817910   5.948   5.142   7.739 -0.1542 -0.0242  0.6382
  160SAPE  H18R17911   5.868   5.219   7.747  1.7237  1.7990  3.9331
  160SAPE  H18S17912   6.020   5.194   7.672 -1.9769 -0.9187 -2.2084
  160SAPE  C21917913   5.991   5.122   7.887 -0.5479  0.1503  0.2105
  160SAPE  H19R17914   6.077   5.051   7.893 -0.6595  0.0397  0.5154
  160SAPE  H19S17915   5.907   5.077   7.944  0.5449 -2.1914  0.0784
  160SAPE  C22017916   6.031   5.253   7.959  0.3062  0.1174  0.4208
  160SAPE  H20R17917   6.043   5.328   7.878  0.3215 -1.9128 -1.5525
  160SAPE  H20S17918   6.119   5.253   8.026 -1.4599  1.1765  2.8941
  160SAPE  H20T17919   5.944   5.280   8.023 -0.9001  3.0403 -2.1694
  160SAPE   C3317920   6.540   4.577   7.296  0.5278  0.3818 -0.2034
  160SAPE   H3X17921   6.452   4.645   7.293  0.2916  0.0481 -1.4625
  160SAPE   H3Y17922   6.632   4.637   7.309  0.0448  1.2036 -0.5408
  160SAPE   C3417923   6.511   4.474   7.404 -0.4095 -0.0536 -0.6424
  160SAPE   H4X17924   6.590   4.396   7.411 -0.4336 -0.1576 -1.4889
  160SAPE   H4Y17925   6.412   4.427   7.386 -0.6029  0.1020 -0.0283
  160SAPE   C3517926   6.510   4.541   7.547  0.0436 -0.3108  0.3873
  160SAPE   H5X17927   6.426   4.614   7.541 -0.9729 -1.5455 -2.2040
  160SAPE   H5Y17928   6.603   4.595   7.574  1.0617 -0.7088 -2.0799
  160SAPE   C3617929   6.461   4.443   7.652 -0.4117  0.1472 -0.0159
  160SAPE   H6X17930   6.529   4.355   7.652  1.1318  1.3000 -0.4122
  160SAPE   H6Y17931   6.354   4.418   7.635  0.0103 -2.5372  0.8051
  160SAPE   C3717932   6.468   4.501   7.790  0.3061  0.5365 -0.7284
  160SAPE   H7X17933   6.401   4.587   7.810 -0.8982 -0.3487 -0.8414
  160SAPE   H7Y17934   6.569   4.545   7.802  0.6663 -0.4160 -0.1580
  160SAPE   C3817935   6.449   4.399   7.896 -0.0042  0.4290  0.0792
  160SAPE   H8X17936   6.540   4.337   7.907 -0.8155 -0.9475 -0.6246
  160SAPE   H8Y17937   6.374   4.322   7.866 -1.0512  1.6225 -0.4544
  160SAPE   C3917938   6.406   4.460   8.034  0.2811 -0.0503 -0.1560
  160SAPE   H9X17939   6.393   4.371   8.099 -0.8532 -0.7424 -1.2839
  160SAPE   H9Y17940   6.313   4.518   8.018  0.2740 -0.5712 -2.2484
  160SAPE  C31017941   6.502   4.570   8.089 -0.3830 -0.1069 -0.9353
  160SAPE  H10X17942   6.476   4.599   8.193  2.6128 -2.7049  0.7532
  160SAPE  H10Y17943   6.512   4.660   8.025  1.3762  1.8935  1.9417
  160SAPE  C31117944   6.642   4.506   8.117 -0.0813  0.6403 -0.4426
  160SAPE  H11X17945   6.729   4.575   8.124 -0.0194  0.3832  2.7196
  160SAPE  H11Y17946   6.667   4.441   8.030  2.3561  0.0769  0.6131
  160SAPE  C31217947   6.645   4.422   8.249  0.0972  0.2856 -1.0617
  160SAPE  H12X17948   6.576   4.336   8.232  0.2554  0.1564 -1.0492
  160SAPE  H12Y17949   6.619   4.486   8.336 -0.1957 -1.6240  0.3211
  160SAPE  C31317950   6.789   4.361   8.267  0.2483 -0.0743  0.0457
  160SAPE  H13X17951   6.866   4.439   8.248 -0.0812  0.0026 -1.0624
  160SAPE  H13Y17952   6.824   4.296   8.184  1.5187  2.0170 -1.1495
  160SAPE  C31417953   6.820   4.314   8.410 -0.0914 -0.2658 -0.1478
  160SAPE  H14X17954   6.794   4.392   8.485 -0.3601 -0.8637  0.3767
  160SAPE  H14Y17955   6.929   4.295   8.419 -0.1017  0.4293  2.1029
  160SAPE  C31517956   6.750   4.182   8.425  0.0974  0.4187  0.0190
  160SAPE  H15X17957   6.760   4.130   8.328  3.0063  2.4974 -0.9260
  160SAPE  H15Y17958   6.643   4.192   8.456 -0.3955 -0.0507 -1.4587
  160SAPE  C31617959   6.819   4.092   8.529 -0.5540 -0.1858 -0.3314
  160SAPE  H16X17960   6.833   4.151   8.622 -0.1435 -1.3919  0.4034
  160SAPE  H16Y17961   6.918   4.061   8.490 -0.8167 -0.9306 -0.4352
  160SAPE  C31717962   6.734   3.975   8.571 -0.2819  0.9317 -0.5070
  160SAPE  H17X17963   6.721   3.903   8.487  0.0367 -1.1872  1.1763
  160SAPE  H17Y17964   6.642   4.006   8.624 -0.1938 -2.6698  2.1146
  160SAPE  C31817965   6.815   3.901   8.680 -0.3556  0.5618  0.0251
  160SAPE  H18X17966   6.759   3.811   8.713  0.3479 -0.6229 -1.8419
  160SAPE  H18Y17967   6.833   3.976   8.760  0.7087 -0.9508  1.2695
  160SAPE  H18Z17968   6.910   3.859   8.642  0.2857  0.0452  2.0846
  161SOPE     N17969   4.617   1.790  10.306  0.7011  0.4233 -0.0890
  161SOPE   HN117970   4.550   1.795  10.226  3.0237  0.3613 -2.1642
  161SOPE   HN217971   4.624   1.690  10.331 -1.5007  0.3343  0.3003
  161SOPE   HN317972   4.579   1.831  10.393 -1.8910  1.4317 -1.5891
  161SOPE   C1217973   4.738   1.867  10.262 -0.2547 -0.2563  0.0526
  161SOPE  H12A17974   4.719   1.935  10.177 -0.9539  0.2986  0.6350
  161SOPE  H12B17975   4.821   1.797  10.240 -2.4900 -2.3557 -2.3263
  161SOPE   C1117976   4.795   1.948  10.383  0.8546 -0.3066 -0.6850
  161SOPE  H11A17977   4.721   2.022  10.419  0.9846  0.5958 -2.1932
  161SOPE  H11B17978   4.890   1.998  10.354  0.7770 -0.7219 -1.6973
  161SOPE     P17979   4.957   1.795  10.528  0.0086  0.2728 -0.4600
  161SOPE   O1317980   4.952   1.714  10.650 -0.4149 -0.0559 -0.3981
  161SOPE   O1417981   5.063   1.900  10.534 -0.4112 -0.5282 -0.1662
  161SOPE   O1217982   4.817   1.866  10.499 -0.3652  0.5870  0.3796
  161SOPE   O1117983   4.973   1.708  10.398 -0.3895 -0.1866  0.6960
  161SOPE    C117984   5.114   1.683  10.348  0.8555  0.4322 -0.5521
  161SOPE    HA17985   5.115   1.593  10.283  0.2146  1.2591 -1.7497
  161SOPE    HB17986   5.193   1.680  10.425  0.5922  0.1528 -0.2926
  161SOPE    C217987   5.161   1.791  10.245 -0.3443 -0.8808 -0.2792
  161SOPE    HS17988   5.160   1.892  10.292 -0.8060 -1.1211  0.2385
  161SOPE   O2117989   5.075   1.784  10.129 -0.1865 -0.5659  0.6132
  161SOPE   C2117990   5.045   1.896  10.066  0.1708 -0.2240 -0.5688
  161SOPE   O2217991   5.041   2.012  10.110 -0.2444  0.3378 -0.4854
  161SOPE   C2217992   5.011   1.864   9.925  0.2146 -0.3017 -0.0929
  161SOPE   H2R17993   4.934   1.941   9.904  0.6950 -0.2970 -2.0249
  161SOPE   H2S17994   4.967   1.763   9.912 -0.3901 -0.0192 -0.2726
  161SOPE    C317995   5.312   1.768  10.208  0.1776  0.4208  0.3738
  161SOPE    HX17996   5.383   1.763  10.293  1.2331 -1.7712 -0.5574
  161SOPE    HY17997   5.341   1.855  10.145 -0.9734  0.8672  0.4375
  161SOPE   O3117998   5.317   1.644  10.126  0.1090 -0.0780 -0.2046
  161SOPE   C3117999   5.436   1.616  10.066 -0.2410 -0.2080 -0.4715
  161SOPE   O3218000   5.530   1.692  10.083 -0.5785 -0.2516  0.0300
  161SOPE   C3218001   5.419   1.487   9.996  0.3339 -0.4306  0.6153
  161SOPE   H2X18002   5.342   1.502   9.918 -0.4403 -0.2511  1.4000
  161SOPE   H2Y18003   5.372   1.415  10.066  0.3181  1.6892  2.9124
  161SOPE   C2318004   5.127   1.881   9.819  0.0495 -1.1151  0.2683
  161SOPE   H3R18005   5.205   1.802   9.815  1.8877  0.4904  2.1038
  161SOPE   H3S18006   5.184   1.975   9.836  3.8904 -3.1108 -0.5347
  161SOPE   C2418007   5.069   1.884   9.675 -0.0219  0.7846  0.1809
  161SOPE   H4R18008   5.000   1.969   9.691 -0.7536  0.3350 -0.5190
  161SOPE   H4S18009   5.153   1.915   9.609 -0.0816 -0.2269 -0.3937
  161SOPE   C2518010   4.997   1.756   9.635  0.5585  0.3194 -0.0407
  161SOPE   H5R18011   5.065   1.673   9.662  0.8332  0.3065 -0.7536
  161SOPE   H5S18012   4.900   1.729   9.683 -0.3423  0.5697 -1.6606
  161SOPE   C2618013   4.979   1.766   9.481  0.6220  0.2103  0.6168
  161SOPE   H6R18014   5.062   1.820   9.432 -1.9495  1.4586 -2.7813
  161SOPE   H6S18015   4.980   1.665   9.436  0.3906  0.6769 -0.4657
  161SOPE   C2718016   4.847   1.835   9.434  0.3756  0.3145  0.1357
  161SOPE   H7R18017   4.773   1.774   9.491  1.1111  1.8906  2.9412
  161SOPE   H7S18018   4.828   1.938   9.471 -2.0626 -0.5110  1.4297
  161SOPE   C2818019   4.838   1.812   9.279  0.3892  0.2062  0.0998
  161SOPE   H8R18020   4.891   1.900   9.237 -0.3704  0.1716 -0.9733
  161SOPE   H8S18021   4.895   1.723   9.244 -0.4673  0.1751 -1.3016
  161SOPE   C2918022   4.696   1.796   9.232 -0.1669  0.0287  0.0445
  161SOPE   H9118023   4.621   1.854   9.287 -2.8034 -1.0947 -2.1788
  161SOPE  C21018024   4.650   1.726   9.127  0.7466  0.6148  0.1960
  161SOPE  H10118025   4.543   1.700   9.121 -0.6803  5.4046  1.1178
  161SOPE  C21118026   4.749   1.657   9.036  0.1859 -0.2288 -0.0270
  161SOPE  H11R18027   4.837   1.723   9.027 -0.0982  0.2631  0.6981
  161SOPE  H11S18028   4.698   1.658   8.938 -0.3196 -1.3022  0.2062
  161SOPE  C21218029   4.776   1.511   9.080  0.0690 -0.7358  0.0794
  161SOPE  H12R18030   4.686   1.450   9.059  0.8577 -1.1335 -2.3955
  161SOPE  H12S18031   4.793   1.524   9.189 -1.9731  0.2783  0.3361
  161SOPE  C21318032   4.906   1.458   9.014  0.2153  0.1137  0.4677
  161SOPE  H13R18033   4.894   1.470   8.905 -1.9801  0.2517  0.6801
  161SOPE  H13S18034   4.897   1.349   9.035 -1.6532  0.1153 -0.0873
  161SOPE  C21418035   5.037   1.513   9.074  0.4186 -0.0597  0.3220
  161SOPE  H14R18036   5.050   1.623   9.072 -0.5033  0.0554 -0.1276
  161SOPE  H14S18037   5.112   1.471   9.004  1.9879  1.1395  1.2068
  161SOPE  C21518038   5.072   1.481   9.216  0.0947 -0.2560  0.2979
  161SOPE  H15R18039   5.076   1.373   9.239  0.5273 -0.5090 -0.8665
  161SOPE  H15S18040   4.992   1.517   9.283  0.7256  1.6162  0.1152
  161SOPE  C21618041   5.198   1.560   9.257 -0.8304 -0.0803 -0.1664
  161SOPE  H16R18042   5.174   1.666   9.238  1.0733  0.5713  0.8478
  161SOPE  H16S18043   5.277   1.534   9.183 -1.4946 -1.5267 -0.4040
  161SOPE  C21718044   5.237   1.547   9.408  0.5414  0.0618  0.2131
  161SOPE  H17R18045   5.142   1.557   9.465 -2.2780 -0.1859 -3.9205
  161SOPE  H17S18046   5.298   1.628   9.452  0.4880 -0.4683  1.2928
  161SOPE  C21818047   5.298   1.411   9.444  0.3658  0.0806 -0.0884
  161SOPE  H18R18048   5.220   1.332   9.446  0.2811  0.1726  0.2332
  161SOPE  H18S18049   5.345   1.420   9.544 -0.5956  2.6447  0.2250
  161SOPE  H18T18050   5.373   1.379   9.368  0.3568  0.1271 -0.1163
  161SOPE   C3318051   5.548   1.439   9.933  0.0376  0.0665 -0.1451
  161SOPE   H3X18052   5.533   1.329   9.923 -3.2860  0.4760 -0.8225
  161SOPE   H3Y18053   5.627   1.456  10.010 -0.0943 -2.7378  0.7160
  161SOPE   C3418054   5.573   1.492   9.795  0.6042  0.0238 -0.1175
  161SOPE   H4X18055   5.579   1.601   9.815  1.1706 -0.3889  2.3470
  161SOPE   H4Y18056   5.497   1.469   9.718 -0.1613 -0.2850  0.7009
  161SOPE   C3518057   5.711   1.444   9.743 -0.9180 -0.4588  0.5045
  161SOPE   H5X18058   5.704   1.334   9.727 -1.3693 -0.4287  0.4900
  161SOPE   H5Y18059   5.773   1.455   9.834  0.9532 -1.2237 -0.6101
  161SOPE   C3618060   5.776   1.526   9.631 -0.3039  1.0831  0.3149
  161SOPE   H6X18061   5.883   1.496   9.622 -0.5022 -0.6621  2.7573
  161SOPE   H6Y18062   5.766   1.636   9.643  0.1496  1.4068 -1.8644
  161SOPE   C3718063   5.721   1.487   9.491  0.7574  0.6654 -0.0232
  161SOPE   H7X18064   5.611   1.487   9.476  0.6112  2.4074  0.8464
  161SOPE   H7Y18065   5.748   1.379   9.483 -2.1375 -0.1939  0.7008
  161SOPE   C3818066   5.776   1.575   9.378 -0.0659 -0.1405  0.2009
  161SOPE   H8X18067   5.887   1.574   9.382 -0.0579 -0.5415 -0.0357
  161SOPE   H8Y18068   5.748   1.681   9.396  2.8975  0.9412 -0.9020
  161SOPE   C3918069   5.739   1.543   9.238  0.2949  0.5008 -0.2388
  161SOPE   H9X18070   5.763   1.441   9.200 -0.3115  0.3009 -0.0913
  161SOPE   H9Y18071   5.792   1.611   9.167  3.2698 -0.7781  0.5920
  161SOPE  C31018072   5.586   1.554   9.209 -0.2124 -0.1854  0.0921
  161SOPE  H10X18073   5.539   1.651   9.236 -2.0044 -0.4093 -1.9113
  161SOPE  H10Y18074   5.532   1.483   9.274  1.4202 -0.8572  0.7582
  161SOPE  C31118075   5.548   1.523   9.064 -0.7139  0.3258 -0.0357
  161SOPE  H11X18076   5.439   1.501   9.056 -0.6043 -0.4991  0.6034
  161SOPE  H11Y18077   5.601   1.426   9.057  0.5766  1.0307 -0.2241
  161SOPE  C31218078   5.576   1.632   8.964  0.3831  0.3220  0.4761
  161SOPE  H12X18079   5.679   1.673   8.976  0.7008 -1.0659  3.1474
  161SOPE  H12Y18080   5.510   1.720   8.978 -0.8094 -0.6145  0.8965
  161SOPE  C31318081   5.568   1.581   8.821  0.3486 -0.3138 -0.0877
  161SOPE  H13X18082   5.664   1.528   8.806  0.9220  0.6542  0.0658
  161SOPE  H13Y18083   5.564   1.661   8.745 -0.9023  0.8360  1.1172
  161SOPE  C31418084   5.459   1.474   8.796 -0.2275 -0.3775  0.9332
  161SOPE  H14X18085   5.372   1.504   8.859 -0.4735  0.4814  0.1960
  161SOPE  H14Y18086   5.497   1.372   8.817  0.8186 -0.8370 -2.6222
  161SOPE  C31518087   5.406   1.461   8.651  0.0609  0.5150  1.0107
  161SOPE  H15X18088   5.487   1.416   8.590 -0.7177 -0.5240  0.7214
  161SOPE  H15Y18089   5.385   1.562   8.611  1.6282  0.3381 -0.3495
  161SOPE  C31618090   5.289   1.359   8.635 -0.3004  0.1503  0.0428
  161SOPE  H16X18091   5.210   1.386   8.708  2.2053 -0.1669  3.0618
  161SOPE  H16Y18092   5.332   1.268   8.681 -0.7977 -0.4673 -0.7074
  161SOPE  C31718093   5.218   1.349   8.504 -0.2199 -0.4250 -0.1039
  161SOPE  H17X18094   5.301   1.375   8.434  0.7441 -2.2048  0.3199
  161SOPE  H17Y18095   5.139   1.426   8.493 -0.3640 -0.5262  0.2149
  161SOPE  C31818096   5.160   1.206   8.484 -0.3948 -0.2256 -0.2553
  161SOPE  H18X18097   5.065   1.193   8.540 -0.1360 -1.4204 -0.0597
  161SOPE  H18Y18098   5.225   1.122   8.516 -1.4316 -1.2575 -0.7771
  161SOPE  H18Z18099   5.143   1.192   8.375  0.7676  0.0440 -0.4818
  162SOPE     N18100   3.390   1.797  10.975  0.4700 -0.6714 -0.2080
  162SOPE   HN118101   3.436   1.861  10.906  3.2924 -0.6106  1.5736
  162SOPE   HN218102   3.464   1.781  11.046  0.3831  0.2129  0.1032
  162SOPE   HN318103   3.366   1.712  10.921 -1.0728 -0.2208 -0.2928
  162SOPE   C1218104   3.254   1.851  11.023 -0.1870 -0.3446  0.7340
  162SOPE  H12A18105   3.270   1.960  11.014 -1.8060 -0.0410  1.2196
  162SOPE  H12B18106   3.254   1.830  11.132 -1.6407 -1.9300  0.4638
  162SOPE   C1118107   3.149   1.813  10.926 -0.2889 -0.5036  0.1301
  162SOPE  H11A18108   3.183   1.852  10.827 -0.6402  0.2861  0.3192
  162SOPE  H11B18109   3.062   1.878  10.951 -1.0139 -1.7696  1.0343
  162SOPE     P18110   3.042   1.596  10.836 -0.1760  0.0015 -0.5850
  162SOPE   O1318111   3.000   1.474  10.913 -0.6409 -0.9470  0.2183
  162SOPE   O1418112   3.120   1.573  10.714  0.0318  0.2242 -0.9009
  162SOPE   O1218113   3.120   1.677  10.942  0.3696 -0.2949  0.3516
  162SOPE   O1118114   2.915   1.686  10.811  0.2427  0.1225  0.3557
  162SOPE    C118115   2.780   1.632  10.796  0.0308 -0.1632 -0.2542
  162SOPE    HA18116   2.712   1.699  10.854  1.7974 -0.2954  2.1220
  162SOPE    HB18117   2.761   1.527  10.824 -2.1494  0.0873 -0.6134
  162SOPE    C218118   2.715   1.639  10.649  0.2552 -0.2289 -0.8656
  162SOPE    HS18119   2.763   1.565  10.582  1.4439  0.0632 -0.3498
  162SOPE   O2118120   2.723   1.774  10.603 -0.2730  0.3631 -0.0156
  162SOPE   C2118121   2.809   1.800  10.506  0.5269  0.5653  0.2978
  162SOPE   O2218122   2.904   1.730  10.475  0.3529  0.0520  0.5759
  162SOPE   C2218123   2.788   1.938  10.460 -0.5392  0.0520 -0.1996
  162SOPE   H2R18124   2.870   1.969  10.391 -0.6557  0.8200  0.0052
  162SOPE   H2S18125   2.799   1.991  10.557 -0.9537  0.2693 -0.2683
  162SOPE    C318126   2.564   1.604  10.659 -0.6006  0.1254  0.4958
  162SOPE    HX18127   2.504   1.675  10.720  1.0208 -0.3469  2.7690
  162SOPE    HY18128   2.570   1.501  10.700  1.2658 -0.1343 -0.3497
  162SOPE   O3118129   2.507   1.597  10.522 -0.2095  0.4013 -0.2235
  162SOPE   C3118130   2.399   1.515  10.509 -0.1400  0.1541  0.3687
  162SOPE   O3218131   2.341   1.467  10.604 -0.8601 -0.1059  0.4432
  162SOPE   C3218132   2.372   1.490  10.362 -0.3282  0.5196 -0.3191
  162SOPE   H2X18133   2.280   1.427  10.356 -0.3599  0.4567  0.6990
  162SOPE   H2Y18134   2.450   1.421  10.326  0.8408  1.8722 -0.4775
  162SOPE   C2318135   2.652   1.974  10.413  0.0717 -0.0769 -0.1390
  162SOPE   H3R18136   2.658   2.083  10.396 -0.5929 -0.3011 -2.0919
  162SOPE   H3S18137   2.580   1.963  10.498 -0.5526  5.2099  0.3368
  162SOPE   C2418138   2.601   1.895  10.284 -0.7037 -0.2122  0.2591
  162SOPE   H4R18139   2.562   1.798  10.322  1.0988  0.1977  3.4994
  162SOPE   H4S18140   2.514   1.949  10.241  0.3761  0.0875 -1.6587
  162SOPE   C2518141   2.711   1.875  10.179 -0.7202  0.3209  0.2990
  162SOPE   H5R18142   2.754   1.967  10.133  0.8659 -1.3603 -1.8231
  162SOPE   H5S18143   2.798   1.819  10.218  0.1685  1.9605  0.7459
  162SOPE   C2618144   2.645   1.821  10.052  0.2548 -0.1784 -0.2542
  162SOPE   H6R18145   2.599   1.720  10.063 -2.5177  0.8595 -1.2464
  162SOPE   H6S18146   2.555   1.882  10.028  0.6308  0.0438 -1.1566
  162SOPE   C2718147   2.751   1.828   9.932  0.3935  0.7166 -0.2350
  162SOPE   H7R18148   2.774   1.926   9.886  1.2619 -0.7687 -3.1706
  162SOPE   H7S18149   2.843   1.786   9.979 -0.6369 -1.6144 -0.1866
  162SOPE   C2818150   2.711   1.728   9.819 -0.0312  0.0546 -0.4303
  162SOPE   H8R18151   2.803   1.729   9.758  0.4438 -1.0240  0.2376
  162SOPE   H8S18152   2.693   1.622   9.849 -1.1535 -0.1652 -1.7851
  162SOPE   C2918153   2.593   1.776   9.738  0.1133 -0.7224  0.4034
  162SOPE   H9118154   2.523   1.836   9.798 -1.2149 -0.0319 -1.7345
  162SOPE  C21018155   2.572   1.778   9.604 -0.5368  0.1722  0.0770
  162SOPE  H10118156   2.479   1.825   9.567  0.9519  2.6478 -0.7987
  162SOPE  C21118157   2.656   1.723   9.494 -0.2156 -0.7573 -0.4758
  162SOPE  H11R18158   2.721   1.640   9.528 -0.6647  0.6550  4.6536
  162SOPE  H11S18159   2.714   1.809   9.455  1.7540 -2.0946 -0.6407
  162SOPE  C21218160   2.575   1.678   9.369 -0.6120  0.4024 -0.0407
  162SOPE  H12R18161   2.509   1.757   9.329  0.2778  0.7383 -0.8811
  162SOPE  H12S18162   2.530   1.578   9.386  1.2652 -0.9336 -2.3181
  162SOPE  C21318163   2.661   1.659   9.237  0.5639 -0.2244 -0.3679
  162SOPE  H13R18164   2.737   1.579   9.247 -1.1008 -1.7285  1.2045
  162SOPE  H13S18165   2.714   1.756   9.226 -1.2782  0.7539 -1.1209
  162SOPE  C21418166   2.586   1.635   9.106  0.6225 -0.5239 -0.7013
  162SOPE  H14R18167   2.502   1.708   9.111  0.6728 -0.5401  0.5144
  162SOPE  H14S18168   2.548   1.531   9.108 -0.9913  0.0337  0.5361
  162SOPE  C21518169   2.674   1.659   8.987  0.1419  0.6625  0.3695
  162SOPE  H15R18170   2.778   1.627   9.005  0.5551  1.2111 -0.9051
  162SOPE  H15S18171   2.675   1.770   8.977 -0.0789  0.7231  0.9776
  162SOPE  C21618172   2.613   1.580   8.861  0.9100  0.4300  0.4537
  162SOPE  H16R18173   2.531   1.647   8.825  0.5143 -0.7934 -1.0341
  162SOPE  H16S18174   2.566   1.485   8.895  0.8676 -0.0495 -0.8916
  162SOPE  C21718175   2.707   1.571   8.738  0.2184  0.9765  0.5229
  162SOPE  H17R18176   2.805   1.537   8.778  0.9021 -0.0811 -1.8567
  162SOPE  H17S18177   2.716   1.668   8.684 -1.0672  0.3847 -0.8466
  162SOPE  C21818178   2.656   1.480   8.623 -0.2907 -0.2003  0.0616
  162SOPE  H18R18179   2.690   1.529   8.530  0.1857 -0.2197  0.2233
  162SOPE  H18S18180   2.546   1.500   8.621  0.1084  2.2283 -1.5244
  162SOPE  H18T18181   2.680   1.372   8.617  1.8261  0.1696  1.0883
  162SOPE   C3318182   2.355   1.615  10.277  0.0180  0.1274 -0.3624
  162SOPE   H3X18183   2.455   1.640  10.235  0.0916  0.3325 -0.0694
  162SOPE   H3Y18184   2.301   1.688  10.342 -0.6679 -1.1517  0.5478
  162SOPE   C3418185   2.267   1.590  10.157 -0.7031 -0.8973  0.1063
  162SOPE   H4X18186   2.165   1.559  10.187  0.0103 -1.5740  1.9502
  162SOPE   H4Y18187   2.319   1.518  10.090  2.3534  0.5677  0.7526
  162SOPE   C3518188   2.240   1.726  10.089  0.3970 -0.1780  0.5145
  162SOPE   H5X18189   2.341   1.766  10.065  1.1021 -1.2596  1.5781
  162SOPE   H5Y18190   2.186   1.795  10.158 -2.9799 -0.6525 -1.4532
  162SOPE   C3618191   2.167   1.723   9.959 -0.0763 -0.3977 -0.3010
  162SOPE   H6X18192   2.149   1.826   9.921  0.0829 -0.7729 -1.4620
  162SOPE   H6Y18193   2.067   1.682   9.982  0.2145  0.2295  2.3427
  162SOPE   C3718194   2.235   1.649   9.842  0.7116  0.1602 -0.0273
  162SOPE   H7X18195   2.242   1.540   9.866  0.0271 -0.8023 -3.6453
  162SOPE   H7Y18196   2.341   1.683   9.839  0.4883  0.7847 -1.3149
  162SOPE   C3818197   2.180   1.666   9.697 -0.3254 -0.3502  0.2827
  162SOPE   H8X18198   2.080   1.618   9.696 -0.2084 -0.6540  1.3128
  162SOPE   H8Y18199   2.247   1.610   9.628 -1.4739 -1.0507 -0.2928
  162SOPE   C3918200   2.183   1.812   9.654  0.4697 -0.0623  0.3540
  162SOPE   H9X18201   2.282   1.860   9.645 -0.7528  2.2224 -2.8810
  162SOPE   H9Y18202   2.117   1.865   9.726 -0.0445 -0.2510  0.0306
  162SOPE  C31018203   2.123   1.829   9.511 -0.0167 -0.0242 -0.2573
  162SOPE  H10X18204   2.104   1.938   9.520 -0.0848 -0.2181  3.2004
  162SOPE  H10Y18205   2.024   1.779   9.507  0.5115 -1.0782 -0.7081
  162SOPE  C31118206   2.217   1.819   9.389  0.1118  0.2209 -0.9827
  162SOPE  H11X18207   2.220   1.717   9.345 -0.0336  0.5434 -1.7645
  162SOPE  H11Y18208   2.317   1.846   9.428 -0.3729 -3.5564  3.8204
  162SOPE  C31218209   2.180   1.908   9.271 -0.1066  0.1340 -0.4299
  162SOPE  H12X18210   2.202   2.014   9.298  0.0307 -0.1842  0.7382
  162SOPE  H12Y18211   2.071   1.908   9.254 -0.3393 -1.7468  0.8252
  162SOPE  C31318212   2.240   1.861   9.136  0.0696  0.1725 -0.7889
  162SOPE  H13X18213   2.346   1.836   9.155 -0.0327 -2.2776 -3.0244
  162SOPE  H13Y18214   2.241   1.944   9.063  2.0406  0.1040 -0.8804
  162SOPE  C31418215   2.169   1.737   9.080 -0.4754  0.2944 -0.4602
  162SOPE  H14X18216   2.065   1.762   9.050  0.0258  1.9197 -0.9472
  162SOPE  H14Y18217   2.176   1.656   9.156  1.7854  2.2654  1.5900
  162SOPE  C31518218   2.239   1.678   8.953  0.0397 -0.3917  0.1290
  162SOPE  H15X18219   2.343   1.645   8.972  1.2214  0.1288 -4.3946
  162SOPE  H15Y18220   2.240   1.766   8.885  0.3671 -0.2402  0.3286
  162SOPE  C31618221   2.160   1.565   8.878 -0.7058 -0.2391 -0.1227
  162SOPE  H16X18222   2.064   1.589   8.828 -0.3517 -1.2484 -1.3453
  162SOPE  H16Y18223   2.121   1.490   8.952  0.6466  0.2797  1.1530
  162SOPE  C31718224   2.240   1.485   8.769  0.3962  0.2884 -0.4087
  162SOPE  H17X18225   2.337   1.448   8.809  0.2850 -0.7734 -1.0942
  162SOPE  H17Y18226   2.256   1.558   8.687 -2.3746  0.9358 -0.4716
  162SOPE  C31818227   2.157   1.365   8.730 -0.1876 -0.3504  0.3287
  162SOPE  H18X18228   2.053   1.397   8.710 -0.1481 -1.3543 -1.6961
  162SOPE  H18Y18229   2.143   1.292   8.813 -1.9325  0.5353  0.8761
  162SOPE  H18Z18230   2.201   1.302   8.650  3.0670 -1.0153  2.4093
  163SOPE     N18231   3.082   5.871  10.782 -0.6060  0.8436  0.4462
  163SOPE   HN118232   3.045   5.940  10.850 -0.9538 -1.1693  2.4210
  163SOPE   HN218233   3.118   5.788  10.834 -2.1231 -0.7815 -0.9907
  163SOPE   HN318234   3.163   5.913  10.731  1.1318  0.2090  2.5392
  163SOPE   C1218235   2.978   5.830  10.685  0.4452 -0.4288  0.0900
  163SOPE  H12A18236   3.030   5.762  10.614  2.2985 -0.0418  1.0263
  163SOPE  H12B18237   2.953   5.923  10.629  0.2977 -0.7854 -0.4376
  163SOPE   C1118238   2.859   5.763  10.743  0.0782  0.9477 -0.4513
  163SOPE  H11A18239   2.775   5.744  10.673 -0.3574  2.6384 -0.4411
  163SOPE  H11B18240   2.825   5.832  10.824 -0.2275  0.5355 -0.2254
  163SOPE     P18241   2.800   5.536  10.856 -0.1842  0.3676 -0.2435
  163SOPE   O1318242   2.711   5.611  10.947 -0.3875 -0.6493  0.1608
  163SOPE   O1418243   2.877   5.427  10.924 -0.3008 -0.0107 -0.1629
  163SOPE   O1218244   2.906   5.635  10.799 -0.2022 -0.0227  0.4288
  163SOPE   O1118245   2.724   5.494  10.721 -0.1595 -0.4750 -0.2204
  163SOPE    C118246   2.789   5.470  10.598  0.6352  0.0119 -1.0363
  163SOPE    HA18247   2.894   5.434  10.605  0.7844  0.6579  0.4265
  163SOPE    HB18248   2.806   5.568  10.549  1.3124  0.7294  0.5726
  163SOPE    C218249   2.713   5.379  10.496 -0.2750  0.0639 -0.0758
  163SOPE    HS18250   2.788   5.347  10.421  0.9456  0.6924  0.8396
  163SOPE   O2118251   2.602   5.447  10.446  0.4925  0.1522  0.1417
  163SOPE   C2118252   2.580   5.431  10.312 -0.5559 -0.0187 -0.5514
  163SOPE   O2218253   2.641   5.359  10.240 -0.3244 -0.1889 -0.2048
  163SOPE   C2218254   2.467   5.525  10.266 -1.2386  0.0439  0.0311
  163SOPE   H2R18255   2.501   5.628  10.292 -0.7896  0.2192 -1.1400
  163SOPE   H2S18256   2.374   5.496  10.318 -0.1078 -0.6731  1.7380
  163SOPE    C318257   2.660   5.240  10.557 -0.0870  0.0818  0.0324
  163SOPE    HX18258   2.574   5.254  10.625 -0.0526 -0.2068  0.1332
  163SOPE    HY18259   2.746   5.206  10.619 -0.4540  1.4230  1.3281
  163SOPE   O3118260   2.619   5.150  10.451  0.7749 -0.0020  0.0371
  163SOPE   C3118261   2.729   5.083  10.405  0.6364  0.3089  0.6693
  163SOPE   O3218262   2.840   5.099  10.445 -0.0799  0.4655  0.3628
  163SOPE   C3218263   2.682   5.014  10.279 -0.5023  0.3702 -0.2838
  163SOPE   H2X18264   2.655   5.095  10.207  0.2999  1.5046  0.6572
  163SOPE   H2Y18265   2.588   4.962  10.307 -0.3936  0.8061  0.9408
  163SOPE   C2318266   2.442   5.517  10.114  0.0039 -0.6956  0.3939
  163SOPE   H3R18267   2.398   5.416  10.100 -0.8243 -0.2918  0.0443
  163SOPE   H3S18268   2.535   5.540  10.058  0.4761  0.7420  1.6941
  163SOPE   C2418269   2.340   5.619  10.072  1.0023 -0.0432  0.0923
  163SOPE   H4R18270   2.250   5.598  10.134  1.0114  2.1348  0.8961
  163SOPE   H4S18271   2.375   5.716  10.113  4.3795 -1.2795  0.4768
  163SOPE   C2518272   2.325   5.639   9.921 -0.0961  0.8324  0.4406
  163SOPE   H5R18273   2.268   5.731   9.900  0.1293  1.0275  0.6815
  163SOPE   H5S18274   2.425   5.667   9.881 -0.4181  1.1630 -0.1406
  163SOPE   C2618275   2.259   5.525   9.856  0.0162  0.2190  0.2522
  163SOPE   H6R18276   2.322   5.435   9.873 -0.5811  0.1549  2.4207
  163SOPE   H6S18277   2.157   5.515   9.899  0.3940  0.7073  1.2943
  163SOPE   C2718278   2.243   5.534   9.700 -0.7928 -0.3704  0.2531
  163SOPE   H7R18279   2.180   5.625   9.688  1.2780  1.4536  2.1699
  163SOPE   H7S18280   2.340   5.561   9.655 -1.5727  0.5256 -0.9307
  163SOPE   C2818281   2.179   5.417   9.627 -0.2343  0.2396 -0.1101
  163SOPE   H8R18282   2.201   5.323   9.681  1.3684  0.7728  0.2308
  163SOPE   H8S18283   2.071   5.430   9.648  0.2507 -0.5886  3.4207
  163SOPE   C2918284   2.199   5.402   9.477 -1.0262  0.1074 -0.0901
  163SOPE   H9118285   2.171   5.488   9.415 -0.9714 -0.5040 -0.9721
  163SOPE  C21018286   2.265   5.306   9.414  0.2456 -0.4740  0.4138
  163SOPE  H10118287   2.286   5.326   9.308  1.4390 -0.5645  0.6187
  163SOPE  C21118288   2.339   5.188   9.460  0.2375  0.0419 -0.2414
  163SOPE  H11R18289   2.313   5.097   9.401 -0.2813  0.3115 -0.4283
  163SOPE  H11S18290   2.297   5.159   9.558 -0.0662  1.3278  0.0187
  163SOPE  C21218291   2.488   5.209   9.479  0.0869 -0.9386  1.3714
  163SOPE  H12R18292   2.548   5.125   9.521  2.1956  0.2702  0.8942
  163SOPE  H12S18293   2.497   5.290   9.553  1.6664 -1.0642  1.3423
  163SOPE  C21318294   2.569   5.261   9.360  0.1239  0.7118 -0.4063
  163SOPE  H13R18295   2.668   5.300   9.390 -0.2604  1.1754  0.2873
  163SOPE  H13S18296   2.519   5.352   9.319  0.8475  1.7925  1.0123
  163SOPE  C21418297   2.591   5.159   9.250 -0.2662 -0.5550 -0.9951
  163SOPE  H14R18298   2.495   5.123   9.206  0.2172  0.5371 -3.0849
  163SOPE  H14S18299   2.638   5.068   9.291 -0.5532 -1.1065 -1.8700
  163SOPE  C21518300   2.652   5.217   9.125 -0.0216 -0.3364 -0.2693
  163SOPE  H15R18301   2.738   5.286   9.141 -0.9731  0.8494 -0.1432
  163SOPE  H15S18302   2.582   5.277   9.063  0.8181  0.8730 -0.0832
  163SOPE  C21618303   2.702   5.105   9.028  0.2583  0.2335 -0.3960
  163SOPE  H16R18304   2.607   5.063   8.991 -0.6243  0.5623  1.3627
  163SOPE  H16S18305   2.762   5.025   9.078  0.3213  0.9819  0.7610
  163SOPE  C21718306   2.783   5.165   8.907  0.0968 -0.1189 -0.2744
  163SOPE  H17R18307   2.729   5.257   8.876  1.7440  1.7753  2.0527
  163SOPE  H17S18308   2.786   5.086   8.829  0.9766  0.5287 -0.9155
  163SOPE  C21818309   2.931   5.204   8.953 -0.2490  0.1364  0.0197
  163SOPE  H18R18310   2.982   5.107   8.972 -1.0834 -0.3292 -0.0736
  163SOPE  H18S18311   2.927   5.266   9.046 -1.1362  0.4544 -0.2222
  163SOPE  H18T18312   2.976   5.257   8.867 -0.5843 -0.5381 -0.5771
  163SOPE   C3318313   2.781   4.922  10.206 -0.0785  0.2614 -0.4306
  163SOPE   H3X18314   2.796   4.827  10.262  0.5364  2.0941  2.7557
  163SOPE   H3Y18315   2.876   4.980  10.204  0.1209 -0.0492 -0.1540
  163SOPE   C3418316   2.741   4.889  10.067  0.4811 -0.8213  0.5358
  163SOPE   H4X18317   2.706   4.982  10.017  0.0672 -0.7793  0.9003
  163SOPE   H4Y18318   2.664   4.810  10.052 -0.2575 -0.3840  1.8917
  163SOPE   C3518319   2.863   4.855   9.972 -0.0150 -0.2402  0.4910
  163SOPE   H5X18320   2.898   4.755  10.005  0.2702 -0.3157 -0.0351
  163SOPE   H5Y18321   2.948   4.926   9.976  0.8291 -1.2704  1.3859
  163SOPE   C3618322   2.815   4.860   9.830  0.0260 -0.8335  0.0284
  163SOPE   H6X18323   2.756   4.953   9.814 -0.2189 -0.6042  2.0413
  163SOPE   H6Y18324   2.736   4.785   9.811 -1.5411  0.0605  2.5339
  163SOPE   C3718325   2.941   4.838   9.740 -0.3656  0.6175  0.3235
  163SOPE   H7X18326   2.982   4.740   9.772 -0.1638  0.3826 -0.6356
  163SOPE   H7Y18327   3.017   4.915   9.762  0.0944 -0.3652  2.4187
  163SOPE   C3818328   2.913   4.840   9.586 -0.4045  0.4322  0.1722
  163SOPE   H8X18329   2.866   4.938   9.565 -0.6051 -0.0676 -1.9016
  163SOPE   H8Y18330   2.849   4.752   9.564 -0.7428  1.4260 -3.4955
  163SOPE   C3918331   3.039   4.816   9.504 -0.8176  0.2983  0.5847
  163SOPE   H9X18332   3.096   4.739   9.559  0.6242  0.7915 -0.1698
  163SOPE   H9Y18333   3.106   4.904   9.506  1.3491 -1.2170 -0.9444
  163SOPE  C31018334   3.016   4.774   9.363 -0.2233 -0.1003  0.1927
  163SOPE  H10X18335   2.943   4.845   9.320  1.0229  1.1318  0.0292
  163SOPE  H10Y18336   2.993   4.665   9.363  0.2928 -0.2373  1.8254
  163SOPE  C31118337   3.146   4.793   9.274 -0.3545  0.4211  0.1666
  163SOPE  H11X18338   3.228   4.746   9.332 -0.4636  0.4646  0.3554
  163SOPE  H11Y18339   3.168   4.902   9.271  1.5032  0.0678 -1.1624
  163SOPE  C31218340   3.130   4.743   9.135 -0.9208 -0.4075  0.0673
  163SOPE  H12X18341   3.049   4.784   9.070  1.3737  0.6714 -2.2801
  163SOPE  H12Y18342   3.103   4.636   9.137  0.6492 -0.8178  0.0384
  163SOPE  C31318343   3.270   4.752   9.052  0.1171  0.1162 -0.1177
  163SOPE  H13X18344   3.345   4.694   9.109  1.4086  1.5093 -0.3416
  163SOPE  H13Y18345   3.294   4.861   9.053  1.1481 -0.0908 -0.9084
  163SOPE  C31418346   3.262   4.704   8.905  0.0325 -0.4118 -0.2196
  163SOPE  H14X18347   3.179   4.764   8.862 -2.0992 -2.2975  1.0771
  163SOPE  H14Y18348   3.224   4.600   8.916 -1.8582  0.4712  3.3645
  163SOPE  C31518349   3.393   4.706   8.833  0.3203  0.6858  0.5819
  163SOPE  H15X18350   3.469   4.643   8.883  2.6273  0.6468 -2.6641
  163SOPE  H15Y18351   3.437   4.808   8.825  2.6278 -0.3937 -2.4622
  163SOPE  C31618352   3.377   4.653   8.688 -0.0585  0.2907 -0.6390
  163SOPE  H16X18353   3.306   4.711   8.625 -0.4788  0.0918 -0.3525
  163SOPE  H16Y18354   3.345   4.546   8.683  3.0141 -0.8823  1.4060
  163SOPE  C31718355   3.513   4.659   8.622  0.6945  0.1607  0.1284
  163SOPE  H17X18356   3.560   4.759   8.635  1.6823 -0.6459  4.4193
  163SOPE  H17Y18357   3.502   4.643   8.513  2.6451 -0.0938 -0.0654
  163SOPE  C31818358   3.619   4.565   8.680 -0.1560 -0.5987 -0.0500
  163SOPE  H18X18359   3.708   4.576   8.614 -1.4254  0.2616 -1.6986
  163SOPE  H18Y18360   3.582   4.461   8.676  0.9390 -0.9791 -0.8411
  163SOPE  H18Z18361   3.643   4.594   8.785  0.6190 -0.3282 -0.2975
  164SOPE     N18362   0.657   3.949  11.122  0.5407 -0.0705  0.0247
  164SOPE   HN118363   0.618   4.042  11.147 -0.4615 -0.0111 -1.5773
  164SOPE   HN218364   0.577   3.894  11.085  0.5994 -0.2461  0.1586
  164SOPE   HN318365   0.688   3.898  11.207 -0.0363  3.2731  2.4814
  164SOPE   C1218366   0.752   3.963  11.009 -0.1012  0.0734 -0.7455
  164SOPE  H12A18367   0.792   3.863  10.984 -3.7510 -2.2105  1.5349
  164SOPE  H12B18368   0.832   4.029  11.050 -1.6668  0.6779  1.5606
  164SOPE   C1118369   0.689   4.002  10.875  0.4570 -0.2982  0.1858
  164SOPE  H11A18370   0.762   4.030  10.796 -0.2240  0.3501 -0.2292
  164SOPE  H11B18371   0.619   4.088  10.886  0.5831 -0.4645  3.0602
  164SOPE     P18372   0.641   3.792  10.726 -0.4631  0.0403 -0.0569
  164SOPE   O1318373   0.527   3.697  10.726 -0.4688 -0.3745  0.0874
  164SOPE   O1418374   0.772   3.735  10.757 -0.2076 -1.0450  0.5532
  164SOPE   O1218375   0.606   3.898  10.833  0.2678  0.3120  0.4376
  164SOPE   O1118376   0.649   3.872  10.586  0.4021 -0.0654  0.2407
  164SOPE    C118377   0.549   3.968  10.542  0.4594  0.0161 -0.9065
  164SOPE    HA18378   0.595   4.060  10.501  2.8495 -1.9085 -2.8187
  164SOPE    HB18379   0.493   4.010  10.629  0.7186 -1.4011 -0.0361
  164SOPE    C218380   0.445   3.909  10.445 -0.1825 -0.1145 -0.8294
  164SOPE    HS18381   0.394   3.819  10.486 -0.3771  0.1831 -0.4094
  164SOPE   O2118382   0.502   3.890  10.318 -0.4141 -0.1056 -0.5578
  164SOPE   C2118383   0.433   3.799  10.242  0.2434  0.0098  1.1369
  164SOPE   O2218384   0.334   3.740  10.272  0.0175  0.0716  0.5525
  164SOPE   C2218385   0.502   3.780  10.105 -0.1312  0.1013 -0.3609
  164SOPE   H2R18386   0.475   3.686  10.053  0.1694  0.9287 -2.0991
  164SOPE   H2S18387   0.611   3.775  10.123 -0.5797 -2.6644  2.2787
  164SOPE    C318388   0.321   4.005  10.431  0.3224 -0.3130 -0.4999
  164SOPE    HX18389   0.288   4.029  10.535 -0.5994 -1.9868 -0.3723
  164SOPE    HY18390   0.231   3.959  10.383 -1.1139 -1.2099  2.7632
  164SOPE   O3118391   0.360   4.119  10.354  0.7874  0.3884  0.5162
  164SOPE   C3118392   0.387   4.234  10.415  0.8323  0.2761 -0.7659
  164SOPE   O3218393   0.407   4.243  10.533  0.4304 -0.2671 -0.2270
  164SOPE   C3218394   0.397   4.348  10.308  0.7175 -0.1270 -0.6088
  164SOPE   H2X18395   0.468   4.422  10.351  0.2417 -0.1718  0.2801
  164SOPE   H2Y18396   0.302   4.404  10.295  0.2086 -0.5795  0.9969
  164SOPE   C2318397   0.481   3.899  10.008  0.5028 -0.4598  0.2318
  164SOPE   H3R18398   0.561   3.901   9.931  0.6884  1.8945  0.4277
  164SOPE   H3S18399   0.504   3.990  10.067  1.2003 -1.4189  1.4934
  164SOPE   C2418400   0.339   3.914   9.948 -0.6904  0.5914 -0.2202
  164SOPE   H4R18401   0.301   3.817   9.911 -0.2705 -0.3688  1.7674
  164SOPE   H4S18402   0.262   3.950  10.018 -0.8371 -0.5002  0.1924
  164SOPE   C2518403   0.341   3.999   9.822  0.8224 -0.3278  0.1855
  164SOPE   H5R18404   0.383   4.098   9.850  0.3899 -0.0413 -0.1524
  164SOPE   H5S18405   0.407   3.954   9.746  0.4790  0.3810 -0.5572
  164SOPE   C2618406   0.206   4.033   9.767  0.7300 -0.1241 -0.2585
  164SOPE   H6R18407   0.134   3.950   9.785  0.6068  0.2075  0.8619
  164SOPE   H6S18408   0.154   4.111   9.827  2.6727  1.2313 -0.2517
  164SOPE   C2718409   0.211   4.098   9.625  0.3741 -0.3718  0.5808
  164SOPE   H7R18410   0.106   4.125   9.600  0.7095  1.5825  1.1048
  164SOPE   H7S18411   0.259   4.198   9.636 -0.0612  0.6434 -4.3208
  164SOPE   C2818412   0.273   4.018   9.507  0.6814 -0.2278 -0.5138
  164SOPE   H8R18413   0.248   4.080   9.419 -1.9797  0.1497  0.4214
  164SOPE   H8S18414   0.383   4.016   9.520  0.5672  0.1711  0.6824
  164SOPE   C2918415   0.215   3.875   9.495 -0.0525 -0.7617 -0.0839
  164SOPE   H9118416   0.253   3.803   9.570 -0.8873 -1.0703  0.0578
  164SOPE  C21018417   0.119   3.833   9.406  0.2502 -0.0610  0.2137
  164SOPE  H10118418   0.081   3.730   9.416  0.6780 -0.1386  1.1088
  164SOPE  C21118419   0.037   3.911   9.301  0.4496 -0.4202  0.0504
  164SOPE  H11R18420   0.108   3.971   9.240  2.0779  0.0586  2.2747
  164SOPE  H11S18421  -0.023   3.995   9.341  0.4075  0.1011 -1.0790
  164SOPE  C21218422  -0.052   3.833   9.200 -0.0224 -0.6153 -0.2336
  164SOPE  H12R18423  -0.101   3.762   9.270  1.6318 -1.5230  0.0543
  164SOPE  H12S18424   0.001   3.785   9.114  0.4097 -0.3804 -0.1013
  164SOPE  C21318425  -0.171   3.917   9.149 -0.2409 -0.3264  0.2715
  164SOPE  H13R18426  -0.141   4.004   9.087  0.6659 -1.0146 -0.2744
  164SOPE  H13S18427  -0.226   3.948   9.241 -2.8293 -2.4682 -0.3919
  164SOPE  C21418428  -0.267   3.835   9.062  0.4447 -0.3162 -0.6043
  164SOPE  H14R18429  -0.248   3.728   9.086 -2.1435 -0.4398  1.2504
  164SOPE  H14S18430  -0.237   3.856   8.957 -0.3823 -0.3315 -0.8442
  164SOPE  C21518431  -0.413   3.868   9.098  0.5087 -0.1829 -0.4338
  164SOPE  H15R18432  -0.423   3.978   9.098 -1.9182 -0.3375  0.3113
  164SOPE  H15S18433  -0.418   3.826   9.201  1.8322 -1.7880 -0.9762
  164SOPE  C21618434  -0.508   3.788   9.006  0.1006 -0.3561  0.2355
  164SOPE  H16R18435  -0.614   3.817   9.022  0.4082  1.4912 -0.7976
  164SOPE  H16S18436  -0.516   3.680   9.030 -0.1325 -0.1373  1.1954
  164SOPE  C21718437  -0.473   3.805   8.857 -0.3141  0.1352  0.4417
  164SOPE  H17R18438  -0.377   3.749   8.846 -0.7349 -0.6698  0.7794
  164SOPE  H17S18439  -0.467   3.913   8.835  1.1998 -0.2017 -1.0695
  164SOPE  C21818440  -0.586   3.739   8.772  0.1166 -0.7914  0.5836
  164SOPE  H18R18441  -0.568   3.784   8.672 -0.9413  2.3287  1.6778
  164SOPE  H18S18442  -0.683   3.787   8.794 -0.9477 -3.0602  1.1038
  164SOPE  H18T18443  -0.593   3.629   8.761 -1.6257 -0.4837 -3.0556
  164SOPE   C3318444   0.445   4.301  10.170  0.2681 -0.5710  0.2007
  164SOPE   H3X18445   0.356   4.255  10.122  1.5856  0.1549 -3.2268
  164SOPE   H3Y18446   0.533   4.233  10.175  1.0960  0.4253 -0.3945
  164SOPE   C3418447   0.485   4.417  10.081  0.6250  0.3042  0.4060
  164SOPE   H4X18448   0.583   4.456  10.114  1.8996 -1.1678 -1.3972
  164SOPE   H4Y18449   0.397   4.484  10.091  0.5210  0.1451  0.5575
  164SOPE   C3518450   0.500   4.384   9.928  0.6374  0.4495  0.4163
  164SOPE   H5X18451   0.489   4.471   9.860 -2.7493 -0.1954 -0.0520
  164SOPE   H5Y18452   0.425   4.306   9.903  1.9727 -0.9723  0.7082
  164SOPE   C3618453   0.640   4.324   9.896  0.5527 -0.3860  0.4499
  164SOPE   H6X18454   0.656   4.261   9.986 -2.0231  0.0696  1.3043
  164SOPE   H6Y18455   0.704   4.414   9.895 -2.4764  1.9402  0.7002
  164SOPE   C3718456   0.655   4.241   9.760 -0.1566  0.1872  0.0064
  164SOPE   H7X18457   0.590   4.151   9.765  0.8959 -0.5481  0.9968
  164SOPE   H7Y18458   0.758   4.200   9.749 -0.3665  0.1601 -2.6788
  164SOPE   C3818459   0.634   4.329   9.643 -0.0933 -0.0041  0.0463
  164SOPE   H8X18460   0.722   4.397   9.635  1.5813 -1.9985  0.7577
  164SOPE   H8Y18461   0.542   4.390   9.654  0.3545  0.9173 -1.0794
  164SOPE   C3918462   0.627   4.236   9.517 -0.1157  0.6094  0.0388
  164SOPE   H9X18463   0.525   4.191   9.520  0.2072 -0.1449 -0.1295
  164SOPE   H9Y18464   0.707   4.159   9.515 -0.5662  0.0861  1.1981
  164SOPE  C31018465   0.640   4.314   9.391 -0.4942 -0.0557  0.3667
  164SOPE  H10X18466   0.743   4.356   9.382 -0.6037  0.2123  0.3612
  164SOPE  H10Y18467   0.574   4.403   9.384 -2.3746 -1.4646 -1.0257
  164SOPE  C31118468   0.609   4.227   9.271  0.0268  0.1610 -0.7645
  164SOPE  H11X18469   0.508   4.188   9.296  0.9007 -1.7886 -0.0802
  164SOPE  H11Y18470   0.672   4.136   9.262 -1.9128 -1.2704 -0.4871
  164SOPE  C31218471   0.632   4.314   9.146  0.7002 -0.7169 -0.3473
  164SOPE  H12X18472   0.586   4.415   9.154  0.2200 -0.9579 -0.0116
  164SOPE  H12Y18473   0.602   4.256   9.056  1.4172 -0.0551 -1.0288
  164SOPE  C31318474   0.774   4.348   9.115 -0.0466 -0.4151 -0.5984
  164SOPE  H13X18475   0.849   4.266   9.122  0.7920  0.2966 -1.0405
  164SOPE  H13Y18476   0.802   4.420   9.196  0.7986 -2.4003  0.9713
  164SOPE  C31418477   0.793   4.433   8.983  0.0864 -0.2830  0.2601
  164SOPE  H14X18478   0.794   4.541   9.013 -0.2435 -0.5243  1.1814
  164SOPE  H14Y18479   0.706   4.411   8.919  0.3643 -1.0787  0.1484
  164SOPE  C31518480   0.920   4.386   8.911 -0.0235  0.2683  0.2785
  164SOPE  H15X18481   0.910   4.439   8.813  1.6068 -1.5635 -0.9526
  164SOPE  H15Y18482   0.916   4.280   8.881 -0.4065  0.0544  1.0741
  164SOPE  C31618483   1.055   4.439   8.966  0.1436 -0.7778 -0.9993
  164SOPE  H16X18484   1.067   4.394   9.067 -0.5348  2.1929  0.5102
  164SOPE  H16Y18485   1.051   4.549   8.976  2.2215 -0.6528 -1.0888
  164SOPE  C31718486   1.175   4.407   8.880  0.3373  0.5467  0.0081
  164SOPE  H17X18487   1.177   4.448   8.776  1.9469 -2.5304 -1.2913
  164SOPE  H17Y18488   1.172   4.297   8.866 -0.9881  0.8491 -2.8346
  164SOPE  C31818489   1.315   4.441   8.946 -0.0727 -0.5224  1.1197
  164SOPE  H18X18490   1.302   4.395   9.046 -0.9361 -2.6110  0.1042
  164SOPE  H18Y18491   1.319   4.552   8.943 -0.3835 -0.5234 -0.2197
  164SOPE  H18Z18492   1.396   4.386   8.893 -2.4767 -0.8268 -2.6385
  165SOPE     N18493   4.583   4.844  10.751 -0.1564  0.3878  0.1043
  165SOPE   HN118494   4.658   4.868  10.682 -0.8567  1.3349 -0.3549
  165SOPE   HN218495   4.533   4.760  10.715 -1.1111  1.3386 -0.8520
  165SOPE   HN318496   4.511   4.919  10.742 -0.3720  0.0767 -0.9395
  165SOPE   C1218497   4.632   4.825  10.897 -0.4765  0.2214  0.1043
  165SOPE  H12A18498   4.549   4.852  10.965 -0.6722 -2.3233  1.0050
  165SOPE  H12B18499   4.729   4.876  10.913  0.3702 -0.6013 -2.0331
  165SOPE   C1118500   4.664   4.678  10.936  0.1564 -0.4173  0.2723
  165SOPE  H11A18501   4.573   4.617  10.924  0.4561 -1.0363  1.0705
  165SOPE  H11B18502   4.703   4.660  11.038  0.2862 -0.9351  0.1367
  165SOPE     P18503   4.816   4.485  10.836  0.0833  0.4181 -0.3872
  165SOPE   O1318504   4.697   4.400  10.866  0.4030 -0.2476 -0.1295
  165SOPE   O1418505   4.936   4.465  10.916  0.8056 -0.0565  0.6328
  165SOPE   O1218506   4.777   4.634  10.853  0.4344  0.4170  0.1187
  165SOPE   O1118507   4.858   4.474  10.685  0.3131 -0.5776  0.1140
  165SOPE    C118508   4.764   4.402  10.596 -0.0852 -0.7771  0.3714
  165SOPE    HA18509   4.785   4.442  10.495  1.0901 -1.1341  0.4614
  165SOPE    HB18510   4.657   4.404  10.625 -0.4110 -1.5355 -0.6917
  165SOPE    C218511   4.801   4.258  10.567  0.3856 -0.4958 -0.4187
  165SOPE    HS18512   4.841   4.222  10.664 -0.5453  0.7850  0.4878
  165SOPE   O2118513   4.906   4.261  10.468  0.4345  0.2736 -0.1041
  165SOPE   C2118514   4.970   4.145  10.457 -0.6138 -1.2472  0.6109
  165SOPE   O2218515   4.951   4.050  10.529  0.1039  0.2048 -0.0466
  165SOPE   C2218516   5.089   4.167  10.357 -0.6332 -0.1011  0.4846
  165SOPE   H2R18517   5.076   4.080  10.290 -1.1028  1.0710 -1.0072
  165SOPE   H2S18518   5.186   4.155  10.410 -0.0729 -1.6271 -0.8213
  165SOPE    C318519   4.676   4.174  10.524  0.3070  0.2587 -0.3051
  165SOPE    HX18520   4.597   4.175  10.602  1.7188 -0.8131  1.1796
  165SOPE    HY18521   4.700   4.068  10.503 -2.9903 -0.3232 -1.8663
  165SOPE   O3118522   4.618   4.232  10.411  0.4953  0.0696  0.1325
  165SOPE   C3118523   4.635   4.174  10.295 -0.6536  0.2324 -0.2332
  165SOPE   O3218524   4.716   4.079  10.275  0.2994 -0.1489  0.1935
  165SOPE   C3218525   4.534   4.238  10.195  0.0417 -0.3924  0.7813
  165SOPE   H2X18526   4.518   4.343  10.228  0.1112 -0.7381  1.9590
  165SOPE   H2Y18527   4.446   4.171  10.202 -0.0867 -0.4467 -0.9642
  165SOPE   C2318528   5.094   4.298  10.282  0.6552  0.8262 -0.0304
  165SOPE   H3R18529   5.095   4.382  10.355  2.2135  1.3644 -0.6393
  165SOPE   H3S18530   5.002   4.326  10.225  0.9465 -0.1493 -0.9957
  165SOPE   C2418531   5.210   4.296  10.186 -0.1573  0.3254 -0.2371
  165SOPE   H4R18532   5.204   4.403  10.155 -1.0740  0.2123 -0.4966
  165SOPE   H4S18533   5.305   4.271  10.236 -0.1233 -1.2411 -1.0251
  165SOPE   C2518534   5.186   4.212  10.058  0.0724 -0.7570 -0.9463
  165SOPE   H5R18535   5.205   4.103  10.070  3.3047  0.0042  3.3320
  165SOPE   H5S18536   5.081   4.233  10.030  0.3084  3.0269  0.3354
  165SOPE   C2618537   5.263   4.271   9.941 -0.8602  0.0705  0.0736
  165SOPE   H6R18538   5.236   4.378   9.925 -2.1488 -0.0011  1.4974
  165SOPE   H6S18539   5.373   4.258   9.955 -1.1346 -1.5197  1.0209
  165SOPE   C2718540   5.230   4.198   9.806 -0.0288  0.0533  0.0183
  165SOPE   H7R18541   5.239   4.091   9.833  0.0710  0.5040  1.9154
  165SOPE   H7S18542   5.123   4.221   9.787  0.1344  0.3406 -0.5701
  165SOPE   C2818543   5.325   4.240   9.691  0.0928 -0.4082  0.4199
  165SOPE   H8R18544   5.292   4.198   9.594 -0.6081 -0.2791  0.5984
  165SOPE   H8S18545   5.306   4.349   9.675 -2.8896 -0.9086 -0.0292
  165SOPE   C2918546   5.471   4.214   9.707 -0.3227 -0.5323  0.1495
  165SOPE   H9118547   5.507   4.248   9.805 -2.5204  0.5496  0.6375
  165SOPE  C21018548   5.550   4.152   9.621 -0.1232  0.3494 -0.8823
  165SOPE  H10118549   5.657   4.149   9.649 -0.8170  1.1868  2.3318
  165SOPE  C21118550   5.508   4.102   9.485 -0.5035  0.2324 -0.5382
  165SOPE  H11R18551   5.408   4.056   9.499 -0.4880  0.1884 -0.5719
  165SOPE  H11S18552   5.576   4.024   9.445 -0.9874  1.1173 -3.2533
  165SOPE  C21218553   5.515   4.222   9.395  0.1410  0.1161 -0.3604
  165SOPE  H12R18554   5.613   4.272   9.382 -0.0106  0.2073 -1.2279
  165SOPE  H12S18555   5.453   4.302   9.441 -0.6966  0.8449 -2.6345
  165SOPE  C21318556   5.470   4.184   9.256 -0.1004 -0.7804 -0.3581
  165SOPE  H13R18557   5.455   4.274   9.192 -1.8162  0.2327  1.3515
  165SOPE  H13S18558   5.364   4.151   9.256 -1.5036  3.0333 -2.8247
  165SOPE  C21418559   5.549   4.078   9.192 -0.1734  0.0791  0.0623
  165SOPE  H14R18560   5.550   3.983   9.250 -2.8915  0.1221  0.3180
  165SOPE  H14S18561   5.655   4.108   9.176 -0.5771  0.7565 -1.5786
  165SOPE  C21518562   5.494   4.035   9.057 -0.5089  0.3250  0.1552
  165SOPE  H15R18563   5.522   4.113   8.983 -2.0851  0.8010  0.0228
  165SOPE  H15S18564   5.386   4.007   9.062 -0.0915 -1.1739  4.1609
  165SOPE  C21618565   5.565   3.918   8.997 -0.2327  0.3731  0.1819
  165SOPE  H16R18566   5.545   3.829   9.060 -2.9710  0.2834 -0.7083
  165SOPE  H16S18567   5.673   3.941   8.980 -0.1628 -1.0562 -1.7995
  165SOPE  C21718568   5.502   3.893   8.865 -0.1955  0.7069  0.2123
  165SOPE  H17R18569   5.510   3.986   8.804 -2.1535  1.2587  0.7500
  165SOPE  H17S18570   5.393   3.879   8.880  0.0858  0.1988  2.1364
  165SOPE  C21818571   5.558   3.774   8.792 -0.8903 -0.9994  0.1164
  165SOPE  H18R18572   5.547   3.682   8.853 -1.5278 -0.6075  0.6031
  165SOPE  H18S18573   5.664   3.805   8.778 -2.1284  2.9694 -2.2816
  165SOPE  H18T18574   5.524   3.766   8.686 -0.2174  1.6090 -0.3770
  165SOPE   C3318575   4.580   4.244  10.048  0.2927  0.1686 -0.5411
  165SOPE   H3X18576   4.685   4.212  10.034  0.1202  0.1846 -2.0661
  165SOPE   H3Y18577   4.585   4.350  10.014 -0.3546  0.5586  0.5338
  165SOPE   C3418578   4.494   4.156   9.956 -0.7250  0.6233 -0.0436
  165SOPE   H4X18579   4.395   4.208   9.952 -0.1983  1.5898 -0.7957
  165SOPE   H4Y18580   4.477   4.053   9.994  1.8347 -0.1892 -0.9055
  165SOPE   C3518581   4.541   4.158   9.810  0.1227  0.0675 -0.3981
  165SOPE   H5X18582   4.650   4.141   9.804  0.1983  0.3628  0.0403
  165SOPE   H5Y18583   4.513   4.258   9.770  1.3130  0.6648  0.2006
  165SOPE   C3618584   4.459   4.059   9.724  0.2237 -0.0634  0.8777
  165SOPE   H6X18585   4.350   4.079   9.731  0.4381  1.3695  0.4103
  165SOPE   H6Y18586   4.479   3.957   9.763 -0.8584 -0.9324 -0.7228
  165SOPE   C3718587   4.503   4.053   9.575 -0.0171 -0.5380  0.2579
  165SOPE   H7X18588   4.612   4.037   9.573 -0.0161 -0.4936 -1.3501
  165SOPE   H7Y18589   4.483   4.153   9.530  0.8534  0.4327  1.9161
  165SOPE   C3818590   4.433   3.937   9.504  0.0696 -0.0236  0.4347
  165SOPE   H8X18591   4.325   3.965   9.500  0.5932  2.0337 -0.9971
  165SOPE   H8Y18592   4.448   3.839   9.555  1.4985 -0.7770 -1.3382
  165SOPE   C3918593   4.473   3.914   9.358 -0.3466 -0.0281  0.4634
  165SOPE   H9X18594   4.584   3.919   9.366 -0.2969 -1.1232  0.6679
  165SOPE   H9Y18595   4.450   4.005   9.300  0.0322 -0.0183  0.3275
  165SOPE  C31018596   4.421   3.774   9.310  0.6664  0.6043 -0.2269
  165SOPE  H10X18597   4.311   3.786   9.326  0.3250  1.9970 -2.8690
  165SOPE  H10Y18598   4.450   3.709   9.395 -2.2943  0.6302  0.9285
  165SOPE  C31118599   4.452   3.737   9.174 -0.6891  0.0753 -0.7856
  165SOPE  H11X18600   4.559   3.708   9.173 -0.6017  0.3940 -1.1271
  165SOPE  H11Y18601   4.445   3.823   9.103 -0.0916  1.4864  0.7927
  165SOPE  C31218602   4.359   3.631   9.128  0.4043  0.5800  0.0262
  165SOPE  H12X18603   4.252   3.658   9.133  0.4404  1.0498 -1.4408
  165SOPE  H12Y18604   4.370   3.538   9.188 -1.7799 -0.5315 -1.2039
  165SOPE  C31318605   4.388   3.590   8.984 -0.8302 -0.2134 -0.3928
  165SOPE  H13X18606   4.352   3.661   8.907  0.1386  0.3370 -0.3530
  165SOPE  H13Y18607   4.336   3.491   8.986  1.2122 -1.3426  0.5290
  165SOPE  C31418608   4.533   3.556   8.946  0.0867  0.0183 -0.5322
  165SOPE  H14X18609   4.566   3.473   9.012 -0.0906  1.6682  1.7349
  165SOPE  H14Y18610   4.602   3.642   8.955  1.1925 -1.0639  2.2724
  165SOPE  C31518611   4.539   3.505   8.804  0.4275  0.0546 -0.4292
  165SOPE  H15X18612   4.516   3.590   8.737  0.1869  0.1428 -0.2380
  165SOPE  H15Y18613   4.473   3.419   8.779  2.6524 -1.0136 -3.0958
  165SOPE  C31618614   4.678   3.453   8.767 -0.6643 -0.8201  0.1857
  165SOPE  H16X18615   4.703   3.365   8.830  0.3263 -0.8660 -0.2523
  165SOPE  H16Y18616   4.758   3.526   8.791 -0.6254 -0.5471 -0.7272
  165SOPE  C31718617   4.701   3.414   8.620  0.5131  0.4077 -0.2486
  165SOPE  H17X18618   4.638   3.324   8.603  0.7876 -0.0037  0.8090
  165SOPE  H17Y18619   4.805   3.380   8.603  0.9752  1.9702 -0.7076
  165SOPE  C31818620   4.662   3.515   8.511  0.1488  0.2433 -0.3293
  165SOPE  H18X18621   4.727   3.603   8.527 -0.5927  1.1706 -2.1744
  165SOPE  H18Y18622   4.557   3.545   8.528 -0.6549 -1.1546 -2.3830
  165SOPE  H18Z18623   4.683   3.484   8.407 -1.7062  0.4167 -0.7957
  166SOPE     N18624   2.490   5.734  10.863 -0.0984 -0.4283 -0.3459
  166SOPE   HN118625   2.564   5.680  10.913 -0.5778 -1.6717 -0.9196
  166SOPE   HN218626   2.449   5.682  10.783  1.0775 -1.1940 -0.4773
  166SOPE   HN318627   2.530   5.823  10.828  1.7308 -1.5522 -1.2521
  166SOPE   C1218628   2.382   5.766  10.958 -0.0831  0.1028  0.2750
  166SOPE  H12A18629   2.342   5.866  10.930  0.3085  0.4674  0.9984
  166SOPE  H12B18630   2.416   5.776  11.063 -0.5694  0.1815  0.4277
  166SOPE   C1118631   2.262   5.663  10.950 -0.2332 -0.1208  0.4924
  166SOPE  H11A18632   2.199   5.699  11.034  2.1291  1.4121  1.7446
  166SOPE  H11B18633   2.302   5.560  10.962  1.1434  0.4038  0.6113
  166SOPE     P18634   2.044   5.637  10.817 -0.1707 -0.2761  0.0198
  166SOPE   O1318635   1.964   5.760  10.798  0.1432  0.2409 -0.7023
  166SOPE   O1418636   2.000   5.542  10.926  0.0391  0.6692  0.2249
  166SOPE   O1218637   2.192   5.682  10.824 -0.7558  0.3195  0.3337
  166SOPE   O1118638   2.050   5.562  10.680 -0.1751  0.8150 -0.1180
  166SOPE    C118639   2.131   5.445  10.666 -0.4705 -0.8214 -0.1507
  166SOPE    HA18640   2.082   5.351  10.698 -0.5674 -1.2026 -1.3391
  166SOPE    HB18641   2.231   5.457  10.713  0.8685  0.9968 -3.1233
  166SOPE    C218642   2.189   5.429  10.519  0.1080 -0.6232  0.3184
  166SOPE    HS18643   2.265   5.510  10.508 -1.4783  1.2993  2.4870
  166SOPE   O2118644   2.083   5.441  10.424 -1.0579 -0.2178  0.3458
  166SOPE   C2118645   2.063   5.564  10.378 -0.6935  0.2851  1.0659
  166SOPE   O2218646   2.131   5.664  10.402  0.1993  0.0936  0.0578
  166SOPE   C2218647   1.941   5.549  10.285 -0.0462 -0.2932  0.3713
  166SOPE   H2R18648   1.892   5.450  10.290 -1.4892  0.2667 -1.5108
  166SOPE   H2S18649   1.977   5.547  10.180 -0.6443  0.5302  0.1376
  166SOPE    C318650   2.269   5.290  10.511  0.0964 -0.2216  0.0735
  166SOPE    HX18651   2.193   5.216  10.543 -1.6070  1.5773  0.3623
  166SOPE    HY18652   2.347   5.307  10.588 -2.8661  1.1348  3.0230
  166SOPE   O3118653   2.323   5.264  10.383 -0.5593 -0.0413  0.2896
  166SOPE   C3118654   2.309   5.148  10.321  0.1225  0.1894 -0.5417
  166SOPE   O3218655   2.279   5.044  10.376  0.6973 -0.0778  0.0084
  166SOPE   C3218656   2.342   5.170  10.174 -0.1648 -0.5270  0.0726
  166SOPE   H2X18657   2.440   5.224  10.176  0.1722 -1.1580  1.8363
  166SOPE   H2Y18658   2.274   5.239  10.120  0.3099  1.4491  1.8466
  166SOPE   C2318659   1.840   5.663  10.290 -0.3254  0.0585  0.8352
  166SOPE   H3R18660   1.837   5.711  10.390  0.7067  0.0456  0.8861
  166SOPE   H3S18661   1.735   5.630  10.275  0.1444 -1.7069  1.2388
  166SOPE   C2418662   1.862   5.764  10.181  0.5609  1.0031  0.0306
  166SOPE   H4R18663   1.807   5.856  10.208 -2.1968 -0.4945 -0.1622
  166SOPE   H4S18664   1.965   5.806  10.180  0.3204  1.7524 -3.4330
  166SOPE   C2518665   1.809   5.727  10.049 -0.2421 -0.6020 -0.1110
  166SOPE   H5R18666   1.858   5.632  10.017  0.4396  0.1005 -1.2189
  166SOPE   H5S18667   1.705   5.701  10.078 -0.5316  1.7263  1.1279
  166SOPE   C2618668   1.816   5.840   9.948 -0.1631 -0.0397 -0.3244
  166SOPE   H6R18669   1.802   5.940   9.994  2.5989  0.0244  0.5761
  166SOPE   H6S18670   1.921   5.849   9.912  0.2264 -1.6418  0.3225
  166SOPE   C2718671   1.721   5.838   9.821 -0.0839  0.2312 -0.2113
  166SOPE   H7R18672   1.622   5.816   9.866  0.0643 -1.7413 -0.7506
  166SOPE   H7S18673   1.716   5.940   9.778 -0.8468  1.7727  3.1655
  166SOPE   C2818674   1.766   5.742   9.716 -0.1997 -0.8581 -0.5643
  166SOPE   H8R18675   1.866   5.773   9.679 -0.2991 -0.1599 -0.2689
  166SOPE   H8S18676   1.779   5.649   9.775 -1.9272 -0.3706  0.6843
  166SOPE   C2918677   1.677   5.712   9.599 -0.0526  0.3216  0.0148
  166SOPE   H9118678   1.597   5.638   9.613 -0.8642  1.2068  0.1789
  166SOPE  C21018679   1.696   5.761   9.474 -0.0612 -0.1993 -0.6221
  166SOPE  H10118680   1.645   5.713   9.390 -0.5022  0.8763 -0.9879
  166SOPE  C21118681   1.795   5.856   9.421  0.6185  0.5993 -0.1281
  166SOPE  H11R18682   1.854   5.897   9.506  0.3581  0.4316  0.1333
  166SOPE  H11S18683   1.745   5.948   9.384  0.7881  2.1524  3.1228
  166SOPE  C21218684   1.890   5.800   9.315 -0.4152  0.7779 -0.0852
  166SOPE  H12R18685   1.953   5.716   9.352 -2.6263 -2.5218 -3.1270
  166SOPE  H12S18686   1.958   5.883   9.287  0.7192 -0.6935 -1.9802
  166SOPE  C21318687   1.822   5.747   9.195 -0.6615  0.0419  0.7217
  166SOPE  H13R18688   1.757   5.813   9.133  0.4091 -1.3031 -1.9993
  166SOPE  H13S18689   1.753   5.668   9.232 -1.2461  1.2967  2.4346
  166SOPE  C21418690   1.908   5.666   9.091  0.5163 -0.3061  0.1829
  166SOPE  H14R18691   1.971   5.587   9.135 -1.0772 -3.1158 -2.2274
  166SOPE  H14S18692   1.978   5.736   9.040  0.7443 -0.5174  0.2023
  166SOPE  C21518693   1.841   5.584   8.976 -0.0655 -0.7254 -0.1094
  166SOPE  H15R18694   1.924   5.561   8.905  0.3489  1.2871 -0.3509
  166SOPE  H15S18695   1.767   5.648   8.924 -0.4725  1.2001  2.5848
  166SOPE  C21618696   1.776   5.453   9.013  1.1283 -0.6966  0.3333
  166SOPE  H16R18697   1.731   5.403   8.925 -1.8341  0.7991  0.8686
  166SOPE  H16S18698   1.706   5.458   9.098  1.6779 -0.7251  0.7900
  166SOPE  C21718699   1.872   5.345   9.068 -0.7648 -0.8578  1.0365
  166SOPE  H17R18700   1.907   5.376   9.168  0.9459  2.4323 -0.4208
  166SOPE  H17S18701   1.955   5.331   8.996 -2.1088 -0.5524 -0.6434
  166SOPE  C21818702   1.819   5.206   9.087 -0.3220 -0.0695  0.2742
  166SOPE  H18R18703   1.906   5.143   9.116  1.6730  2.0033 -0.8648
  166SOPE  H18S18704   1.777   5.172   8.990  1.6592  1.4562 -1.1999
  166SOPE  H18T18705   1.739   5.207   9.164 -1.4664 -0.4554 -0.8777
  166SOPE   C3318706   2.347   5.034  10.108  0.1164  0.5126 -0.1543
  166SOPE   H3X18707   2.243   4.997  10.114  0.6623 -0.9631  0.8487
  166SOPE   H3Y18708   2.404   4.958  10.166 -1.5819 -1.0637 -0.4862
  166SOPE   C3418709   2.381   5.059   9.957 -0.7857 -0.2038  0.2329
  166SOPE   H4X18710   2.488   5.086   9.960 -0.3545 -1.8760  1.8828
  166SOPE   H4Y18711   2.320   5.143   9.918 -0.1672  0.5054  0.7672
  166SOPE   C3518712   2.371   4.929   9.882  0.1118  0.6961 -0.2382
  166SOPE   H5X18713   2.274   4.880   9.906 -0.9303  2.6198 -0.3856
  166SOPE   H5Y18714   2.448   4.863   9.928 -1.5053 -0.6713  0.6236
  166SOPE   C3618715   2.387   4.925   9.729 -0.1529 -0.1617 -0.5211
  166SOPE   H6X18716   2.486   4.967   9.702 -0.3633 -0.5095 -1.9182
  166SOPE   H6Y18717   2.314   4.997   9.685  1.2558  2.0243  0.5494
  166SOPE   C3718718   2.381   4.775   9.680 -0.0100 -1.4311 -0.3406
  166SOPE   H7X18719   2.299   4.749   9.609  0.6338  0.1918 -1.7526
  166SOPE   H7Y18720   2.368   4.717   9.773 -0.3300  1.7307  1.7442
  166SOPE   C3818721   2.509   4.737   9.616  0.6367 -0.6828  0.2586
  166SOPE   H8X18722   2.508   4.628   9.596 -1.1199 -0.2305 -2.7233
  166SOPE   H8Y18723   2.599   4.761   9.676  0.9544 -2.3699  0.5228
  166SOPE   C3918724   2.522   4.800   9.473  0.6935  0.1724 -0.5527
  166SOPE   H9X18725   2.572   4.898   9.480  2.5456 -0.7720  0.0206
  166SOPE   H9Y18726   2.423   4.830   9.433  0.5801  1.1434  0.4066
  166SOPE  C31018727   2.598   4.716   9.373  0.0801  0.2373 -0.5393
  166SOPE  H10X18728   2.555   4.614   9.375 -0.9747  0.6347 -1.4862
  166SOPE  H10Y18729   2.707   4.718   9.395  0.3572  0.9227 -1.8543
  166SOPE  C31118730   2.583   4.767   9.229 -0.0923 -0.1884  0.6700
  166SOPE  H11X18731   2.650   4.856   9.222  0.2435 -0.5375 -0.9505
  166SOPE  H11Y18732   2.479   4.805   9.224 -0.7848 -2.1016 -0.4887
  166SOPE  C31218733   2.609   4.668   9.127  0.1693  0.0105 -0.1609
  166SOPE  H12X18734   2.570   4.569   9.159  0.7364 -0.2250 -0.1851
  166SOPE  H12Y18735   2.719   4.661   9.116  0.2350  1.0241 -0.2041
  166SOPE  C31318736   2.534   4.700   9.000 -0.0301  0.2540 -0.1609
  166SOPE  H13X18737   2.555   4.806   8.973 -0.4261  0.4096  0.1279
  166SOPE  H13Y18738   2.427   4.708   9.030  0.3122 -1.8465  1.8656
  166SOPE  C31418739   2.564   4.609   8.880 -0.2892 -0.2873  0.5259
  166SOPE  H14X18740   2.532   4.506   8.902 -0.3184 -0.5086 -0.4759
  166SOPE  H14Y18741   2.675   4.606   8.866 -0.0094  3.7142  0.7398
  166SOPE  C31518742   2.494   4.662   8.757  0.4300  0.2314  0.6954
  166SOPE  H15X18743   2.522   4.769   8.742 -0.7933  0.5989  0.8892
  166SOPE  H15Y18744   2.386   4.647   8.776  0.5754 -1.1607  0.5215
  166SOPE  C31618745   2.536   4.579   8.636 -0.4914  0.7059 -0.0966
  166SOPE  H16X18746   2.460   4.593   8.556  0.7950  1.2234 -1.2739
  166SOPE  H16Y18747   2.535   4.469   8.651  0.6304 -0.0659 -4.3635
  166SOPE  C31718748   2.675   4.629   8.583 -0.2476  0.4895 -0.2950
  166SOPE  H17X18749   2.754   4.640   8.661  0.8866 -1.4313 -1.0931
  166SOPE  H17Y18750   2.660   4.734   8.552  1.7394  0.5694 -1.1139
  166SOPE  C31818751   2.724   4.542   8.464 -0.2558 -0.3647 -0.0148
  166SOPE  H18X18752   2.651   4.528   8.381 -0.5764 -2.4107  0.5528
  166SOPE  H18Y18753   2.767   4.445   8.497  2.8585  1.1365  0.7322
  166SOPE  H18Z18754   2.811   4.595   8.419  1.5468 -2.9815  0.1111
  167SOPE     N18755   3.019   1.702   6.175 -0.6705  0.4971 -0.0545
  167SOPE   HN118756   3.075   1.710   6.087 -0.2683 -0.2510  0.1223
  167SOPE   HN218757   2.991   1.602   6.183  2.4468 -0.3458  2.2471
  167SOPE   HN318758   2.936   1.760   6.154 -1.2326 -0.9599 -2.3131
  167SOPE   C1218759   3.109   1.738   6.291 -0.1702 -0.0942 -0.4916
  167SOPE  H12A18760   3.052   1.717   6.384  0.6565 -3.0942 -0.5384
  167SOPE  H12B18761   3.140   1.843   6.273 -1.7342  0.2979 -1.0100
  167SOPE   C1118762   3.244   1.663   6.304 -0.5066  0.0136  0.5414
  167SOPE  H11A18763   3.214   1.560   6.329 -0.1413 -1.0048 -2.7963
  167SOPE  H11B18764   3.301   1.700   6.393  0.8445  1.1442 -0.7280
  167SOPE     P18765   3.400   1.777   6.136 -0.2761 -0.4116 -0.0964
  167SOPE   O1318766   3.312   1.891   6.097  0.5634  0.7341 -0.1502
  167SOPE   O1418767   3.492   1.723   6.031 -0.1570  0.8390 -0.6474
  167SOPE   O1218768   3.320   1.651   6.184 -0.6973  0.2616  0.0970
  167SOPE   O1118769   3.488   1.817   6.265 -0.7185 -0.1815 -0.0992
  167SOPE    C118770   3.615   1.745   6.284  1.3006 -0.5729 -0.0178
  167SOPE    HA18771   3.681   1.800   6.355  0.6384  0.5284 -0.2187
  167SOPE    HB18772   3.671   1.745   6.188  2.5819 -0.9560  0.7106
  167SOPE    C218773   3.590   1.606   6.354 -0.0434  0.3731  0.1597
  167SOPE    HS18774   3.502   1.552   6.314 -0.5384  0.3060  1.2845
  167SOPE   O2118775   3.571   1.642   6.492  0.1186 -0.1132  0.4646
  167SOPE   C2118776   3.493   1.559   6.564 -0.0237 -0.1233 -0.1922
  167SOPE   O2218777   3.439   1.459   6.524  0.2010 -0.2560  0.2645
  167SOPE   C2218778   3.490   1.611   6.716 -0.4954  0.3536  0.5776
  167SOPE   H2R18779   3.387   1.650   6.726 -0.7497 -0.0713 -0.2980
  167SOPE   H2S18780   3.563   1.693   6.737 -1.4790  1.6791 -0.9727
  167SOPE    C318781   3.710   1.512   6.345  0.1177 -0.0259 -0.3553
  167SOPE    HX18782   3.717   1.480   6.239  0.2825  3.1883 -1.4178
  167SOPE    HY18783   3.693   1.423   6.409  2.4080 -1.0584 -1.0439
  167SOPE   O3118784   3.837   1.569   6.398 -0.3798  0.2463  0.2207
  167SOPE   C3118785   3.858   1.566   6.531  0.2922 -0.1662 -0.4445
  167SOPE   O3218786   3.794   1.501   6.611  0.2860 -0.6005 -0.1095
  167SOPE   C3218787   3.969   1.663   6.567  0.1662  0.9225  0.2043
  167SOPE   H2X18788   4.042   1.680   6.485  1.2734  0.8044  1.1424
  167SOPE   H2Y18789   4.028   1.614   6.646 -0.8155  1.3921  1.2576
  167SOPE   C2318790   3.512   1.485   6.805  0.4471 -0.8472 -0.1261
  167SOPE   H3R18791   3.620   1.460   6.819  0.1339 -2.0105  0.3235
  167SOPE   H3S18792   3.468   1.395   6.756 -2.0476 -0.2821  0.9446
  167SOPE   C2418793   3.447   1.503   6.949 -0.2386  0.4271 -0.3377
  167SOPE   H4R18794   3.342   1.535   6.932 -0.6703 -1.2295 -0.9273
  167SOPE   H4S18795   3.450   1.408   7.006 -0.1907  0.7290  0.1748
  167SOPE   C2518796   3.518   1.619   7.022  0.5521  0.7611 -0.2571
  167SOPE   H5R18797   3.626   1.597   7.038 -0.1021 -1.5757  1.6047
  167SOPE   H5S18798   3.496   1.713   6.967  1.6469  2.0700  1.4401
  167SOPE   C2618799   3.457   1.648   7.159 -0.8567  0.2600  0.3784
  167SOPE   H6R18800   3.348   1.664   7.151 -1.1857 -2.1964 -0.9955
  167SOPE   H6S18801   3.469   1.563   7.230 -0.7383  1.7784  2.2492
  167SOPE   C2718802   3.528   1.770   7.221 -0.2978  0.6322 -0.5878
  167SOPE   H7R18803   3.637   1.754   7.237 -0.3265  2.2722  1.6411
  167SOPE   H7S18804   3.526   1.855   7.149  1.8319  2.3740  1.2673
  167SOPE   C2818805   3.457   1.825   7.343 -0.2736  0.2011  0.1065
  167SOPE   H8R18806   3.476   1.934   7.344  0.7090  0.0652  2.5965
  167SOPE   H8S18807   3.349   1.801   7.333  0.2517 -1.2639 -3.7383
  167SOPE   C2918808   3.502   1.785   7.480  0.3737 -0.2977 -0.3248
  167SOPE   H9118809   3.561   1.693   7.490  0.3065 -0.1432  1.9856
  167SOPE  C21018810   3.487   1.855   7.599  1.0082  0.8523  0.1843
  167SOPE  H10118811   3.528   1.817   7.693 -2.3238  0.7292  1.7467
  167SOPE  C21118812   3.409   1.985   7.612  0.1098  0.7447  0.1432
  167SOPE  H11R18813   3.324   1.978   7.540  0.5085 -0.5742 -0.2279
  167SOPE  H11S18814   3.470   2.067   7.568 -1.9749  1.8018 -0.9297
  167SOPE  C21218815   3.346   2.031   7.746  0.2697  0.0437 -0.0626
  167SOPE  H12R18816   3.270   1.954   7.769  0.9472 -1.5998 -2.9378
  167SOPE  H12S18817   3.296   2.130   7.737 -2.1147 -1.1161 -0.2745
  167SOPE  C21318818   3.452   2.068   7.855 -0.1867  0.4331 -0.1133
  167SOPE  H13R18819   3.486   2.166   7.815  0.6756 -0.3499 -1.3914
  167SOPE  H13S18820   3.538   1.998   7.855  0.1146  0.7221 -2.5430
  167SOPE  C21418821   3.391   2.095   7.993 -0.0452 -0.2252 -0.0712
  167SOPE  H14R18822   3.305   2.166   7.988 -0.7130 -0.9952  0.2567
  167SOPE  H14S18823   3.466   2.155   8.050 -1.3641  1.1740  0.2579
  167SOPE  C21518824   3.335   1.972   8.072 -0.2208  0.1913  0.1104
  167SOPE  H15R18825   3.414   1.894   8.062  1.0709  1.6551 -2.0097
  167SOPE  H15S18826   3.240   1.934   8.029  0.0000  1.0261 -1.1624
  167SOPE  C21618827   3.327   2.004   8.222 -0.1804 -0.0620  0.0073
  167SOPE  H16R18828   3.249   2.081   8.239 -0.5009 -0.8303  2.3198
  167SOPE  H16S18829   3.416   2.050   8.271  0.5378 -2.2819  0.9053
  167SOPE  C21718830   3.286   1.883   8.309  0.4697 -0.3871 -0.1039
  167SOPE  H17R18831   3.222   1.830   8.236  0.4289  1.7943 -1.7507
  167SOPE  H17S18832   3.227   1.916   8.397  0.4662  0.0082 -0.2535
  167SOPE  C21818833   3.387   1.780   8.353  0.0646  0.5156 -0.0971
  167SOPE  H18R18834   3.335   1.697   8.406  3.0235 -1.5833 -0.2183
  167SOPE  H18S18835   3.462   1.822   8.423 -0.7425  0.2799  0.9288
  167SOPE  H18T18836   3.454   1.746   8.271  0.8653 -0.4857  0.9404
  167SOPE   C3318837   3.920   1.790   6.629  0.1224  0.9709  0.3360
  167SOPE   H3X18838   3.830   1.832   6.579  0.2841  0.5849 -0.2858
  167SOPE   H3Y18839   3.998   1.868   6.617 -1.3804  2.4443 -0.4284
  167SOPE   C3418840   3.876   1.777   6.782 -0.0320 -0.4346 -0.3353
  167SOPE   H4X18841   3.970   1.741   6.830  0.3147 -1.5124 -1.7576
  167SOPE   H4Y18842   3.795   1.701   6.787 -0.0446 -0.4165 -0.2588
  167SOPE   C3518843   3.827   1.903   6.859 -0.2592 -0.1595  0.2873
  167SOPE   H5X18844   3.727   1.925   6.815  0.1715 -0.5932 -0.9482
  167SOPE   H5Y18845   3.905   1.979   6.839  2.4987 -3.0499 -0.8426
  167SOPE   C3618846   3.810   1.902   7.010  0.0373  0.0882  0.0345
  167SOPE   H6X18847   3.894   1.844   7.055  0.2431  0.0522 -0.3977
  167SOPE   H6Y18848   3.720   1.844   7.040  0.0519  0.0423 -0.0116
  167SOPE   C3718849   3.799   2.043   7.069  0.2307 -0.4043 -0.1571
  167SOPE   H7X18850   3.736   2.106   7.003  0.1746 -0.7797 -0.4645
  167SOPE   H7Y18851   3.901   2.084   7.053 -0.3422  1.9755  1.7238
  167SOPE   C3818852   3.759   2.057   7.218 -1.1204  0.4401  0.1102
  167SOPE   H8X18853   3.675   1.986   7.235  0.0840 -1.7041 -2.2804
  167SOPE   H8Y18854   3.711   2.153   7.243  0.5048  1.0370  1.1191
  167SOPE   C3918855   3.869   2.027   7.325 -0.2130  0.1979  0.2585
  167SOPE   H9X18856   3.940   2.113   7.323 -0.6573  0.5578 -0.7409
  167SOPE   H9Y18857   3.920   1.935   7.288  0.4624  2.1074 -4.1896
  167SOPE  C31018858   3.817   1.982   7.463  0.2034 -0.1434  0.2488
  167SOPE  H10X18859   3.792   1.874   7.452 -0.0140  0.1256 -2.4498
  167SOPE  H10Y18860   3.731   2.047   7.486  1.2185  1.2665  0.1993
  167SOPE  C31118861   3.928   1.995   7.576  0.0450  0.0563 -0.1382
  167SOPE  H11X18862   3.982   2.090   7.556  0.3497 -0.6349 -3.0256
  167SOPE  H11Y18863   4.003   1.914   7.563 -0.4346 -0.1623 -1.6906
  167SOPE  C31218864   3.862   1.974   7.719  0.2209  0.1914  0.1697
  167SOPE  H12X18865   3.820   1.871   7.726  0.5500 -0.0592 -1.3012
  167SOPE  H12Y18866   3.774   2.043   7.724  1.4986  2.1982 -2.7175
  167SOPE  C31318867   3.963   2.007   7.827 -0.1757 -0.1171  0.2555
  167SOPE  H13X18868   3.991   2.114   7.816 -0.0043  0.0885  2.3706
  167SOPE  H13Y18869   4.052   1.947   7.798 -1.2864 -0.8220 -1.9379
  167SOPE  C31418870   3.937   1.978   7.969  0.6679  0.5999 -0.1262
  167SOPE  H14X18871   4.019   2.020   8.031 -0.0888 -2.4060  3.2233
  167SOPE  H14Y18872   3.929   1.868   7.971  0.8980  0.5936  1.2387
  167SOPE  C31518873   3.806   2.040   8.025  0.3875 -0.0624 -0.5269
  167SOPE  H15X18874   3.715   2.007   7.970 -0.9265  1.2753  0.7404
  167SOPE  H15Y18875   3.800   2.149   8.002 -0.7753 -0.2871 -1.3738
  167SOPE  C31618876   3.789   2.023   8.173  0.2630 -0.2213 -0.0480
  167SOPE  H16X18877   3.688   2.052   8.209  0.6642 -0.5516  1.4104
  167SOPE  H16Y18878   3.864   2.096   8.211  0.7428 -1.0345  0.6195
  167SOPE  C31718879   3.818   1.882   8.227 -0.2918 -0.8918 -0.4892
  167SOPE  H17X18880   3.920   1.849   8.198  0.5418  1.9900 -1.1842
  167SOPE  H17Y18881   3.742   1.818   8.178 -2.6619  2.3555 -1.3709
  167SOPE  C31818882   3.785   1.881   8.372  0.0512  0.0920  0.2352
  167SOPE  H18X18883   3.742   1.979   8.399  0.0571  0.0917  0.2461
  167SOPE  H18Y18884   3.866   1.853   8.444 -0.2864 -1.5838  0.0220
  167SOPE  H18Z18885   3.710   1.801   8.387 -1.0405  1.0662  0.0486
  168SOPE     N18886   4.566   5.629   6.040 -0.4351  0.4734 -0.1046
  168SOPE   HN118887   4.485   5.566   6.030 -0.4552  0.6222 -1.0229
  168SOPE   HN218888   4.597   5.636   5.941 -1.1695 -2.4718 -0.6327
  168SOPE   HN318889   4.647   5.588   6.091 -1.0736  2.6037  2.9325
  168SOPE   C1218890   4.529   5.762   6.099 -0.1644  0.2523 -0.9969
  168SOPE  H12A18891   4.611   5.834   6.080  0.0377 -0.5303 -3.4444
  168SOPE  H12B18892   4.520   5.742   6.208 -0.4607 -1.5290 -1.3163
  168SOPE   C1118893   4.395   5.812   6.046 -0.3029 -0.5681 -0.1148
  168SOPE  H11A18894   4.310   5.741   6.053  1.0004 -2.2317 -0.6983
  168SOPE  H11B18895   4.404   5.833   5.938 -0.4303 -1.3239 -0.2761
  168SOPE     P18896   4.275   5.946   6.246 -0.1884 -0.0299 -0.2149
  168SOPE   O1318897   4.133   5.932   6.207 -0.3504 -0.4411  0.0151
  168SOPE   O1418898   4.310   6.077   6.312  0.0493  0.0124  0.5091
  168SOPE   O1218899   4.367   5.936   6.115 -0.4480 -0.3835 -0.4523
  168SOPE   O1118900   4.318   5.826   6.343  0.1312  0.3762 -0.6637
  168SOPE    C118901   4.251   5.703   6.371 -0.0363 -0.1437  0.6493
  168SOPE    HA18902   4.329   5.625   6.384 -0.8520 -1.3519 -1.2606
  168SOPE    HB18903   4.191   5.668   6.283  1.9044 -1.0922 -0.3568
  168SOPE    C218904   4.160   5.718   6.498  0.4081 -0.3804  0.1528
  168SOPE    HS18905   4.085   5.796   6.472  0.9509 -0.0995 -0.6170
  168SOPE   O2118906   4.246   5.744   6.610 -0.2597 -0.1278  0.0923
  168SOPE   C2118907   4.178   5.825   6.694 -0.7340  0.7432  0.3861
  168SOPE   O2218908   4.069   5.869   6.685  0.6243  0.4137  0.3042
  168SOPE   C2218909   4.268   5.846   6.816  0.3622 -0.0003  0.6064
  168SOPE   H2R18910   4.362   5.885   6.773 -0.9536 -0.3209 -2.8664
  168SOPE   H2S18911   4.290   5.752   6.871  3.8598  0.2150 -0.1974
  168SOPE    C318912   4.077   5.582   6.530 -0.1971  0.2767 -0.8764
  168SOPE    HX18913   4.034   5.544   6.434  0.2498 -0.0417 -0.9535
  168SOPE    HY18914   4.006   5.618   6.608  1.7906  1.0477  0.6410
  168SOPE   O3118915   4.146   5.480   6.602 -0.1933  0.5967  0.3115
  168SOPE   C3118916   4.083   5.369   6.610  0.4039 -0.7138  0.0646
  168SOPE   O3218917   3.979   5.345   6.556  0.0002 -0.2892 -0.3182
  168SOPE   C3218918   4.155   5.271   6.708 -0.3406  0.4970  0.6429
  168SOPE   H2X18919   4.181   5.323   6.803  1.5205 -1.5483  1.3398
  168SOPE   H2Y18920   4.245   5.231   6.657  2.0325  1.1990  3.9254
  168SOPE   C2318921   4.210   5.956   6.910  0.0482  0.2969 -0.7031
  168SOPE   H3R18922   4.120   5.911   6.955 -0.3606  0.6509 -1.1486
  168SOPE   H3S18923   4.185   6.039   6.840  1.2045  0.7406 -0.6089
  168SOPE   C2418924   4.306   6.001   7.018 -0.1495 -0.6448  0.6679
  168SOPE   H4R18925   4.348   5.911   7.066 -0.5382 -0.9682  0.4078
  168SOPE   H4S18926   4.382   6.059   6.962 -2.1168  3.1739  1.5508
  168SOPE   C2518927   4.236   6.081   7.131  0.5857  0.2459  0.6374
  168SOPE   H5R18928   4.319   6.108   7.199  1.8518 -0.5337 -0.5390
  168SOPE   H5S18929   4.188   6.171   7.087 -0.1667 -0.0447  0.8605
  168SOPE   C2618930   4.135   6.008   7.218  0.4162 -0.0835  0.0558
  168SOPE   H6R18931   4.043   5.975   7.166 -0.3108  1.9037 -0.0007
  168SOPE   H6S18932   4.186   5.925   7.272  0.3873  0.7059  1.3317
  168SOPE   C2718933   4.086   6.092   7.338  0.2115  0.1694  0.0623
  168SOPE   H7R18934   4.167   6.143   7.394 -0.2962  1.5382 -0.3911
  168SOPE   H7S18935   4.021   6.179   7.312  0.6911  0.9008  1.2101
  168SOPE   C2818936   4.012   5.995   7.434  0.9086  0.2345  0.1683
  168SOPE   H8R18937   3.952   6.057   7.503  0.9660 -0.7046  1.0891
  168SOPE   H8S18938   3.946   5.930   7.373  0.2940 -0.6761  1.7457
  168SOPE   C2918939   4.091   5.898   7.512 -0.0027 -0.9684  0.0662
  168SOPE   H9118940   4.089   5.794   7.476  0.2025 -0.8300 -0.3552
  168SOPE  C21018941   4.131   5.926   7.638  0.0567  0.0794  0.1708
  168SOPE  H10118942   4.184   5.842   7.686  0.5122  0.6684  0.7078
  168SOPE  C21118943   4.103   6.052   7.720  0.0788  0.6533 -0.3982
  168SOPE  H11R18944   4.063   6.134   7.656 -1.3695  1.6249  1.6319
  168SOPE  H11S18945   4.193   6.077   7.780  0.1690 -3.0381  1.3123
  168SOPE  C21218946   4.009   6.031   7.836 -0.1308  0.3035  0.0684
  168SOPE  H12R18947   3.910   6.008   7.791 -1.7302  3.1140  1.8463
  168SOPE  H12S18948   3.985   6.124   7.892  1.7088  0.7070  0.2405
  168SOPE  C21318949   4.045   5.910   7.920 -0.1273  0.1334  0.3705
  168SOPE  H13R18950   4.142   5.929   7.971  0.1676 -2.4171  0.9172
  168SOPE  H13S18951   4.051   5.820   7.855 -1.7818  0.0763  0.2700
  168SOPE  C21418952   3.939   5.880   8.027 -0.6865 -0.4692  0.5704
  168SOPE  H14R18953   3.850   5.846   7.969  0.8672 -1.7756 -1.1719
  168SOPE  H14S18954   3.904   5.979   8.064 -2.2610 -0.1548 -1.5550
  168SOPE  C21518955   3.970   5.772   8.126  0.1735 -0.4863 -0.6188
  168SOPE  H15R18956   4.076   5.775   8.160  0.7258 -0.5263 -2.2446
  168SOPE  H15S18957   3.949   5.671   8.085  1.5085 -1.1878  0.3700
  168SOPE  C21618958   3.873   5.787   8.246 -0.5837 -1.0358  0.4343
  168SOPE  H16R18959   3.855   5.690   8.298 -3.2908 -1.2688 -0.7552
  168SOPE  H16S18960   3.767   5.805   8.216 -0.2608 -0.2782 -0.2909
  168SOPE  C21718961   3.926   5.886   8.350 -0.5245  0.0785  0.2954
  168SOPE  H17R18962   3.937   5.991   8.316 -1.9993  0.3999  0.7282
  168SOPE  H17S18963   4.028   5.849   8.374 -1.4247 -1.7605  1.6186
  168SOPE  C21818964   3.860   5.897   8.488 -0.6267 -0.5409 -0.2790
  168SOPE  H18R18965   3.828   5.798   8.527 -0.2026 -0.0812  1.3265
  168SOPE  H18S18966   3.764   5.951   8.473  0.0119  0.7489  0.1493
  168SOPE  H18T18967   3.925   5.956   8.556 -1.2819  1.0682 -0.9929
  168SOPE   C3318968   4.057   5.158   6.757  0.0980  0.3704  0.1266
  168SOPE   H3X18969   4.134   5.094   6.807  1.0862  1.5303  0.1335
  168SOPE   H3Y18970   4.005   5.100   6.679 -2.8831 -1.0677  2.9447
  168SOPE   C3418971   3.947   5.198   6.852  0.0764  0.7319  0.2247
  168SOPE   H4X18972   3.899   5.285   6.802 -0.1655 -0.7513 -2.2452
  168SOPE   H4Y18973   3.993   5.239   6.944  0.4287  1.2946 -0.1954
  168SOPE   C3518974   3.845   5.084   6.878  0.1201 -0.2247  0.2273
  168SOPE   H5X18975   3.912   5.003   6.914 -1.8689 -1.4759  1.3552
  168SOPE   H5Y18976   3.804   5.058   6.778 -0.5054 -1.7072  0.8268
  168SOPE   C3618977   3.748   5.126   6.994  0.0174  0.4792 -1.0639
  168SOPE   H6X18978   3.798   5.188   7.071  0.6562 -1.7449  0.3974
  168SOPE   H6Y18979   3.701   5.034   7.036  1.8183  0.9368  2.2497
  168SOPE   C3718980   3.629   5.212   6.948  0.2299 -0.5759  0.4264
  168SOPE   H7X18981   3.575   5.141   6.881 -1.0959 -1.3918  2.2762
  168SOPE   H7Y18982   3.678   5.296   6.894  2.1131 -1.3790  0.7984
  168SOPE   C3818983   3.547   5.271   7.060  0.5907  0.1003  0.2825
  168SOPE   H8X18984   3.476   5.344   7.015 -2.2400 -2.1758  0.7226
  168SOPE   H8Y18985   3.610   5.321   7.137 -0.3915 -0.1588  1.2828
  168SOPE   C3918986   3.458   5.160   7.130 -0.2232 -0.3696 -0.4590
  168SOPE   H9X18987   3.527   5.084   7.172 -0.3784 -0.6080 -0.6352
  168SOPE   H9Y18988   3.398   5.100   7.058  0.3523 -1.2046 -0.2603
  168SOPE  C31018989   3.370   5.216   7.241  0.3520  0.3741  0.1978
  168SOPE  H10X18990   3.295   5.292   7.211  0.2646  1.1577  2.1768
  168SOPE  H10Y18991   3.430   5.270   7.318  1.3894 -0.2342 -0.1603
  168SOPE  C31118992   3.303   5.101   7.321  0.0459  0.1701  0.0459
  168SOPE  H11X18993   3.373   5.021   7.353 -0.0780 -0.3351 -0.9322
  168SOPE  H11Y18994   3.231   5.056   7.250 -0.1987 -1.3740  1.2108
  168SOPE  C31218995   3.221   5.154   7.437 -0.1434  0.4614 -0.6502
  168SOPE  H12X18996   3.167   5.247   7.409  0.9494  1.4945  0.5431
  168SOPE  H12Y18997   3.289   5.176   7.523 -1.3645  2.7116 -0.1663
  168SOPE  C31318998   3.105   5.054   7.472  0.0473 -0.3189 -0.3423
  168SOPE  H13X18999   3.139   4.954   7.439  0.9291 -0.2207  0.2140
  168SOPE  H13Y19000   3.018   5.081   7.409  0.6045  0.4183 -0.8273
  168SOPE  C31419001   3.071   5.057   7.619 -0.0777  0.5963  0.0303
  168SOPE  H14X19002   2.970   5.012   7.627  0.2108  0.1898  1.7583
  168SOPE  H14Y19003   3.059   5.160   7.659 -1.4121 -0.5041  2.7101
  168SOPE  C31519004   3.154   4.963   7.708  0.6149 -0.2234 -0.1318
  168SOPE  H15X19005   3.133   4.976   7.816  2.4843 -0.4106  0.2888
  168SOPE  H15Y19006   3.263   4.984   7.699  0.7697 -1.1442 -0.5473
  168SOPE  C31619007   3.136   4.813   7.684 -0.3962 -0.3806 -0.4606
  168SOPE  H16X19008   3.167   4.775   7.584  1.1092  0.3596 -0.3071
  168SOPE  H16Y19009   3.025   4.808   7.690 -0.6084  2.0229 -1.2112
  168SOPE  C31719010   3.207   4.728   7.784  0.2224  0.0559 -0.3639
  168SOPE  H17X19011   3.162   4.769   7.877 -1.6877 -2.9546  0.1967
  168SOPE  H17Y19012   3.315   4.748   7.768  0.2152 -1.5732 -2.9617
  168SOPE  C31819013   3.187   4.576   7.793  0.2242 -0.3627  0.8884
  168SOPE  H18X19014   3.228   4.530   7.700 -2.7953 -1.3478 -0.1048
  168SOPE  H18Y19015   3.080   4.545   7.798 -0.3006  1.1089 -0.1936
  168SOPE  H18Z19016   3.238   4.530   7.879  0.0796 -0.8831  0.6986
  169SOPE     N19017   6.055   1.201   5.998 -0.1072 -0.1960 -0.9180
  169SOPE   HN119018   5.956   1.230   5.981 -1.3643 -3.7121 -0.4334
  169SOPE   HN219019   6.124   1.277   5.980 -0.0079 -0.1249 -0.2473
  169SOPE   HN319020   6.062   1.121   5.932  0.9225 -0.8297 -0.0578
  169SOPE   C1219021   6.075   1.167   6.143 -0.2535  0.4652 -0.0431
  169SOPE  H12A19022   6.012   1.077   6.163  1.9791 -0.7147  2.3391
  169SOPE  H12B19023   6.035   1.252   6.203 -0.9733  0.5508 -0.6295
  169SOPE   C1119024   6.223   1.143   6.177  0.8432 -0.1008  0.2463
  169SOPE  H11A19025   6.266   1.058   6.120  1.0581 -1.0960  1.8300
  169SOPE  H11B19026   6.232   1.125   6.286  0.1090 -0.7038  0.2130
  169SOPE     P19027   6.417   1.312   6.211 -0.0349 -0.1099 -0.5376
  169SOPE   O1319028   6.480   1.429   6.144  0.5290 -0.5211 -0.0690
  169SOPE   O1419029   6.499   1.191   6.245  0.3461 -0.0927  0.2008
  169SOPE   O1219030   6.291   1.259   6.134 -0.1626 -0.0234  0.2312
  169SOPE   O1119031   6.362   1.353   6.353 -0.4306 -0.5702 -0.1616
  169SOPE    C119032   6.237   1.412   6.383  0.8581  0.4778 -0.2557
  169SOPE    HA19033   6.156   1.342   6.355  0.0826  0.8022  1.1059
  169SOPE    HB19034   6.212   1.505   6.327  1.2833  2.0172  1.9851
  169SOPE    C219035   6.219   1.440   6.536 -0.2628 -0.3184  0.5987
  169SOPE    HS19036   6.227   1.340   6.584 -1.0600  0.4118  2.3316
  169SOPE   O2119037   6.091   1.502   6.561 -0.7208 -0.0716 -0.1844
  169SOPE   C2119038   5.999   1.409   6.583  0.9875  0.0651  1.0693
  169SOPE   O2219039   6.001   1.289   6.550 -0.0643 -0.6877 -0.2088
  169SOPE   C2219040   5.867   1.487   6.611 -0.3763 -0.4383 -0.3445
  169SOPE   H2R19041   5.783   1.415   6.616 -0.6748  0.0118  3.1396
  169SOPE   H2S19042   5.857   1.563   6.530 -1.4571  0.7479  0.8677
  169SOPE    C319043   6.338   1.525   6.590  0.4029  0.1277 -0.1227
  169SOPE    HX19044   6.340   1.615   6.525  1.3804  1.2693  1.3925
  169SOPE    HY19045   6.441   1.485   6.574  1.6203  2.7508  0.5359
  169SOPE   O3119046   6.315   1.558   6.730  0.0509  0.7203  0.4858
  169SOPE   C3119047   6.358   1.673   6.776  0.4445 -0.2075  0.1067
  169SOPE   O3219048   6.414   1.757   6.710  0.5853  0.5021  0.3795
  169SOPE   C3219049   6.305   1.684   6.921  0.8413 -0.3316  0.0891
  169SOPE   H2X19050   6.200   1.648   6.912 -0.0128  1.8558  0.5630
  169SOPE   H2Y19051   6.303   1.792   6.948  1.8391 -0.5038  0.8858
  169SOPE   C2319052   5.859   1.561   6.749 -0.3065 -0.3359 -0.0441
  169SOPE   H3R19053   5.769   1.626   6.751  0.7610  1.5217 -3.8073
  169SOPE   H3S19054   5.938   1.637   6.761 -1.3819  0.8546 -0.2217
  169SOPE   C2419055   5.858   1.463   6.866  0.2580  0.5491  0.2247
  169SOPE   H4R19056   5.808   1.519   6.947 -0.1209  1.5861 -0.6995
  169SOPE   H4S19057   5.789   1.378   6.846  0.7289 -0.1097  1.3239
  169SOPE   C2519058   5.993   1.431   6.928 -0.2452 -0.0732 -0.6360
  169SOPE   H5R19059   6.059   1.368   6.866 -0.3314 -0.1281 -0.6714
  169SOPE   H5S19060   6.030   1.535   6.943  0.5114 -0.5955  1.5798
  169SOPE   C2619061   5.982   1.384   7.076 -0.4829  0.2708 -0.0452
  169SOPE   H6R19062   5.903   1.442   7.127  0.5833  1.3167  0.4564
  169SOPE   H6S19063   5.950   1.277   7.078  1.5083 -0.3551  0.5745
  169SOPE   C2719064   6.117   1.381   7.149 -0.1548 -0.5735 -0.0449
  169SOPE   H7R19065   6.198   1.329   7.092  0.0127 -0.3788  0.0144
  169SOPE   H7S19066   6.138   1.486   7.177 -6.1293  0.7096  0.8811
  169SOPE   C2819067   6.100   1.302   7.282 -0.6819  0.1085 -0.0718
  169SOPE   H8R19068   6.012   1.351   7.329 -1.4248  0.1336 -1.4524
  169SOPE   H8S19069   6.071   1.200   7.250 -1.9624  1.2961 -3.1226
  169SOPE   C2919070   6.232   1.306   7.354  0.2295  0.9883 -0.5136
  169SOPE   H9119071   6.309   1.262   7.288  1.0076  0.8917  0.4357
  169SOPE  C21019072   6.244   1.353   7.478 -0.1504 -0.1463 -0.0235
  169SOPE  H10119073   6.341   1.348   7.531 -0.4394 -1.5051  0.4258
  169SOPE  C21119074   6.138   1.422   7.559 -0.7964 -0.1540  0.0884
  169SOPE  H11R19075   6.069   1.348   7.605  0.7742 -3.1579 -2.0372
  169SOPE  H11S19076   6.087   1.492   7.490  1.2639  2.1790  0.7722
  169SOPE  C21219077   6.205   1.501   7.674 -0.0959  0.7383  0.2078
  169SOPE  H12R19078   6.276   1.572   7.626 -0.1322  0.7733  0.2049
  169SOPE  H12S19079   6.265   1.437   7.742  1.3143 -0.4954 -2.0628
  169SOPE  C21319080   6.114   1.589   7.760 -1.1686  0.1590  0.3239
  169SOPE  H13R19081   6.051   1.641   7.684  1.6912  1.8141 -1.0804
  169SOPE  H13S19082   6.171   1.663   7.820 -0.7727 -0.4462  0.7058
  169SOPE  C21419083   6.042   1.508   7.863  0.0855 -0.7102 -0.1705
  169SOPE  H14R19084   6.114   1.473   7.941 -1.0446 -1.3044  0.6409
  169SOPE  H14S19085   5.987   1.424   7.815 -0.9235 -1.6030  2.3564
  169SOPE  C21519086   5.934   1.585   7.936 -0.3646 -0.1530  0.4524
  169SOPE  H15R19087   5.982   1.661   8.001 -1.6580  0.9889  0.1164
  169SOPE  H15S19088   5.873   1.518   7.999 -0.3830  0.2854  0.9081
  169SOPE  C21619089   5.831   1.647   7.842  0.2333 -0.1554 -0.7091
  169SOPE  H16R19090   5.785   1.570   7.777 -2.2543 -0.0569  0.7959
  169SOPE  H16S19091   5.873   1.728   7.778  0.8840  1.0878  1.1959
  169SOPE  C21719092   5.718   1.716   7.929 -0.9334 -0.3443  0.3305
  169SOPE  H17R19093   5.773   1.780   8.001  0.3420 -0.4481 -0.5191
  169SOPE  H17S19094   5.677   1.633   7.990 -0.1800 -1.2155 -0.3135
  169SOPE  C21819095   5.611   1.790   7.857 -0.5158 -0.5643  0.1029
  169SOPE  H18R19096   5.550   1.717   7.799 -1.3595 -0.4298  0.7848
  169SOPE  H18S19097   5.664   1.865   7.796  1.8448 -1.3909  1.0395
  169SOPE  H18T19098   5.546   1.847   7.928 -0.8846  1.8522 -2.0275
  169SOPE   C3319099   6.383   1.589   7.009  0.7363  0.3935  0.3845
  169SOPE   H3X19100   6.408   1.490   6.965  0.4867  0.2392  0.5798
  169SOPE   H3Y19101   6.339   1.557   7.107  0.2430 -0.1437 -0.0020
  169SOPE   C3419102   6.522   1.646   7.035  0.4993  0.1308  0.0682
  169SOPE   H4X19103   6.524   1.725   7.112 -4.7129 -1.7211  2.5937
  169SOPE   H4Y19104   6.554   1.692   6.939  0.7951  2.4039  1.1879
  169SOPE   C3519105   6.619   1.538   7.078  0.0335  0.3000  1.2074
  169SOPE   H5X19106   6.725   1.572   7.075  0.6677 -1.6472 -0.5421
  169SOPE   H5Y19107   6.633   1.463   6.997  0.6496  0.3545  1.2537
  169SOPE   C3619108   6.601   1.459   7.210  0.0645 -0.2916  0.2484
  169SOPE   H6X19109   6.509   1.400   7.192  0.3454 -0.7497  0.2934
  169SOPE   H6Y19110   6.578   1.537   7.285 -0.4569 -0.2548  0.0530
  169SOPE   C3719111   6.708   1.356   7.240  0.9173 -0.0675  0.6792
  169SOPE   H7X19112   6.807   1.401   7.219  0.0229  1.1754 -1.1405
  169SOPE   H7Y19113   6.702   1.270   7.170  1.4922  0.4939 -0.0710
  169SOPE   C3819114   6.711   1.292   7.381  0.6050 -0.8842  0.0605
  169SOPE   H8X19115   6.603   1.279   7.403  0.2838 -1.5578 -1.7094
  169SOPE   H8Y19116   6.760   1.192   7.384  0.2358 -1.0349  2.2573
  169SOPE   C3919117   6.768   1.381   7.489 -0.1111 -0.3594 -0.6600
  169SOPE   H9X19118   6.711   1.472   7.518 -0.7335 -1.3225  1.2713
  169SOPE   H9Y19119   6.868   1.418   7.458  0.9639 -0.6954  2.1473
  169SOPE  C31019120   6.780   1.321   7.626  0.7891  0.0114  0.6194
  169SOPE  H10X19121   6.830   1.389   7.699 -0.5338 -0.0540  1.6350
  169SOPE  H10Y19122   6.836   1.226   7.617  1.0907  0.3632 -1.8870
  169SOPE  C31119123   6.644   1.312   7.693  0.0627 -0.0613 -0.0858
  169SOPE  H11X19124   6.576   1.263   7.620 -0.7958 -0.2077  0.8036
  169SOPE  H11Y19125   6.595   1.411   7.705  0.1475 -0.1371  0.8874
  169SOPE  C31219126   6.648   1.240   7.828  0.0386  0.0232 -0.0288
  169SOPE  H12X19127   6.544   1.247   7.868 -0.7294 -1.2455 -1.6817
  169SOPE  H12Y19128   6.723   1.286   7.895  1.0029 -0.1699 -0.9400
  169SOPE  C31319129   6.676   1.090   7.839 -0.5822 -0.0001  0.9434
  169SOPE  H13X19130   6.775   1.074   7.793 -0.9338  0.0435  0.1606
  169SOPE  H13Y19131   6.595   1.042   7.781 -1.0636  2.1250 -0.2538
  169SOPE  C31419132   6.677   1.040   7.989  0.5670  0.5488 -0.2872
  169SOPE  H14X19133   6.707   1.115   8.066 -0.5860  1.6722 -0.8832
  169SOPE  H14Y19134   6.744   0.952   8.000 -1.7544 -1.5240 -1.8011
  169SOPE  C31519135   6.537   1.000   8.037 -0.1583  0.6370 -0.0203
  169SOPE  H15X19136   6.480   0.960   7.951 -0.0295 -2.7196  1.3100
  169SOPE  H15Y19137   6.479   1.084   8.082 -0.5096  0.7195 -0.6202
  169SOPE  C31619138   6.546   0.891   8.144 -0.3209 -0.3654  0.0177
  169SOPE  H16X19139   6.606   0.919   8.233  0.8800  0.3905 -1.0070
  169SOPE  H16Y19140   6.604   0.803   8.112 -1.0480 -0.8998  0.1371
  169SOPE  C31719141   6.404   0.839   8.184  0.0179 -0.5706 -0.1703
  169SOPE  H17X19142   6.410   0.746   8.245 -0.0691  1.7051  3.6453
  169SOPE  H17Y19143   6.352   0.817   8.089 -0.5561 -0.8621  0.2061
  169SOPE  C31819144   6.323   0.942   8.264 -0.0876 -0.4412  0.1244
  169SOPE  H18X19145   6.355   0.965   8.368 -0.2451 -2.5553  0.6883
  169SOPE  H18Y19146   6.216   0.913   8.253  0.3334 -1.3553 -2.2365
  169SOPE  H18Z19147   6.320   1.039   8.209 -0.6224 -0.2784  0.4315
  170SOPE     N19148   6.037   6.772   6.338  0.2324 -0.1580 -0.3220
  170SOPE   HN119149   6.057   6.700   6.265  0.9663  0.5062 -0.7862
  170SOPE   HN219150   5.939   6.757   6.371  0.5322 -0.9539  0.2401
  170SOPE   HN319151   6.038   6.861   6.285 -0.9061  0.0735  0.0281
  170SOPE   C1219152   6.136   6.787   6.450 -0.1232  0.6030  0.5392
  170SOPE  H12A19153   6.129   6.697   6.515 -0.8392  0.0139 -0.3294
  170SOPE  H12B19154   6.108   6.879   6.506 -1.4532 -0.5265  1.8058
  170SOPE   C1119155   6.283   6.819   6.394  1.3066  0.3541 -0.1596
  170SOPE  H11A19156   6.338   6.854   6.484 -2.8207  1.1776  2.3373
  170SOPE  H11B19157   6.282   6.901   6.319 -1.1823  0.3078 -0.2550
  170SOPE     P19158   6.491   6.673   6.332 -0.6311 -0.1414 -0.2559
  170SOPE   O1319159   6.520   6.672   6.189 -0.5004  0.2226  0.0837
  170SOPE   O1419160   6.511   6.545   6.407 -0.2106 -0.9619  0.6619
  170SOPE   O1219161   6.340   6.704   6.338  0.1895 -0.3616 -0.0694
  170SOPE   O1119162   6.568   6.796   6.397 -0.2552  0.0919 -0.2361
  170SOPE    C119163   6.655   6.757   6.510  0.5850 -0.3408 -0.1720
  170SOPE    HA19164   6.729   6.838   6.529 -0.2924  0.2477  0.8663
  170SOPE    HB19165   6.717   6.668   6.486 -0.4636 -0.8193 -1.2373
  170SOPE    C219166   6.594   6.725   6.650 -0.1315  0.2264 -0.5542
  170SOPE    HS19167   6.545   6.625   6.644  2.1027 -0.9713 -0.0979
  170SOPE   O2119168   6.496   6.822   6.683 -0.0944  0.2780 -0.1926
  170SOPE   C2119169   6.383   6.790   6.731  0.1668  0.2814 -0.1578
  170SOPE   O2219170   6.344   6.673   6.747  0.4774  0.6359 -0.0545
  170SOPE   C2219171   6.302   6.918   6.761  0.0550 -0.1114 -0.6288
  170SOPE   H2R19172   6.261   6.957   6.665  0.4428 -2.0029 -1.6061
  170SOPE   H2S19173   6.360   6.995   6.817  0.9678 -1.6372  0.5812
  170SOPE    C319174   6.713   6.711   6.753  0.3624  0.3921  0.3776
  170SOPE    HX19175   6.758   6.810   6.778 -0.6910  0.9088  0.2936
  170SOPE    HY19176   6.796   6.653   6.708  1.0921 -1.0446  3.3323
  170SOPE   O3119177   6.675   6.626   6.866 -0.5377 -0.2644 -0.2162
  170SOPE   C3119178   6.631   6.695   6.971 -0.8675  0.4571 -0.9472
  170SOPE   O3219179   6.647   6.813   6.986 -0.5726  0.1762  0.7516
  170SOPE   C3219180   6.569   6.596   7.073 -0.3310  0.0364  0.0672
  170SOPE   H2X19181   6.655   6.533   7.104  0.8345  1.8974  0.7706
  170SOPE   H2Y19182   6.499   6.534   7.013  2.6137 -2.8672 -0.6748
  170SOPE   C2319183   6.181   6.903   6.854  0.3378 -0.1841 -0.1983
  170SOPE   H3R19184   6.117   6.827   6.803  0.8792  0.3428 -1.7375
  170SOPE   H3S19185   6.121   6.996   6.865  0.3737 -0.1483 -0.3052
  170SOPE   C2419186   6.209   6.861   7.005 -0.3604  0.3740  0.0477
  170SOPE   H4R19187   6.112   6.834   7.052  0.5387  1.0958  2.5300
  170SOPE   H4S19188   6.286   6.782   7.018  2.0887  2.7900  1.3436
  170SOPE   C2519189   6.244   6.982   7.087 -0.5831 -0.0620 -0.6841
  170SOPE   H5R19190   6.346   7.017   7.066 -1.1626  1.7438 -0.6255
  170SOPE   H5S19191   6.168   7.062   7.076  1.9611  2.8095  1.1375
  170SOPE   C2619192   6.246   6.957   7.245 -0.3829 -0.1014  1.0665
  170SOPE   H6R19193   6.138   6.960   7.270 -0.5678  2.0925  0.2430
  170SOPE   H6S19194   6.286   6.858   7.273  0.7493  0.6277  2.1338
  170SOPE   C2719195   6.328   7.053   7.324  0.0284  0.5620 -0.3320
  170SOPE   H7R19196   6.435   7.049   7.295  0.2368  0.5014  0.4233
  170SOPE   H7S19197   6.274   7.146   7.295 -0.9008 -0.5076 -2.2472
  170SOPE   C2819198   6.309   7.039   7.476 -0.5979  0.2738  0.3592
  170SOPE   H8R19199   6.345   7.138   7.511 -1.6551  0.3676  1.2382
  170SOPE   H8S19200   6.205   7.025   7.511  0.0343 -2.7198  1.2802
  170SOPE   C2919201   6.395   6.926   7.521 -0.1599  0.6821  0.2688
  170SOPE   H9119202   6.494   6.935   7.476  0.4176  0.3101  1.4203
  170SOPE  C21019203   6.372   6.815   7.590  0.1647 -0.2921 -0.2232
  170SOPE  H10119204   6.457   6.750   7.618  0.5645  0.3527  0.0772
  170SOPE  C21119205   6.230   6.781   7.639 -0.3895 -0.5945  0.2024
  170SOPE  H11R19206   6.175   6.742   7.551  0.4041 -1.2487 -0.0186
  170SOPE  H11S19207   6.180   6.879   7.654 -1.0630 -0.7173 -1.1770
  170SOPE  C21219208   6.228   6.675   7.754 -0.2583 -0.5453  0.1655
  170SOPE  H12R19209   6.313   6.675   7.826  0.2399 -0.0154 -0.4025
  170SOPE  H12S19210   6.238   6.575   7.708 -0.4338 -0.6550  0.3650
  170SOPE  C21319211   6.093   6.679   7.831 -0.1871  0.4204 -0.1696
  170SOPE  H13R19212   6.016   6.665   7.752  0.3864 -1.9636 -0.3715
  170SOPE  H13S19213   6.085   6.774   7.889 -0.4888 -0.4289  1.2148
  170SOPE  C21419214   6.079   6.566   7.928 -0.1651 -0.1337  0.1482
  170SOPE  H14R19215   6.128   6.473   7.892  0.8678  0.8840 -1.1765
  170SOPE  H14S19216   5.971   6.544   7.929  0.1229 -1.9244  2.6362
  170SOPE  C21519217   6.119   6.611   8.075 -0.0804  0.5709  0.3765
  170SOPE  H15R19218   6.067   6.703   8.110 -0.7962 -1.0858  4.0914
  170SOPE  H15S19219   6.225   6.641   8.062 -0.2172  1.3307  0.9466
  170SOPE  C21619220   6.112   6.495   8.175  0.2610  0.1809  0.6684
  170SOPE  H16R19221   6.163   6.532   8.267  0.6015 -0.2718  0.6642
  170SOPE  H16S19222   6.172   6.406   8.148 -0.8958 -1.1069  2.2286
  170SOPE  C21719223   5.967   6.475   8.217  0.3654 -0.2490 -0.6971
  170SOPE  H17R19224   5.901   6.428   8.142 -3.3977  1.8900  1.0004
  170SOPE  H17S19225   5.919   6.573   8.238  0.9709  0.0847 -0.8300
  170SOPE  C21819226   5.967   6.390   8.343  0.9417 -0.2527 -0.0364
  170SOPE  H18R19227   6.004   6.442   8.434 -1.6441  0.9321  0.4452
  170SOPE  H18S19228   6.013   6.293   8.317 -0.8836 -1.2276  0.1965
  170SOPE  H18T19229   5.864   6.357   8.367  0.3303  1.5358 -0.0438
  170SOPE   C3319230   6.510   6.664   7.198 -0.0082 -0.1544  0.7005
  170SOPE   H3X19231   6.448   6.748   7.161  1.4427  1.4192  1.6766
  170SOPE   H3Y19232   6.585   6.715   7.263 -0.2192  3.1017 -1.4330
  170SOPE   C3419233   6.416   6.568   7.271 -0.1565  0.1973 -0.3193
  170SOPE   H4X19234   6.339   6.523   7.205 -2.3955  1.3744  1.3302
  170SOPE   H4Y19235   6.343   6.631   7.326 -0.8394 -0.9541  0.1498
  170SOPE   C3519236   6.488   6.460   7.358  0.3477 -0.5251 -0.3470
  170SOPE   H5X19237   6.590   6.448   7.315  0.0532  1.2199 -1.6371
  170SOPE   H5Y19238   6.430   6.365   7.358  0.2136 -0.4485  0.2285
  170SOPE   C3619239   6.501   6.490   7.508 -0.1638 -0.2244  0.5544
  170SOPE   H6X19240   6.397   6.510   7.542 -0.1717  1.7032 -0.4145
  170SOPE   H6Y19241   6.570   6.575   7.526  0.4341 -0.4471 -0.5711
  170SOPE   C3719242   6.549   6.368   7.585 -0.2849 -0.4604 -0.2984
  170SOPE   H7X19243   6.657   6.356   7.561  0.2591  2.1358  0.5491
  170SOPE   H7Y19244   6.495   6.278   7.547 -0.1163 -1.0199  0.7510
  170SOPE   C3819245   6.524   6.389   7.733 -0.4103  0.4595 -0.9772
  170SOPE   H8X19246   6.426   6.342   7.759  0.5361 -1.0220  0.0730
  170SOPE   H8Y19247   6.524   6.496   7.763  0.5584  0.8925 -2.4042
  170SOPE   C3919248   6.622   6.308   7.818  0.2181  0.1161 -0.4920
  170SOPE   H9X19249   6.723   6.343   7.786  0.1707 -1.7628 -2.9133
  170SOPE   H9Y19250   6.609   6.202   7.789  1.4560 -0.3349  0.5103
  170SOPE  C31019251   6.589   6.312   7.967 -0.3231 -0.2522 -0.4411
  170SOPE  H10X19252   6.485   6.276   7.986  0.7232 -2.7076  1.0362
  170SOPE  H10Y19253   6.606   6.418   7.995 -0.7574 -0.0981 -0.7398
  170SOPE  C31119254   6.685   6.230   8.053 -0.1889 -0.9174  0.6133
  170SOPE  H11X19255   6.784   6.274   8.030 -0.5312 -0.7967 -0.6667
  170SOPE  H11Y19256   6.678   6.122   8.026 -0.4692 -0.6574 -0.3859
  170SOPE  C31219257   6.661   6.239   8.202  0.7521  0.2271 -0.2198
  170SOPE  H12X19258   6.746   6.189   8.253 -1.6423 -1.3931  2.4791
  170SOPE  H12Y19259   6.582   6.169   8.236  1.0075  0.3492  0.6596
  170SOPE  C31319260   6.634   6.373   8.267 -0.6001  0.2205 -0.9794
  170SOPE  H13X19261   6.616   6.357   8.376 -0.9323  2.3750 -0.6601
  170SOPE  H13Y19262   6.537   6.415   8.234 -1.7845 -0.1860  1.6987
  170SOPE  C31419263   6.747   6.474   8.246  0.6749 -0.0597  0.1035
  170SOPE  H14X19264   6.773   6.480   8.138  1.9003 -0.0880  0.3847
  170SOPE  H14Y19265   6.839   6.441   8.298  0.5609 -2.1181 -0.9020
  170SOPE  C31519266   6.709   6.619   8.291 -0.0259 -0.2220  0.3236
  170SOPE  H15X19267   6.608   6.649   8.254  0.5755  3.0094  0.9790
  170SOPE  H15Y19268   6.773   6.698   8.245  0.3312  0.1516  1.4421
  170SOPE  C31619269   6.722   6.639   8.440  0.0259  0.3938  0.1369
  170SOPE  H16X19270   6.819   6.587   8.457  0.5339  1.1671 -0.3627
  170SOPE  H16Y19271   6.642   6.591   8.500  0.3030  0.3483  0.4792
  170SOPE  C31719272   6.735   6.784   8.484 -0.2207  0.3103  0.9978
  170SOPE  H17X19273   6.810   6.836   8.421 -0.0043  1.8564  2.4602
  170SOPE  H17Y19274   6.769   6.789   8.590 -0.0207  0.1031  0.9435
  170SOPE  C31819275   6.596   6.853   8.472 -0.1025  0.3580  0.9488
  170SOPE  H18X19276   6.607   6.950   8.525 -0.9468  2.0676 -1.7949
  170SOPE  H18Y19277   6.518   6.783   8.511  2.0858 -2.5042  0.5177
  170SOPE  H18Z19278   6.574   6.879   8.367  1.4228  0.4878  0.6467
  171SOPE     N19279   0.688   2.228   6.318  0.1304  0.1506 -0.3170
  171SOPE   HN119280   0.738   2.234   6.409 -0.1220 -0.3636 -0.1377
  171SOPE   HN219281   0.748   2.185   6.245 -1.1287 -0.1745 -1.1867
  171SOPE   HN319282   0.666   2.326   6.294  1.0145  0.8404  1.5077
  171SOPE   C1219283   0.574   2.132   6.335  0.2250  0.3440 -0.1019
  171SOPE  H12A19284   0.484   2.166   6.281 -1.0963  0.1367  1.8637
  171SOPE  H12B19285   0.558   2.126   6.445 -1.1629  1.2947 -0.2307
  171SOPE   C1119286   0.626   1.999   6.277  0.3073  1.0668 -0.0676
  171SOPE  H11A19287   0.635   2.011   6.167 -0.9984 -1.4028 -0.5268
  171SOPE  H11B19288   0.552   1.919   6.297  1.7998 -0.5176 -0.6209
  171SOPE     P19289   0.849   1.835   6.271  0.3480 -0.1040 -0.3973
  171SOPE   O1319290   0.997   1.873   6.261 -0.2201 -0.6601  0.2023
  171SOPE   O1419291   0.789   1.777   6.151  0.1236 -0.0747 -0.9393
  171SOPE   O1219292   0.759   1.953   6.324  0.1516  0.2794 -0.2831
  171SOPE   O1119293   0.844   1.731   6.392  0.1496 -0.6870 -0.1441
  171SOPE    C119294   0.811   1.594   6.365  0.4517 -1.1922  0.3795
  171SOPE    HA19295   0.885   1.540   6.303 -1.4802 -2.3144 -1.0642
  171SOPE    HB19296   0.709   1.575   6.327  0.7120 -2.9730  0.5199
  171SOPE    C219297   0.819   1.524   6.500  1.6653  0.2229 -0.2292
  171SOPE    HS19298   0.733   1.564   6.557  0.7193 -3.6148  1.3500
  171SOPE   O2119299   0.942   1.541   6.565 -0.3058 -0.1175  0.1856
  171SOPE   C2119300   0.941   1.540   6.695  0.2008  0.5104 -0.3501
  171SOPE   O2219301   0.847   1.528   6.770  0.1864  0.1510 -0.5514
  171SOPE   C2219302   1.088   1.549   6.747  1.0809  0.1290 -0.3434
  171SOPE   H2R19303   1.153   1.615   6.687  0.9578  0.8374  0.2826
  171SOPE   H2S19304   1.118   1.445   6.721  1.4320  0.2974 -0.6027
  171SOPE    C319305   0.781   1.369   6.467 -0.0509 -0.4081 -0.2012
  171SOPE    HX19306   0.879   1.318   6.465  0.1149 -0.0913 -2.0169
  171SOPE    HY19307   0.737   1.342   6.368 -1.7350  0.2460  0.3363
  171SOPE   O3119308   0.697   1.311   6.569  0.0001 -0.1688 -0.4100
  171SOPE   C3119309   0.569   1.286   6.537 -0.4110 -0.0059 -0.1089
  171SOPE   O3219310   0.513   1.319   6.438  0.1926  0.0395  0.3772
  171SOPE   C3219311   0.499   1.205   6.650 -0.2069  0.3293  0.1487
  171SOPE   H2X19312   0.553   1.110   6.667  2.2116  1.5125 -0.5430
  171SOPE   H2Y19313   0.398   1.181   6.610 -1.4607  1.0147  2.6980
  171SOPE   C2319314   1.109   1.570   6.897  0.8215  0.5035  0.3601
  171SOPE   H3R19315   1.092   1.679   6.911  3.0719  1.4633 -2.9750
  171SOPE   H3S19316   1.219   1.568   6.913  0.6464  2.0449  2.1371
  171SOPE   C2419317   1.051   1.460   6.985 -0.3344 -0.9287 -0.3656
  171SOPE   H4R19318   0.942   1.445   6.970 -0.1754 -0.9640 -1.5181
  171SOPE   H4S19319   1.103   1.366   6.956  1.8258 -0.3325  1.2991
  171SOPE   C2519320   1.075   1.485   7.132  0.6643 -0.8439 -0.4731
  171SOPE   H5R19321   1.165   1.547   7.149 -1.9563  3.1508  0.3042
  171SOPE   H5S19322   0.989   1.552   7.154  1.5038  1.0248 -2.5183
  171SOPE   C2619323   1.080   1.370   7.232  0.9114 -0.2900 -0.4856
  171SOPE   H6R19324   1.161   1.303   7.196  0.3763 -0.5922 -1.1425
  171SOPE   H6S19325   1.114   1.411   7.330 -1.8357 -1.5862  1.1410
  171SOPE   C2719326   0.943   1.297   7.271 -0.3007 -0.2236  0.5440
  171SOPE   H7R19327   0.883   1.370   7.330  1.5726  3.3805 -1.6358
  171SOPE   H7S19328   0.879   1.281   7.182  0.1887 -0.9578  0.3114
  171SOPE   C2819329   0.962   1.179   7.362  0.0726 -0.5155  0.8094
  171SOPE   H8R19330   1.033   1.108   7.315  0.8630  0.1917  0.9144
  171SOPE   H8S19331   1.010   1.222   7.453 -0.7391  2.0318  0.1234
  171SOPE   C2919332   0.836   1.105   7.380 -0.6006 -0.0310 -0.6028
  171SOPE   H9119333   0.779   1.082   7.289 -0.0925 -0.7272 -0.7474
  171SOPE  C21019334   0.792   1.070   7.506  0.2154 -0.5597  0.1761
  171SOPE  H10119335   0.704   1.004   7.511  0.8389 -1.6468 -2.1373
  171SOPE  C21119336   0.847   1.109   7.644 -0.2835  0.2583  0.9049
  171SOPE  H11R19337   0.907   1.201   7.663  0.5468  0.1943 -1.1806
  171SOPE  H11S19338   0.911   1.024   7.676 -0.4017 -0.4131 -0.5846
  171SOPE  C21219339   0.734   1.110   7.746  0.2609 -0.0786  0.2902
  171SOPE  H12R19340   0.670   1.019   7.737 -0.8486  0.6289  0.8854
  171SOPE  H12S19341   0.664   1.193   7.726  1.3087  0.6789 -0.3651
  171SOPE  C21319342   0.792   1.106   7.891 -0.6627 -0.1272  0.1494
  171SOPE  H13R19343   0.871   1.184   7.880 -0.1654 -0.6743 -0.2358
  171SOPE  H13S19344   0.845   1.011   7.910  0.0055 -0.2957 -2.2557
  171SOPE  C21419345   0.697   1.142   8.009  0.4554  0.0469  0.6036
  171SOPE  H14R19346   0.609   1.073   8.008  0.3281  0.1981  1.0388
  171SOPE  H14S19347   0.666   1.248   7.996  3.8426  1.1715  0.8627
  171SOPE  C21519348   0.778   1.127   8.141  0.2909  0.4104  0.0630
  171SOPE  H15R19349   0.860   1.202   8.140 -0.4391  1.3354  2.6241
  171SOPE  H15S19350   0.805   1.019   8.147 -2.6632 -0.5443 -1.8647
  171SOPE  C21619351   0.694   1.165   8.266  0.2513  0.2838  0.1328
  171SOPE  H16R19352   0.588   1.152   8.234  0.5699 -2.5707 -0.0661
  171SOPE  H16S19353   0.711   1.272   8.285  0.8236  0.1669  0.2709
  171SOPE  C21719354   0.735   1.090   8.392 -0.0402 -0.2172  0.5605
  171SOPE  H17R19355   0.845   1.101   8.405 -0.4084  1.8790  2.4937
  171SOPE  H17S19356   0.726   0.980   8.380  0.8142 -0.2112 -0.1713
  171SOPE  C21819357   0.680   1.134   8.531  0.1964  0.3170 -0.7978
  171SOPE  H18R19358   0.578   1.089   8.534  1.1709 -2.1483 -2.2892
  171SOPE  H18S19359   0.680   1.244   8.548 -0.4009  0.1597  0.3003
  171SOPE  H18T19360   0.748   1.097   8.610 -1.2922 -1.0339 -0.0794
  171SOPE   C3319361   0.475   1.288   6.777 -0.4842  0.6137  0.0036
  171SOPE   H3X19362   0.452   1.395   6.757  1.0150  0.6598 -1.7424
  171SOPE   H3Y19363   0.571   1.287   6.833 -1.1402 -0.5483  1.1758
  171SOPE   C3419364   0.381   1.212   6.879 -0.1471  0.3272  0.4135
  171SOPE   H4X19365   0.424   1.114   6.906  0.2324  0.4845  0.3880
  171SOPE   H4Y19366   0.281   1.193   6.834  0.9569  0.4134 -2.2337
  171SOPE   C3519367   0.361   1.294   7.008 -0.5595  0.6391 -0.0113
  171SOPE   H5X19368   0.298   1.382   6.982 -0.9039  0.6166  0.7200
  171SOPE   H5Y19369   0.466   1.313   7.038 -0.5868 -1.4426  1.6409
  171SOPE   C3619370   0.289   1.219   7.118  0.3375 -0.1710  0.0553
  171SOPE   H6X19371   0.331   1.116   7.126 -0.5336 -0.4691  0.9518
  171SOPE   H6Y19372   0.181   1.207   7.094  0.0726 -3.6380  2.2769
  171SOPE   C3719373   0.294   1.290   7.249 -0.1060 -0.4058  0.2207
  171SOPE   H7X19374   0.218   1.235   7.309 -1.0062  0.9088  0.3166
  171SOPE   H7Y19375   0.259   1.394   7.237 -0.1561 -0.2217  1.7544
  171SOPE   C3819376   0.436   1.278   7.319 -0.0535 -0.3726  0.5883
  171SOPE   H8X19377   0.489   1.356   7.262 -0.2651 -1.8376 -1.7628
  171SOPE   H8Y19378   0.472   1.173   7.307 -1.9458 -1.0976  0.8365
  171SOPE   C3919379   0.437   1.311   7.467  0.1261  0.2308  0.7307
  171SOPE   H9X19380   0.389   1.410   7.483 -0.0015 -0.0850  2.5136
  171SOPE   H9Y19381   0.542   1.324   7.500  0.5723 -0.8613 -0.1888
  171SOPE  C31019382   0.365   1.213   7.559  0.0160 -0.0030 -0.0842
  171SOPE  H10X19383   0.443   1.138   7.582 -1.1011 -1.4359 -0.8173
  171SOPE  H10Y19384   0.282   1.172   7.498 -0.5415  1.0373 -0.0540
  171SOPE  C31119385   0.305   1.266   7.696 -0.1480  0.2876 -0.4953
  171SOPE  H11X19386   0.221   1.197   7.723  0.4773  0.3064  1.7018
  171SOPE  H11Y19387   0.252   1.361   7.672  1.9609  1.8250  0.6502
  171SOPE  C31219388   0.401   1.291   7.805 -0.6700  0.2784 -0.1267
  171SOPE  H12X19389   0.480   1.348   7.750 -1.2685  0.5935 -0.6779
  171SOPE  H12Y19390   0.443   1.195   7.842 -1.2344 -0.0486 -0.3248
  171SOPE  C31319391   0.343   1.380   7.924  0.3612 -0.1200 -0.0180
  171SOPE  H13X19392   0.351   1.488   7.896 -0.4421 -0.1775 -0.4886
  171SOPE  H13Y19393   0.417   1.371   8.007  1.5240  2.4077 -0.6557
  171SOPE  C31419394   0.191   1.359   7.957 -0.0399  0.0915 -0.5196
  171SOPE  H14X19395   0.168   1.251   7.946 -0.0942 -0.0823  1.0495
  171SOPE  H14Y19396   0.128   1.430   7.900  2.0560  0.4510 -2.5263
  171SOPE  C31519397   0.156   1.385   8.105 -0.4978  0.4085  0.8113
  171SOPE  H15X19398   0.050   1.417   8.113 -0.2889  1.3878 -0.1708
  171SOPE  H15Y19399   0.227   1.453   8.157  0.4961 -0.3799  0.5244
  171SOPE  C31619400   0.163   1.256   8.191 -0.7642 -0.2257 -0.2903
  171SOPE  H16X19401   0.093   1.179   8.153 -0.8764 -0.8604  1.1477
  171SOPE  H16Y19402   0.116   1.283   8.288 -1.7241  0.1047 -0.8434
  171SOPE  C31719403   0.303   1.193   8.217 -0.6980  0.2745 -0.0298
  171SOPE  H17X19404   0.371   1.271   8.256 -1.1069  0.6809 -0.1117
  171SOPE  H17Y19405   0.345   1.164   8.118 -1.9711  1.6517 -1.0344
  171SOPE  C31819406   0.311   1.075   8.313  0.0844 -0.2101  0.3562
  171SOPE  H18X19407   0.406   1.020   8.296 -0.4210 -0.7274 -0.9190
  171SOPE  H18Y19408   0.230   1.002   8.289 -1.0121  0.8573  0.6773
  171SOPE  H18Z19409   0.296   1.100   8.420 -0.5460 -0.8676  0.4286
  172SOPE     N19410   0.342   4.817   6.180  0.1886 -0.3625  0.9337
  172SOPE   HN119411   0.319   4.855   6.274  0.6795  2.1891  0.1034
  172SOPE   HN219412   0.371   4.902   6.128 -0.2247 -0.7157  0.1146
  172SOPE   HN319413   0.255   4.775   6.143  1.0999 -0.3020 -1.4098
  172SOPE   C1219414   0.453   4.721   6.189  1.0126  0.1461  0.2574
  172SOPE  H12A19415   0.516   4.753   6.275  0.4610 -1.1477  1.1807
  172SOPE  H12B19416   0.517   4.733   6.099 -1.5025 -1.7144 -1.9370
  172SOPE   C1119417   0.413   4.575   6.226 -0.0172  0.1093  0.4394
  172SOPE  H11A19418   0.517   4.537   6.230  0.9142  2.5588  1.3075
  172SOPE  H11B19419   0.364   4.528   6.138  0.8326  0.2136 -0.0905
  172SOPE     P19420   0.370   4.539   6.482 -0.0349 -0.1767 -0.2368
  172SOPE   O1319421   0.245   4.544   6.566  0.5081 -0.0206  0.0069
  172SOPE   O1419422   0.482   4.626   6.525 -0.6144 -0.0044 -0.5167
  172SOPE   O1219423   0.332   4.580   6.342  0.3279  0.3176  0.4868
  172SOPE   O1119424   0.411   4.387   6.466  0.7101 -0.4467 -0.0352
  172SOPE    C119425   0.486   4.328   6.572  0.1615  0.2800  0.0977
  172SOPE    HA19426   0.569   4.389   6.613 -1.4214  1.0419  2.3218
  172SOPE    HB19427   0.534   4.238   6.529 -2.2760 -0.5737 -1.0428
  172SOPE    C219428   0.404   4.260   6.682  0.1376 -0.0599 -0.3696
  172SOPE    HS19429   0.310   4.219   6.640 -0.7061  2.2731 -0.9350
  172SOPE   O2119430   0.377   4.354   6.796 -0.0882 -0.0121 -0.2172
  172SOPE   C2119431   0.254   4.396   6.812 -1.1210  0.2768  0.5488
  172SOPE   O2219432   0.154   4.344   6.763  0.2418  0.2283  0.6214
  172SOPE   C2219433   0.250   4.501   6.930 -0.2007  0.4239 -0.3371
  172SOPE   H2R19434   0.156   4.559   6.925 -0.8029 -0.5360 -0.3046
  172SOPE   H2S19435   0.341   4.565   6.922 -0.1826  0.3755 -0.5090
  172SOPE    C319436   0.475   4.140   6.742 -0.1500 -0.1009  0.1970
  172SOPE    HX19437   0.571   4.178   6.783 -0.3910 -1.0889  1.7390
  172SOPE    HY19438   0.488   4.048   6.682 -2.9307 -0.3940 -0.0813
  172SOPE   O3119439   0.401   4.097   6.858 -0.3363  0.4892  0.2651
  172SOPE   C3119440   0.351   3.974   6.866  0.0068  0.0638  0.5183
  172SOPE   O3219441   0.356   3.880   6.787  0.0980 -0.1786 -0.1676
  172SOPE   C3219442   0.248   3.973   6.978 -0.3210 -0.6330  0.0673
  172SOPE   H2X19443   0.154   4.013   6.936  0.3016  2.2167  1.1492
  172SOPE   H2Y19444   0.278   4.047   7.055 -3.3928 -2.5861  3.4377
  172SOPE   C2319445   0.248   4.431   7.069  0.2582 -0.2448  0.5893
  172SOPE   H3R19446   0.272   4.511   7.143 -0.3000  0.6656 -0.1994
  172SOPE   H3S19447   0.325   4.351   7.075  0.5202 -0.0429 -0.0092
  172SOPE   C2419448   0.107   4.386   7.105 -0.2981  0.2311 -0.3924
  172SOPE   H4R19449   0.042   4.475   7.092  1.6650  1.7859  0.0606
  172SOPE   H4S19450   0.070   4.303   7.041 -0.7525 -0.9776  1.3553
  172SOPE   C2519451   0.094   4.344   7.252 -0.4214  0.2451 -0.9909
  172SOPE   H5R19452  -0.008   4.303   7.264  0.0224 -0.3353  1.0737
  172SOPE   H5S19453   0.161   4.259   7.278 -0.6250 -0.4730 -2.6832
  172SOPE   C2619454   0.101   4.456   7.357  0.0859  0.6856  1.0101
  172SOPE   H6R19455   0.203   4.502   7.355  0.7590 -0.7040 -1.3775
  172SOPE   H6S19456   0.036   4.543   7.333 -0.7345  0.1567  1.2900
  172SOPE   C2719457   0.056   4.423   7.502 -0.3339  0.0392  0.0121
  172SOPE   H7R19458  -0.055   4.418   7.497 -0.4115 -1.0982  1.8980
  172SOPE   H7S19459   0.099   4.330   7.544  0.9938  0.8823  0.6102
  172SOPE   C2819460   0.091   4.532   7.605 -1.2183 -0.9724  0.2397
  172SOPE   H8R19461   0.202   4.529   7.607 -1.0577  1.3888 -1.3361
  172SOPE   H8S19462   0.057   4.623   7.552 -0.4119 -1.1830 -0.6662
  172SOPE   C2919463   0.024   4.517   7.740 -0.0073 -0.3382 -0.7757
  172SOPE   H9119464  -0.086   4.507   7.735 -0.0002 -0.1489 -1.4950
  172SOPE  C21019465   0.076   4.512   7.861  0.2789  0.6102 -0.5101
  172SOPE  H10119466   0.004   4.516   7.945 -0.9196  4.0840 -1.5100
  172SOPE  C21119467   0.219   4.532   7.903 -0.3587 -0.1422 -1.0186
  172SOPE  H11R19468   0.275   4.613   7.851 -1.9340  1.6987 -0.0083
  172SOPE  H11S19469   0.274   4.436   7.895 -2.6508 -1.8194  1.5209
  172SOPE  C21219470   0.228   4.578   8.051 -0.4375  0.4684 -0.3419
  172SOPE  H12R19471   0.337   4.588   8.069 -0.1598 -1.2492 -0.8721
  172SOPE  H12S19472   0.185   4.496   8.113  1.8270 -0.8176 -0.3985
  172SOPE  C21319473   0.152   4.707   8.091 -0.4393  0.7854  0.7641
  172SOPE  H13R19474   0.054   4.715   8.038 -0.0525  3.4440  0.3032
  172SOPE  H13S19475   0.209   4.796   8.058  1.5979 -0.7833 -0.1708
  172SOPE  C21419476   0.128   4.720   8.237 -1.4415 -0.3463  0.1638
  172SOPE  H14R19477   0.232   4.746   8.268 -0.9559  0.1230 -1.7606
  172SOPE  H14S19478   0.096   4.626   8.286 -1.3084 -1.6143 -2.0665
  172SOPE  C21519479   0.030   4.829   8.281  0.6089 -0.3407 -0.0183
  172SOPE  H15R19480  -0.072   4.786   8.281  0.2080  0.4246  3.0562
  172SOPE  H15S19481   0.033   4.918   8.214  0.8946  1.6395  2.4907
  172SOPE  C21619482   0.053   4.879   8.423 -0.0978 -0.1220 -0.1337
  172SOPE  H16R19483   0.161   4.900   8.433 -0.5147  2.5171 -0.4370
  172SOPE  H16S19484   0.037   4.800   8.499 -0.8564 -2.0732 -2.2209
  172SOPE  C21719485  -0.028   4.998   8.469  0.3490 -0.4314  0.1381
  172SOPE  H17R19486  -0.130   4.953   8.457 -0.1366  1.1424 -2.3515
  172SOPE  H17S19487  -0.014   5.082   8.398 -0.2919  0.0916  0.6186
  172SOPE  C21819488   0.005   5.049   8.608  0.8923  0.4001 -0.1637
  172SOPE  H18R19489   0.022   4.956   8.667  0.7228  0.5496  0.1225
  172SOPE  H18S19490  -0.078   5.106   8.655  1.8599  0.3275  1.7417
  172SOPE  H18T19491   0.102   5.102   8.613  1.1624 -0.1531  0.7705
  172SOPE   C3319492   0.225   3.836   7.044 -0.1654  0.3382 -0.0254
  172SOPE   H3X19493   0.308   3.782   7.094 -2.5179 -0.3471  3.4348
  172SOPE   H3Y19494   0.190   3.766   6.965  1.0321  0.2219 -0.4729
  172SOPE   C3419495   0.113   3.843   7.152 -0.1005  0.6516 -0.2041
  172SOPE   H4X19496   0.074   3.741   7.171  1.4518 -0.1804 -1.1888
  172SOPE   H4Y19497   0.028   3.898   7.107 -2.2292 -0.6009  2.1034
  172SOPE   C3519498   0.158   3.910   7.282 -0.3005  0.1660  0.1554
  172SOPE   H5X19499   0.219   4.002   7.267 -0.7096  0.7789  1.9590
  172SOPE   H5Y19500   0.239   3.846   7.323  1.5625  0.3350 -2.9515
  172SOPE   C3619501   0.036   3.927   7.381 -0.6584  0.1175  0.2577
  172SOPE   H6X19502  -0.003   3.827   7.410 -0.4519 -0.4974 -1.4714
  172SOPE   H6Y19503  -0.049   3.969   7.323 -1.0615 -1.4230 -0.3045
  172SOPE   C3719504   0.060   4.019   7.500 -1.2794 -0.2613 -0.3530
  172SOPE   H7X19505   0.131   4.100   7.472 -0.9330 -0.1569  0.7694
  172SOPE   H7Y19506   0.112   3.964   7.581  0.7924 -0.6767 -1.8547
  172SOPE   C3819507  -0.064   4.087   7.556 -0.1835  0.4693 -0.2833
  172SOPE   H8X19508  -0.117   4.150   7.481 -0.2871  2.5101  1.4189
  172SOPE   H8Y19509  -0.030   4.155   7.637  2.2726 -2.3218  1.2354
  172SOPE   C3919510  -0.153   3.989   7.639 -0.8055 -0.1429  0.6768
  172SOPE   H9X19511  -0.087   3.928   7.704  0.6792 -1.9939 -2.3191
  172SOPE   H9Y19512  -0.200   3.905   7.584  0.0378  0.1483 -0.5364
  172SOPE  C31019513  -0.250   4.059   7.731  0.2482  0.6417 -0.4205
  172SOPE  H10X19514  -0.348   4.093   7.692 -0.2429  3.1734  2.6713
  172SOPE  H10Y19515  -0.202   4.150   7.773 -0.0036 -0.6971  3.1257
  172SOPE  C31119516  -0.288   3.970   7.850 -0.1974 -0.6584 -0.1019
  172SOPE  H11X19517  -0.202   3.926   7.905  0.1343  1.5633  1.3201
  172SOPE  H11Y19518  -0.353   3.887   7.814 -0.4241 -0.8381  0.7041
  172SOPE  C31219519  -0.381   4.045   7.946 -0.7992  0.5943 -0.2627
  172SOPE  H12X19520  -0.461   4.089   7.882 -0.9635 -3.4308 -3.2468
  172SOPE  H12Y19521  -0.322   4.116   8.007 -0.8424 -0.6277  1.2476
  172SOPE  C31319522  -0.445   3.948   8.049 -0.3742  0.0914 -0.2774
  172SOPE  H13X19523  -0.360   3.897   8.099  0.4091 -0.1657 -1.8224
  172SOPE  H13Y19524  -0.522   3.885   7.998  1.6606 -1.6004 -1.4441
  172SOPE  C31419525  -0.514   4.022   8.161 -0.0809  0.1551 -0.1766
  172SOPE  H14X19526  -0.605   4.077   8.129 -0.9875 -0.0767  1.8678
  172SOPE  H14Y19527  -0.441   4.098   8.195  2.2871 -1.8040 -0.5974
  172SOPE  C31519528  -0.559   3.931   8.275 -0.4389  0.2619 -1.1074
  172SOPE  H15X19529  -0.470   3.873   8.307 -0.4167  1.2333  0.7042
  172SOPE  H15Y19530  -0.628   3.853   8.236 -0.0914 -0.7296  0.2038
  172SOPE  C31619531  -0.622   4.006   8.397 -0.3113  0.5074  0.1771
  172SOPE  H16X19532  -0.661   3.937   8.476 -1.6576 -0.2306 -1.0692
  172SOPE  H16Y19533  -0.705   4.072   8.363  0.8976  1.5389 -0.8143
  172SOPE  C31719534  -0.516   4.100   8.463 -0.8118 -0.4727 -0.5523
  172SOPE  H17X19535  -0.515   4.193   8.403 -2.3602 -1.0216 -1.4983
  172SOPE  H17Y19536  -0.416   4.053   8.472 -0.2283  1.0241  1.3519
  172SOPE  C31819537  -0.562   4.143   8.604  0.2216  0.1247 -0.2294
  172SOPE  H18X19538  -0.643   4.219   8.597 -1.9233 -2.0144 -0.0914
  172SOPE  H18Y19539  -0.477   4.185   8.661  0.7701 -0.7077 -0.4105
  172SOPE  H18Z19540  -0.606   4.060   8.663 -3.5723  1.8243 -0.3592
  173SAPI   C1219541   3.978   2.089  10.545  0.5466  0.1532  0.3825
  173SAPI    H219542   3.906   2.147  10.485  1.6911 -1.2824 -2.5719
  173SAPI    O219543   3.934   1.956  10.541 -0.3521 -0.1109 -0.4735
  173SAPI   HO219544   3.857   1.951  10.599  2.2680 -0.2859  3.3975
  173SAPI   C1319545   4.117   2.103  10.477 -0.1704  0.1231  0.4492
  173SAPI    H319546   4.141   2.211  10.484 -3.5899  1.1176 -1.0543
  173SAPI    O319547   4.112   2.076  10.336  0.5823 -0.3477 -0.6605
  173SAPI   HO319548   4.086   1.987  10.310  2.6961 -0.9276 -0.9576
  173SAPI   C1419549   4.231   2.032  10.551 -0.2237  0.6716  0.8855
  173SAPI    H419550   4.207   1.924  10.560 -0.1404  0.5965  0.2708
  173SAPI    O419551   4.359   2.045  10.483  0.5165 -0.3418  0.6420
  173SAPI   HO419552   4.421   1.978  10.513  3.1120  0.2405 -2.8567
  173SAPI   C1519553   4.238   2.084  10.693  0.4629  0.3643  0.5189
  173SAPI    H519554   4.261   2.191  10.674  0.6731  0.3967  0.9513
  173SAPI    O519555   4.344   2.029  10.770 -0.0148 -0.7047 -0.0050
  173SAPI   HO519556   4.349   1.935  10.751 -0.1990 -0.7785  0.3032
  173SAPI   C1619557   4.099   2.071  10.755  0.1925  0.6958 -0.0296
  173SAPI    H619558   4.071   1.964  10.763 -1.5032  1.1976  1.7954
  173SAPI    O619559   4.101   2.116  10.889  0.3943  0.0162 -0.5100
  173SAPI   HO619560   4.013   2.101  10.925  0.7638 -1.9915 -0.3325
  173SAPI   C1119561   3.993   2.150  10.678 -0.0149 -0.4995  0.0894
  173SAPI    H119562   4.031   2.254  10.683 -0.2530 -0.4139  0.1317
  173SAPI     P19563   3.762   2.245  10.764 -0.0818 -0.3717 -0.1505
  173SAPI   O1319564   3.821   2.357  10.844  0.5972 -0.1447  0.1844
  173SAPI   O1419565   3.639   2.184  10.819  0.7002 -0.4552 -0.3670
  173SAPI   O1219566   3.864   2.127  10.743  0.0667 -0.5993  0.6341
  173SAPI   O1119567   3.734   2.292  10.618  0.1464  0.1789  1.0969
  173SAPI    C119568   3.600   2.325  10.579  0.1886  0.1825  0.0422
  173SAPI    HA19569   3.549   2.380  10.661  1.1768  2.7159 -0.9383
  173SAPI    HB19570   3.596   2.400  10.497 -0.6762 -1.1136 -1.1471
  173SAPI    C219571   3.521   2.202  10.525  0.2431 -0.9378 -0.4687
  173SAPI    HS19572   3.531   2.122  10.602  1.1888 -0.7996 -0.4340
  173SAPI   O2119573   3.584   2.156  10.407 -0.4224  0.1509 -1.0140
  173SAPI   C2119574   3.580   2.023  10.392 -0.0417 -0.1244  0.4050
  173SAPI   O2219575   3.513   1.948  10.459  0.1861  0.2307 -0.5914
  173SAPI   C2219576   3.686   1.984  10.293  0.4695 -0.9107 -0.1257
  173SAPI   H2R19577   3.648   2.019  10.195 -2.0153 -2.5416  0.1815
  173SAPI   H2S19578   3.778   2.043  10.317  0.5636 -0.1631 -2.0989
  173SAPI    C319579   3.367   2.244  10.499 -0.6461  0.0256 -0.5139
  173SAPI    HX19580   3.366   2.333  10.433  0.6795  1.7491  1.6473
  173SAPI    HY19581   3.327   2.274  10.598  1.9350  0.1445  0.5838
  173SAPI   O3119582   3.298   2.141  10.425  0.6540  0.5626 -0.2500
  173SAPI   C3119583   3.186   2.089  10.469  0.3961 -0.3888  0.3664
  173SAPI   O3219584   3.119   2.135  10.561  0.6991 -0.0032 -0.1740
  173SAPI   C3219585   3.147   1.963  10.402  0.0439  0.4882  0.9626
  173SAPI   H2X19586   3.060   1.909  10.446 -1.3880  0.4249 -1.7364
  173SAPI   H2Y19587   3.240   1.905  10.417  0.1861  0.0363 -1.2473
  173SAPI   C2319588   3.716   1.829  10.285 -0.8036 -0.2798  0.4985
  173SAPI   H3R19589   3.622   1.772  10.271 -0.2906 -0.8703 -0.6499
  173SAPI   H3S19590   3.774   1.798  10.375  1.5451  1.9521 -0.1093
  173SAPI   C2419591   3.816   1.796  10.173 -0.1188 -0.3296  0.3920
  173SAPI   H4R19592   3.828   1.686  10.166  0.6129 -0.3018  1.0213
  173SAPI   H4S19593   3.918   1.832  10.197  1.3640 -3.6784 -0.2744
  173SAPI   C2519594   3.767   1.854  10.040  0.3222  0.2920  0.1065
  173SAPI   H5R19595   3.787   1.962  10.026  0.0167  0.3575  0.1619
  173SAPI   C2619596   3.707   1.785   9.937 -0.0083  0.2954  0.5238
  173SAPI   H6R19597   3.686   1.835   9.841 -0.3665 -0.0709  0.4076
  173SAPI   C2719598   3.678   1.634   9.933  0.4129 -0.0543 -0.0574
  173SAPI   H7R19599   3.708   1.591  10.031  0.9078 -1.2031 -0.6921
  173SAPI   H7S19600   3.743   1.591   9.854  1.7699 -0.3978  1.2089
  173SAPI   C2819601   3.538   1.594   9.909  0.3157 -0.2143  0.6012
  173SAPI   H8R19602   3.471   1.597   9.996 -0.0456  0.5855  0.3112
  173SAPI   C2919603   3.494   1.540   9.795  0.2094  0.8266  0.5049
  173SAPI   H9R19604   3.393   1.497   9.803  0.7067 -0.3807  0.4948
  173SAPI  C21019605   3.562   1.516   9.658  0.4825  0.4553  0.4472
  173SAPI  H10R19606   3.672   1.532   9.660  0.7184 -0.3095 -2.0525
  173SAPI  H10S19607   3.542   1.598   9.585  1.1527  0.3035  0.0838
  173SAPI  C21119608   3.537   1.378   9.605 -0.2764  0.7665 -0.3076
  173SAPI  H11R19609   3.509   1.311   9.687  2.9163  1.8726  1.9034
  173SAPI  C21219610   3.556   1.330   9.480  0.3842 -0.1594  0.6505
  173SAPI  H12R19611   3.538   1.224   9.458 -0.6089 -0.9662  4.6005
  173SAPI  C21319612   3.598   1.428   9.370  0.4000  0.6714  0.4502
  173SAPI  H13R19613   3.698   1.389   9.339 -0.4414  0.0463 -1.5813
  173SAPI  H13S19614   3.600   1.534   9.404 -0.5134  0.6584  0.5504
  173SAPI  C21419615   3.495   1.417   9.265  0.5364 -0.4910 -0.5877
  173SAPI  H14R19616   3.403   1.463   9.303 -0.3031 -3.1478  0.7823
  173SAPI  C21519617   3.504   1.345   9.152 -0.4957 -0.4455 -0.4711
  173SAPI  H15R19618   3.427   1.372   9.078 -1.8680 -2.7485  0.0488
  173SAPI  C21619619   3.618   1.269   9.093  0.0901  0.1974 -0.8944
  173SAPI  H16R19620   3.577   1.178   9.045  0.1248  0.1082 -0.7569
  173SAPI  H16S19621   3.674   1.221   9.177 -1.8105 -1.7815 -0.6707
  173SAPI  C21719622   3.705   1.359   9.008  0.7970 -0.0525 -0.4142
  173SAPI  H17R19623   3.761   1.413   9.087 -1.6709  0.7583  0.8937
  173SAPI  H17S19624   3.647   1.431   8.946 -2.1219 -0.4945  1.5828
  173SAPI  C21819625   3.804   1.281   8.921 -0.1147 -0.0336  0.6315
  173SAPI  H18R19626   3.847   1.202   8.987 -0.4953  0.1371  1.0910
  173SAPI  H18S19627   3.893   1.336   8.885 -0.9658  1.9487  1.4137
  173SAPI  C21919628   3.740   1.219   8.796 -0.4531 -0.9831 -0.8609
  173SAPI  H19R19629   3.721   1.294   8.716  0.6443  0.8692  0.5221
  173SAPI  H19S19630   3.644   1.178   8.835 -1.4738  1.0772 -1.0633
  173SAPI  C22019631   3.812   1.098   8.731  0.5267 -0.3432 -0.7103
  173SAPI  H20R19632   3.846   1.041   8.820  2.0586  1.3065 -0.1624
  173SAPI  H20S19633   3.909   1.133   8.688  0.9508  0.5505  0.8802
  173SAPI  H20T19634   3.753   1.042   8.655 -3.2869  1.8799  0.3286
  173SAPI   C3319635   3.131   1.975  10.246 -1.1569  0.6975 -0.8798
  173SAPI   H3X19636   3.213   2.037  10.206 -2.6943  3.0150 -0.6475
  173SAPI   H3Y19637   3.040   2.036  10.227 -0.6231  1.6414 -0.4335
  173SAPI   C3419638   3.125   1.833  10.181  0.4818  0.0814 -0.6680
  173SAPI   H4X19639   3.023   1.796  10.205 -0.7282  1.4560 -3.1939
  173SAPI   H4Y19640   3.205   1.777  10.232 -1.2645 -0.7578  1.2874
  173SAPI   C3519641   3.145   1.830  10.039  0.4806  0.3210  0.4413
  173SAPI   H5X19642   3.250   1.863  10.038  0.1393  1.5113  1.4872
  173SAPI   H5Y19643   3.079   1.908   9.995  0.5376  1.9317  3.0152
  173SAPI   C3619644   3.138   1.690   9.975 -0.4290 -0.1920  0.3712
  173SAPI   H6X19645   3.036   1.651   9.995  0.0926 -1.4109  0.8114
  173SAPI   H6Y19646   3.216   1.620  10.014 -0.9264 -0.2259  1.3320
  173SAPI   C3719647   3.153   1.701   9.822  0.3385  0.1546 -0.4490
  173SAPI   H7X19648   3.251   1.745   9.794 -0.3303  1.4849 -0.8078
  173SAPI   H7Y19649   3.079   1.775   9.784  0.5336 -0.0077 -1.1601
  173SAPI   C3819650   3.118   1.571   9.755 -0.1568 -0.0619  0.2205
  173SAPI   H8X19651   3.018   1.528   9.771  0.2111 -1.7640 -1.5743
  173SAPI   H8Y19652   3.181   1.494   9.804 -0.1107  1.5281  2.8436
  173SAPI   C3919653   3.136   1.566   9.599 -0.0515  0.3211 -0.2554
  173SAPI   H9X19654   3.167   1.463   9.570  1.3727  0.3233  1.1167
  173SAPI   H9Y19655   3.227   1.619   9.564  0.7545 -0.2889  0.8475
  173SAPI  C31019656   3.007   1.607   9.522  0.1584 -0.1018  0.2244
  173SAPI  H10X19657   2.969   1.707   9.555  1.0000  0.1641  0.4196
  173SAPI  H10Y19658   2.939   1.520   9.530 -1.0805  0.8035 -0.1212
  173SAPI  C31119659   3.035   1.615   9.368 -0.1457 -0.5735  0.1225
  173SAPI  H11X19660   3.101   1.700   9.340 -0.4304 -0.3269  0.1970
  173SAPI  H11Y19661   2.938   1.641   9.320  0.9864  0.0011 -2.0100
  173SAPI  C31219662   3.093   1.487   9.301  0.0927 -0.2484  0.8089
  173SAPI  H12X19663   3.041   1.400   9.348  1.2577 -0.7202  1.2701
  173SAPI  H12Y19664   3.203   1.473   9.311  0.2251 -1.8177 -1.9989
  173SAPI  C31319665   3.065   1.490   9.150 -0.5528 -0.4039  0.0296
  173SAPI  H13X19666   2.959   1.491   9.119  0.0869 -2.1211 -2.5056
  173SAPI  H13Y19667   3.103   1.398   9.101 -1.6898  0.5864 -2.9040
  173SAPI  C31419668   3.132   1.612   9.083 -0.1481  1.1705  0.1131
  173SAPI  H14X19669   3.239   1.609   9.113  0.0815 -0.8429 -0.7768
  173SAPI  H14Y19670   3.092   1.706   9.126 -0.8907  0.2618  1.4428
  173SAPI  C31519671   3.103   1.619   8.927  0.2514  1.0421 -0.7711
  173SAPI  H15X19672   3.151   1.702   8.871 -1.2820  2.3543 -0.2364
  173SAPI  H15Y19673   2.994   1.636   8.914  0.6451  2.2844 -2.9633
  173SAPI  C31619674   3.129   1.489   8.847  0.0738 -1.2392 -0.1249
  173SAPI  H16X19675   3.077   1.405   8.897 -1.6942 -0.5125 -0.6438
  173SAPI  H16Y19676   3.239   1.475   8.858  0.5154  1.6806 -0.0060
  173SAPI  C31719677   3.094   1.504   8.693 -0.1296  0.4422  0.0229
  173SAPI  H17X19678   2.986   1.525   8.681  0.1282  0.6971 -2.2333
  173SAPI  H17Y19679   3.115   1.405   8.647 -1.7783  0.4844 -0.9129
  173SAPI  C31819680   3.180   1.606   8.616 -0.5565 -0.4122 -0.3408
  173SAPI  H18X19681   3.142   1.603   8.511 -0.1571 -1.7674 -0.4624
  173SAPI  H18Y19682   3.287   1.582   8.631 -0.2297  1.6379  0.9853
  173SAPI  H18Z19683   3.151   1.709   8.646 -1.6418 -0.7585 -0.1491
  174SAPI   C1219684   5.317   3.187  10.636  0.4808  0.0174 -0.2626
  174SAPI    H219685   5.339   3.279  10.578  0.0595  0.2381 -0.0785
  174SAPI    O219686   5.178   3.184  10.671 -0.5365  0.6330 -0.0756
  174SAPI   HO219687   5.180   3.218  10.761  1.1848  2.8929 -0.8852
  174SAPI   C1319688   5.348   3.076  10.537  0.0422  0.2750  0.1454
  174SAPI    H319689   5.456   3.081  10.512  0.0749 -0.3757  0.1348
  174SAPI    O319690   5.259   3.096  10.426  0.5750 -0.0463 -0.1807
  174SAPI   HO319691   5.176   3.126  10.464  0.4337 -3.1537  2.3272
  174SAPI   C1419692   5.331   2.940  10.599  0.7670  0.7373  0.0112
  174SAPI    H419693   5.228   2.933  10.641  0.5851  2.8090 -0.0122
  174SAPI    O419694   5.359   2.838  10.506  0.4807 -0.1762  0.0571
  174SAPI   HO419695   5.308   2.764  10.541 -0.1473 -0.0039 -0.4972
  174SAPI   C1519696   5.423   2.927  10.721 -0.5745 -0.0596  0.3741
  174SAPI    H519697   5.524   2.938  10.678 -1.3993 -3.2703 -2.8523
  174SAPI    O519698   5.408   2.800  10.779  0.1064 -0.3115  0.1787
  174SAPI   HO519699   5.469   2.741  10.734  2.0238  1.5489  0.1864
  174SAPI   C1619700   5.384   3.040  10.823 -0.2700  0.8277 -0.0874
  174SAPI    H619701   5.279   3.034  10.859  0.9982  0.5185  4.0740
  174SAPI    O619702   5.479   3.035  10.930  0.7419 -0.3299  0.4569
  174SAPI   HO619703   5.501   3.127  10.947 -2.1140  0.0761  2.8106
  174SAPI   C1119704   5.402   3.175  10.757 -0.1866 -0.1197  0.2354
  174SAPI    H119705   5.507   3.174  10.719 -0.7371  2.9985 -1.7835
  174SAPI     P19706   5.477   3.403  10.855  0.3130 -0.0459  0.1114
  174SAPI   O1319707   5.610   3.346  10.864 -0.8522  0.0124  0.6284
  174SAPI   O1419708   5.427   3.493  10.960  0.2931  0.6114  0.1824
  174SAPI   O1219709   5.371   3.281  10.846 -0.0438  0.0316  0.3044
  174SAPI   O1119710   5.460   3.472  10.712  0.6397 -0.4218  0.2636
  174SAPI    C119711   5.333   3.534  10.678  0.9598 -0.0793  0.3793
  174SAPI    HA19712   5.247   3.464  10.684  1.4007 -1.1602 -3.5525
  174SAPI    HB19713   5.306   3.620  10.744 -2.2145 -0.2437 -0.5752
  174SAPI    C219714   5.337   3.583  10.536 -0.1192  0.3302 -1.3058
  174SAPI    HS19715   5.244   3.639  10.515 -0.1845  1.5546  1.6925
  174SAPI   O2119716   5.358   3.478  10.441  0.8308  0.2378 -0.3967
  174SAPI   C2119717   5.282   3.495  10.324 -0.6271 -0.7228 -0.0780
  174SAPI   O2219718   5.223   3.596  10.297  0.4355 -0.4714 -0.0926
  174SAPI   C2219719   5.314   3.393  10.222 -0.6096  0.1221 -0.3030
  174SAPI   H2R19720   5.424   3.388  10.213 -0.6115 -0.0195 -0.2558
  174SAPI   H2S19721   5.272   3.296  10.256  1.4904 -0.2404  1.4086
  174SAPI    C319722   5.447   3.692  10.524 -0.2086 -0.0825  0.7442
  174SAPI    HX19723   5.550   3.670  10.559  1.5772  2.8624 -2.1343
  174SAPI    HY19724   5.421   3.776  10.592 -0.5091 -1.2042  2.0469
  174SAPI   O3119725   5.455   3.741  10.386 -0.0144 -0.4642 -0.0357
  174SAPI   C3119726   5.364   3.826  10.348 -0.0117  0.7625 -0.1570
  174SAPI   O3219727   5.303   3.900  10.422 -0.1169  0.8597  0.3189
  174SAPI   C3219728   5.380   3.833  10.197 -0.1595 -0.6799  0.0686
  174SAPI   H2X19729   5.289   3.885  10.161  0.6879  0.2732 -0.7468
  174SAPI   H2Y19730   5.381   3.733  10.148 -1.5216 -0.8623  0.3549
  174SAPI   C2319731   5.241   3.405  10.084 -0.4878 -0.2741  0.2741
  174SAPI   H3R19732   5.275   3.327  10.012  0.2525  0.9113 -0.7108
  174SAPI   H3S19733   5.286   3.494  10.034 -0.8458  1.9059  3.5357
  174SAPI   C2419734   5.088   3.399  10.083 -0.7539  0.5750 -1.1972
  174SAPI   H4R19735   5.049   3.428   9.983 -0.4498  1.8076 -0.9729
  174SAPI   H4S19736   5.047   3.474  10.153 -0.8973 -2.5151  2.3430
  174SAPI   C2519737   5.047   3.255  10.127 -0.3543 -0.2928  0.2251
  174SAPI   H5R19738   5.047   3.228  10.234 -0.5130  0.8471  0.5257
  174SAPI   C2619739   5.034   3.151  10.046 -0.5584  0.2179 -0.0432
  174SAPI   H6R19740   4.998   3.060  10.095 -0.3197 -0.0345 -0.3338
  174SAPI   C2719741   5.051   3.150   9.898  0.1615 -0.2325 -0.1126
  174SAPI   H7R19742   5.047   3.256   9.862  4.0166  0.8833  2.1745
  174SAPI   H7S19743   4.959   3.113   9.848 -1.5859  2.7319  0.6290
  174SAPI   C2819744   5.175   3.085   9.858  0.2483  0.7050 -0.6795
  174SAPI   H8R19745   5.269   3.135   9.886  0.4738  1.7306 -3.0136
  174SAPI   C2919746   5.172   2.976   9.776  0.4496  0.0479 -0.0928
  174SAPI   H9R19747   5.271   2.940   9.745  1.1265  1.4859  0.2924
  174SAPI  C21019748   5.051   2.908   9.714 -0.4548  1.5137 -0.5494
  174SAPI  H10R19749   4.995   2.972   9.642  0.5945  0.9085 -1.9565
  174SAPI  H10S19750   4.975   2.887   9.792 -0.5166  0.6324 -0.8402
  174SAPI  C21119751   5.090   2.777   9.648 -0.0310 -0.2918 -0.9013
  174SAPI  H11R19752   5.153   2.719   9.717  0.2666  1.9833  0.8556
  174SAPI  C21219753   5.051   2.733   9.524 -0.2245  0.4739 -0.2691
  174SAPI  H12R19754   5.099   2.639   9.495  0.4754 -0.0022  2.2095
  174SAPI  C21319755   4.967   2.806   9.424  0.3365 -0.1305  0.7095
  174SAPI  H13R19756   4.916   2.899   9.457 -1.1752 -0.1447 -1.4234
  174SAPI  H13S19757   4.883   2.739   9.396  0.3602  0.3053 -0.4254
  174SAPI  C21419758   5.042   2.840   9.298 -0.4205  0.5265 -0.1009
  174SAPI  H14R19759   5.119   2.918   9.311  0.3226 -0.1939 -0.0319
  174SAPI  C21519760   5.028   2.780   9.178 -0.2461 -0.6227  0.1608
  174SAPI  H15R19761   5.074   2.823   9.088 -0.3746  1.0613  0.8493
  174SAPI  C21619762   4.916   2.689   9.148 -0.6707  0.0427  0.6608
  174SAPI  H16R19763   4.816   2.724   9.182 -1.1845 -2.0097  1.4506
  174SAPI  H16S19764   4.936   2.589   9.193 -0.2947 -0.2042 -0.0425
  174SAPI  C21719765   4.899   2.672   8.995  0.0041 -0.3381 -0.8234
  174SAPI  H17R19766   4.864   2.770   8.956 -0.6718  0.6018  1.8929
  174SAPI  H17S19767   4.813   2.607   8.969 -1.2976  1.0599 -0.2085
  174SAPI  C21819768   5.021   2.635   8.918 -0.1881  0.0299 -0.5208
  174SAPI  H18R19769   5.078   2.571   8.989 -0.7262  0.6013  0.4517
  174SAPI  H18S19770   5.079   2.729   8.901 -1.2832  0.6318 -1.0196
  174SAPI  C21919771   4.999   2.554   8.795 -0.4127  0.5205  0.0598
  174SAPI  H19R19772   4.946   2.608   8.713 -1.8003 -1.7529 -0.6067
  174SAPI  H19S19773   4.924   2.475   8.816  1.6678 -1.2806  1.1175
  174SAPI  C22019774   5.123   2.483   8.735 -0.1836 -0.1691 -0.6014
  174SAPI  H20R19775   5.200   2.549   8.691 -0.1274 -1.3785 -2.4101
  174SAPI  H20S19776   5.085   2.420   8.652 -0.6312 -1.8649  0.8219
  174SAPI  H20T19777   5.168   2.418   8.813 -4.2505 -1.5765  0.8174
  174SAPI   C3319778   5.499   3.924  10.149 -0.4201 -0.3271 -0.0700
  174SAPI   H3X19779   5.597   3.874  10.161 -0.8075 -1.2101 -0.5348
  174SAPI   H3Y19780   5.498   4.021  10.205 -2.7506 -1.4523  2.0514
  174SAPI   C3419781   5.489   3.940   9.998 -0.0613 -0.3217  0.0092
  174SAPI   H4X19782   5.573   4.001   9.959 -0.8269  0.1010 -1.0054
  174SAPI   H4Y19783   5.390   3.987   9.983 -0.0653  0.0247  1.0732
  174SAPI   C3519784   5.511   3.815   9.915  0.0187 -0.3270  0.3266
  174SAPI   H5X19785   5.429   3.740   9.921  0.4429 -0.8278 -0.0800
  174SAPI   H5Y19786   5.600   3.758   9.947 -0.3754 -0.2622  1.5946
  174SAPI   C3619787   5.538   3.851   9.768  0.3365  0.4797  0.1230
  174SAPI   H6X19788   5.617   3.927   9.753  0.1435  0.8493  0.9347
  174SAPI   H6Y19789   5.452   3.893   9.712  0.6011  1.8458  0.6985
  174SAPI   C3719790   5.604   3.729   9.688  0.0667 -0.1674 -0.6323
  174SAPI   H7X19791   5.532   3.647   9.710 -1.0253  0.5005 -1.6247
  174SAPI   H7Y19792   5.699   3.692   9.732 -0.1452 -0.5412 -0.4819
  174SAPI   C3819793   5.623   3.750   9.539 -0.0227 -0.0527 -0.4693
  174SAPI   H8X19794   5.716   3.810   9.527  0.9041 -0.7791  2.3649
  174SAPI   H8Y19795   5.529   3.793   9.500 -1.3431 -1.2079  1.2906
  174SAPI   C3919796   5.627   3.621   9.458  0.3871 -0.8723  0.0537
  174SAPI   H9X19797   5.532   3.565   9.469 -0.5474  0.5786 -0.3386
  174SAPI   H9Y19798   5.717   3.563   9.486  1.0052  0.4624  0.9573
  174SAPI  C31019799   5.631   3.655   9.307 -0.1935 -0.0355  0.4030
  174SAPI  H10X19800   5.713   3.728   9.291  0.2722  0.2086  3.2874
  174SAPI  H10Y19801   5.530   3.688   9.273 -0.2284  1.1220  1.5561
  174SAPI  C31119802   5.667   3.529   9.230  0.1143 -0.3099 -1.2408
  174SAPI  H11X19803   5.606   3.441   9.262  0.4259  0.1503  0.7462
  174SAPI  H11Y19804   5.774   3.516   9.257  0.1319 -0.0682 -1.1897
  174SAPI  C31219805   5.661   3.544   9.081  0.3527 -0.4928 -0.2739
  174SAPI  H12X19806   5.732   3.622   9.045 -1.9310  1.4575 -0.7892
  174SAPI  H12Y19807   5.561   3.584   9.051 -0.4781 -1.6941  0.8008
  174SAPI  C31319808   5.688   3.414   9.001 -0.1946  0.6064  0.6356
  174SAPI  H13X19809   5.604   3.345   9.024  0.5412 -0.3478  0.5236
  174SAPI  H13Y19810   5.782   3.361   9.029  0.9995  1.1657 -1.9465
  174SAPI  C31419811   5.680   3.416   8.847  0.3345 -0.2368  0.1738
  174SAPI  H14X19812   5.774   3.464   8.813 -0.5605 -0.2079 -2.5021
  174SAPI  H14Y19813   5.593   3.465   8.798  2.2783  1.2523 -2.0508
  174SAPI  C31519814   5.675   3.270   8.798  0.8058  0.1594 -0.4882
  174SAPI  H15X19815   5.574   3.227   8.816  0.7183  0.1906 -0.8961
  174SAPI  H15Y19816   5.755   3.212   8.848 -0.3939 -1.1355 -0.0341
  174SAPI  C31619817   5.699   3.264   8.647 -0.2615  0.4226 -0.2157
  174SAPI  H16X19818   5.803   3.301   8.633  0.4290 -0.3656  2.2402
  174SAPI  H16Y19819   5.628   3.322   8.583  1.0021 -1.0264 -3.1410
  174SAPI  C31719820   5.702   3.124   8.583  0.3340  0.6421  0.7342
  174SAPI  H17X19821   5.613   3.062   8.606 -0.3432  1.1562 -0.4707
  174SAPI  H17Y19822   5.792   3.070   8.620 -0.3708 -0.5954  0.7027
  174SAPI  C31819823   5.707   3.122   8.429 -0.5240  0.0056 -1.1455
  174SAPI  H18X19824   5.636   3.205   8.404 -0.8700  0.8939  2.3027
  174SAPI  H18Y19825   5.679   3.025   8.383 -1.3975 -0.9979  1.3571
  174SAPI  H18Z19826   5.810   3.136   8.391 -0.5410  0.0466 -1.1754
  175SAPI   C1219827   1.074   1.286   5.856  0.2831 -0.2019  0.5905
  175SAPI    H219828   0.981   1.328   5.900  0.2023 -0.0630  0.2873
  175SAPI    O219829   1.050   1.162   5.788  0.1193  0.0787  0.3295
  175SAPI   HO219830   0.980   1.132   5.846 -0.7845  2.2755  0.5013
  175SAPI   C1319831   1.123   1.394   5.763 -0.5720  0.5644  0.5178
  175SAPI    H319832   1.159   1.477   5.827  1.0810  0.7714 -0.6143
  175SAPI    O319833   1.028   1.451   5.677  0.3647 -0.0793 -0.5956
  175SAPI   HO319834   1.006   1.388   5.608 -3.5152  0.9711 -0.5960
  175SAPI   C1419835   1.253   1.339   5.697 -0.3352 -0.6751 -0.6181
  175SAPI    H419836   1.232   1.241   5.650 -1.0497 -1.0643  0.4858
  175SAPI    O419837   1.305   1.431   5.606  0.2681  0.5090  0.1240
  175SAPI   HO419838   1.364   1.384   5.548 -0.7265 -3.1746  1.8150
  175SAPI   C1519839   1.355   1.305   5.818  0.3548  0.0785  0.0181
  175SAPI    H519840   1.371   1.404   5.867 -0.2387 -0.5770  1.6205
  175SAPI    O519841   1.476   1.259   5.769  0.2408  0.2881 -0.2151
  175SAPI   HO519842   1.486   1.296   5.681  3.2939  2.3485  0.8448
  175SAPI   C1619843   1.301   1.210   5.929  0.1137 -0.0130  1.2222
  175SAPI    H619844   1.288   1.108   5.887  0.3767  0.5617 -0.3406
  175SAPI    O619845   1.396   1.211   6.033  0.0243 -0.1137 -0.0778
  175SAPI   HO619846   1.462   1.145   6.014  1.6659  1.0414  1.3647
  175SAPI   C1119847   1.171   1.271   5.976 -0.9225 -0.2397  0.3754
  175SAPI    H119848   1.197   1.370   6.019  0.2418 -0.9156  1.3224
  175SAPI     P19849   1.011   1.240   6.193 -0.0430  0.5781 -0.2505
  175SAPI   O1319850   0.922   1.131   6.235  0.0566 -0.1954  0.1217
  175SAPI   O1419851   0.940   1.358   6.139 -0.6502  0.0074  0.1509
  175SAPI   O1219852   1.118   1.185   6.077 -0.0126  0.1684  0.2184
  175SAPI   O1119853   1.102   1.286   6.316 -0.5620  0.9788  0.0373
  175SAPI    C119854   1.222   1.211   6.335 -0.1609  0.2575  0.1913
  175SAPI    HA19855   1.215   1.102   6.314  0.7869  0.3284 -0.5961
  175SAPI    HB19856   1.302   1.257   6.274  1.2665  0.3975  2.0513
  175SAPI    C219857   1.267   1.217   6.484 -0.7217 -0.2891 -0.0075
  175SAPI    HS19858   1.353   1.148   6.494 -0.6686 -0.2351 -0.0904
  175SAPI   O2119859   1.149   1.188   6.560 -0.2004  0.4177 -0.0196
  175SAPI   C2119860   1.093   1.071   6.553 -0.1594 -0.0266 -0.5851
  175SAPI   O2219861   1.131   0.972   6.497 -0.3045  0.1320 -0.4648
  175SAPI   C2219862   0.965   1.066   6.648 -0.1260  0.4550  0.8997
  175SAPI   H2R19863   0.866   1.064   6.597  0.4120 -0.1990 -0.1419
  175SAPI   H2S19864   0.981   0.968   6.698  4.2307  0.9985  0.9356
  175SAPI    C319865   1.320   1.347   6.528 -0.1859  0.6106  0.2895
  175SAPI    HX19866   1.241   1.420   6.557  0.0503  1.4883 -1.1950
  175SAPI    HY19867   1.378   1.388   6.443  0.6866  4.1989  2.3816
  175SAPI   O3119868   1.412   1.327   6.643 -0.8666  0.1203 -0.4375
  175SAPI   C3119869   1.476   1.432   6.678 -0.7856  0.1061  0.2500
  175SAPI   O3219870   1.490   1.534   6.609  0.4417 -0.2961  0.0706
  175SAPI   C3219871   1.558   1.401   6.798 -0.4674 -0.2024  0.6908
  175SAPI   H2X19872   1.662   1.410   6.760 -0.3111 -1.3810  0.7990
  175SAPI   H2Y19873   1.550   1.297   6.837  0.6098 -0.5138  0.1214
  175SAPI   C2319874   0.955   1.176   6.762  0.8585  0.2883  1.0565
  175SAPI   H3R19875   0.916   1.262   6.703  1.0562 -1.8371 -2.4552
  175SAPI   H3S19876   1.060   1.196   6.793  1.3151 -0.7077  0.2033
  175SAPI   C2419877   0.865   1.139   6.870 -0.2429  0.9019 -0.2716
  175SAPI   H4R19878   0.779   1.084   6.825 -0.0023  0.2294  0.0750
  175SAPI   H4S19879   0.842   1.218   6.944 -1.1306 -0.5280  1.0370
  175SAPI   C2519880   0.928   1.041   6.959  1.2831  1.0890 -0.1378
  175SAPI   H5R19881   1.037   1.046   6.958  1.4182 -0.7304  1.1749
  175SAPI   C2619882   0.861   0.939   7.033  0.0372  0.4205 -0.0373
  175SAPI   H6R19883   0.919   0.879   7.104 -0.1481  0.1099 -0.1467
  175SAPI   C2719884   0.715   0.905   7.039 -0.4237  0.2916  0.7634
  175SAPI   H7R19885   0.651   0.993   7.017  0.6232  1.0153  0.5520
  175SAPI   H7S19886   0.683   0.877   7.142 -1.8872 -2.1183 -0.2621
  175SAPI   C2819887   0.678   0.807   6.934 -0.1393  0.8740  0.0611
  175SAPI   H8R19888   0.689   0.847   6.832  2.0308 -0.1572 -0.1830
  175SAPI   C2919889   0.644   0.677   6.966  0.0390 -0.4097  0.0146
  175SAPI   H9R19890   0.602   0.602   6.898  1.2714 -0.8680 -0.2663
  175SAPI  C21019891   0.624   0.621   7.105  0.2052 -0.1268  0.2356
  175SAPI  H10R19892   0.554   0.535   7.097 -0.7696  0.7056 -0.4047
  175SAPI  H10S19893   0.564   0.692   7.165  1.8146  2.3205 -0.8786
  175SAPI  C21119894   0.732   0.570   7.187 -0.2995  0.3112 -0.4448
  175SAPI  H11R19895   0.829   0.562   7.136 -0.6213 -2.0469 -0.7937
  175SAPI  C21219896   0.729   0.534   7.321 -0.4735 -0.4796 -0.1048
  175SAPI  H12R19897   0.824   0.503   7.367 -0.7333 -0.6211  0.3433
  175SAPI  C21319898   0.613   0.545   7.419 -0.3691  1.1357  0.1581
  175SAPI  H13R19899   0.598   0.456   7.484  0.6203  0.2875 -0.7326
  175SAPI  H13S19900   0.513   0.556   7.370 -0.4249  0.0275 -0.0136
  175SAPI  C21419901   0.625   0.672   7.506  0.2348  0.4893 -0.5336
  175SAPI  H14R19902   0.603   0.761   7.446 -1.1149 -0.8082 -2.0659
  175SAPI  C21519903   0.667   0.678   7.637  0.3964  0.4020 -0.0864
  175SAPI  H15R19904   0.652   0.768   7.698  1.1185 -0.3109  1.1925
  175SAPI  C21619905   0.699   0.559   7.721  0.2881 -0.3477  0.4388
  175SAPI  H16R19906   0.713   0.460   7.672  0.3424 -0.1337  0.0125
  175SAPI  H16S19907   0.603   0.552   7.776  0.2794  1.7095  0.7865
  175SAPI  C21719908   0.818   0.595   7.813 -0.2284 -0.4797  0.2405
  175SAPI  H17R19909   0.830   0.703   7.833  2.6586 -1.1693  3.0659
  175SAPI  H17S19910   0.910   0.570   7.756 -0.8356  1.0988 -1.5140
  175SAPI  C21819911   0.802   0.521   7.942 -0.0145 -0.2065 -0.0419
  175SAPI  H18R19912   0.700   0.514   7.986 -0.3261  0.4686 -0.6204
  175SAPI  H18S19913   0.853   0.580   8.021 -0.7294 -1.4305  1.3699
  175SAPI  C21919914   0.859   0.377   7.938 -0.0498 -0.1300 -0.0479
  175SAPI  H19R19915   0.970   0.385   7.938  0.0148 -0.8395 -1.3470
  175SAPI  H19S19916   0.833   0.310   7.853  0.7219 -1.2470  0.5659
  175SAPI  C22019917   0.796   0.305   8.060 -0.2618  0.2629 -0.2394
  175SAPI  H20R19918   0.687   0.293   8.045 -0.3490 -0.2864  0.7613
  175SAPI  H20S19919   0.818   0.359   8.154  3.2358 -3.6205  1.4849
  175SAPI  H20T19920   0.823   0.200   8.082 -1.4225 -0.3869 -1.6950
  175SAPI   C3319921   1.550   1.511   6.907  0.1435  0.2057  0.3151
  175SAPI   H3X19922   1.483   1.594   6.876 -1.2038 -1.0561 -0.2650
  175SAPI   H3Y19923   1.650   1.558   6.910  0.0561  0.3798  0.5871
  175SAPI   C3419924   1.487   1.453   7.047 -0.0124 -0.7736  0.8990
  175SAPI   H4X19925   1.552   1.373   7.088  0.3377 -1.2673 -0.5440
  175SAPI   H4Y19926   1.385   1.414   7.027 -0.2645 -0.1280  0.9118
  175SAPI   C3519927   1.486   1.558   7.157  0.6605  0.3037  0.1375
  175SAPI   H5X19928   1.404   1.630   7.139 -1.2299 -1.7319  0.1998
  175SAPI   H5Y19929   1.584   1.609   7.168  2.3539 -2.9877  2.2078
  175SAPI   C3619930   1.441   1.489   7.295  0.5397 -0.3234 -0.2906
  175SAPI   H6X19931   1.509   1.407   7.327 -2.0454 -2.1511  0.9014
  175SAPI   H6Y19932   1.343   1.444   7.269  1.2568 -2.3332  0.2174
  175SAPI   C3719933   1.439   1.600   7.400  0.1371  0.1185 -0.4561
  175SAPI   H7X19934   1.385   1.688   7.358  0.2567 -0.6307 -2.2700
  175SAPI   H7Y19935   1.545   1.619   7.428 -0.2609 -0.9128  2.0513
  175SAPI   C3819936   1.372   1.550   7.529  0.0693 -0.1732  0.4480
  175SAPI   H8X19937   1.432   1.462   7.560  1.3629  0.8878  1.0583
  175SAPI   H8Y19938   1.270   1.514   7.504  1.3375 -1.9614 -2.7998
  175SAPI   C3919939   1.366   1.665   7.628  0.6553  0.0818 -0.3417
  175SAPI   H9X19940   1.314   1.748   7.575 -0.8932 -2.0822 -2.4493
  175SAPI   H9Y19941   1.469   1.692   7.659  0.8846  0.0748 -1.0756
  175SAPI  C31019942   1.298   1.629   7.762 -0.3458  0.0789  0.3835
  175SAPI  H10X19943   1.336   1.532   7.802  0.0395  0.2358  0.3987
  175SAPI  H10Y19944   1.197   1.595   7.729  0.3360 -0.4318 -1.2504
  175SAPI  C31119945   1.297   1.746   7.865 -1.0480  0.2513  0.4496
  175SAPI  H11X19946   1.209   1.740   7.932 -2.4943 -0.5849 -1.4617
  175SAPI  H11Y19947   1.309   1.844   7.813 -0.9322 -0.1089 -0.2062
  175SAPI  C31219948   1.427   1.745   7.956  0.4985 -0.4598  0.7652
  175SAPI  H12X19949   1.443   1.846   7.998  2.3072  0.7037 -2.3554
  175SAPI  H12Y19950   1.514   1.724   7.890 -0.2591  0.9284 -0.7408
  175SAPI  C31319951   1.425   1.643   8.067  0.1749  0.3222 -0.1618
  175SAPI  H13X19952   1.407   1.546   8.014 -0.4513  0.6299 -0.5236
  175SAPI  H13Y19953   1.340   1.648   8.138  0.7955 -0.4211  0.6527
  175SAPI  C31419954   1.567   1.634   8.137  0.0946 -0.3472  0.3545
  175SAPI  H14X19955   1.578   1.729   8.195 -0.0985 -0.2541  0.2393
  175SAPI  H14Y19956   1.651   1.646   8.065  0.0199  2.1502  0.5775
  175SAPI  C31519957   1.597   1.518   8.231  0.0549  0.3397 -0.2819
  175SAPI  H15X19958   1.700   1.520   8.271 -0.0508  0.3372 -0.0019
  175SAPI  H15Y19959   1.596   1.419   8.180  2.1376  0.8931 -1.4692
  175SAPI  C31619960   1.494   1.505   8.352  0.0631  0.1592 -0.0325
  175SAPI  H16X19961   1.397   1.463   8.317 -0.3654 -0.1953  1.4928
  175SAPI  H16Y19962   1.487   1.601   8.408  0.2996  0.3738 -0.3699
  175SAPI  C31719963   1.538   1.399   8.451 -0.2304  0.3725  0.5489
  175SAPI  H17X19964   1.636   1.417   8.499  1.1457 -0.5294 -1.7976
  175SAPI  H17Y19965   1.555   1.311   8.386 -0.1764 -0.7609  2.0477
  175SAPI  C31819966   1.426   1.357   8.550 -0.4406  0.3503  0.3004
  175SAPI  H18X19967   1.325   1.352   8.503 -0.8120 -2.1014  1.1735
  175SAPI  H18Y19968   1.423   1.434   8.631  2.3640  2.0040 -1.0384
  175SAPI  H18Z19969   1.450   1.265   8.609  1.7105  0.8484  0.2612
  176SAPI   C1219970   0.217   6.010   6.248 -0.0729  0.2009  0.1079
  176SAPI    H219971   0.131   5.945   6.221 -0.4036  0.9541 -0.6809
  176SAPI    O219972   0.335   5.939   6.228 -0.0846 -0.3917  0.1047
  176SAPI   HO219973   0.325   5.856   6.275  2.1393 -0.9809 -0.3917
  176SAPI   C1319974   0.210   6.137   6.165 -0.5041  1.1249 -0.1642
  176SAPI    H319975   0.112   6.182   6.189 -0.3791  0.9601  0.6816
  176SAPI    O319976   0.222   6.097   6.030  0.4757 -0.1909  0.6365
  176SAPI   HO319977   0.277   6.019   6.025 -0.4976 -0.8337 -0.7621
  176SAPI   C1419978   0.330   6.229   6.201  0.7356  0.1857  0.0380
  176SAPI    H419979   0.430   6.189   6.175  1.3399  2.2553 -1.0049
  176SAPI    O419980   0.322   6.351   6.128  0.5904  0.0398 -0.9054
  176SAPI   HO419981   0.332   6.334   6.035  2.4593  0.9629 -0.9053
  176SAPI   C1519982   0.310   6.258   6.352 -0.4185 -0.0104 -0.0682
  176SAPI    H519983   0.220   6.318   6.379 -1.0405 -1.1095  0.3477
  176SAPI    O519984   0.421   6.341   6.397 -1.2171  0.2794  0.3960
  176SAPI   HO519985   0.393   6.433   6.399  1.1393  1.1107  4.1062
  176SAPI   C1619986   0.311   6.137   6.442  0.2300 -0.5923  0.3413
  176SAPI    H619987   0.415   6.099   6.444  0.5173  0.1878  2.0615
  176SAPI    O619988   0.273   6.170   6.572  0.0470  0.1496  0.0794
  176SAPI   HO619989   0.263   6.093   6.627 -0.7985 -0.3391 -0.7307
  176SAPI   C1119990   0.203   6.044   6.395  0.3669 -0.4097 -0.6073
  176SAPI    H119991   0.110   6.103   6.406  1.0509  0.7440 -0.8889
  176SAPI     P19992   0.052   5.854   6.517 -0.0076 -0.0601 -0.0953
  176SAPI   O1319993   0.091   5.711   6.558 -0.0467 -1.0563  0.4576
  176SAPI   O1419994  -0.045   5.868   6.412 -0.4028  0.0339  0.3712
  176SAPI   O1219995   0.200   5.930   6.478  0.0699  0.1445 -0.1937
  176SAPI   O1119996  -0.010   5.928   6.644  0.0098 -0.1312  0.2406
  176SAPI    C119997  -0.131   6.004   6.643  0.3881  0.1701  0.5363
  176SAPI    HA19998  -0.193   5.972   6.557 -0.8315  0.3847  1.3044
  176SAPI    HB19999  -0.191   5.978   6.733 -1.2452 -2.4596 -1.1640
  176SAPI    C220000  -0.113   6.156   6.630 -0.3106 -0.3894 -0.6019
  176SAPI    HS20001  -0.039   6.181   6.551 -0.8946  0.5404 -0.8703
  176SAPI   O2120002  -0.072   6.206   6.760  0.0282  0.2720 -0.0982
  176SAPI   C2120003  -0.014   6.325   6.756 -1.0168  0.7039  0.6878
  176SAPI   O2220004  -0.003   6.389   6.653 -0.3988  0.0441 -0.0681
  176SAPI   C2220005   0.071   6.350   6.882  0.3590  0.0322  0.2473
  176SAPI   H2R20006   0.041   6.452   6.915 -1.2533  0.1758 -1.5348
  176SAPI   H2S20007   0.027   6.292   6.966 -0.7006 -0.2985 -0.5159
  176SAPI    C320008  -0.252   6.218   6.598 -0.2048 -0.4348 -0.2881
  176SAPI    HX20009  -0.272   6.191   6.492  2.1414 -1.0749 -0.6132
  176SAPI    HY20010  -0.243   6.328   6.599  1.6055 -0.5543 -0.0538
  176SAPI   O3120011  -0.363   6.169   6.681  0.0467  0.2768  0.3385
  176SAPI   C3120012  -0.365   6.233   6.799 -0.9792  0.4593  0.1884
  176SAPI   O3220013  -0.341   6.348   6.827  0.1127  0.1007  0.0572
  176SAPI   C3220014  -0.426   6.137   6.907 -0.4304 -0.1139  0.9194
  176SAPI   H2X20015  -0.385   6.036   6.885  2.4180  1.7329 -4.1544
  176SAPI   H2Y20016  -0.535   6.142   6.890 -0.4425  0.6053  1.1608
  176SAPI   C2320017   0.224   6.341   6.870  0.4863 -0.2047  0.3537
  176SAPI   H3R20018   0.280   6.389   6.953 -0.5505  0.1358  0.8712
  176SAPI   H3S20019   0.258   6.383   6.772  1.7496 -1.9178  0.0260
  176SAPI   C2420020   0.263   6.194   6.883  0.1227 -0.0188  0.6455
  176SAPI   H4R20021   0.215   6.125   6.811  1.3341  0.4802 -0.6826
  176SAPI   H4S20022   0.224   6.161   6.981  0.3755 -0.8214  0.4782
  176SAPI   C2520023   0.419   6.180   6.871  0.0779 -0.3171  0.4447
  176SAPI   H5R20024   0.457   6.175   6.768 -0.8872 -4.1486  0.1179
  176SAPI   C2620025   0.505   6.173   6.974 -0.0321  0.0490 -0.2778
  176SAPI   H6R20026   0.610   6.167   6.940 -0.7161 -1.6481 -2.3078
  176SAPI   C2720027   0.484   6.182   7.121 -0.0537  0.3495 -0.2541
  176SAPI   H7R20028   0.562   6.129   7.179 -2.7435 -1.3984  1.9960
  176SAPI   H7S20029   0.389   6.131   7.146  0.0162  0.2321 -0.2295
  176SAPI   C2820030   0.475   6.318   7.183 -0.1346  0.1583  0.4842
  176SAPI   H8R20031   0.435   6.389   7.108 -2.1566 -2.1377 -0.8019
  176SAPI   C2920032   0.497   6.360   7.308 -0.4347 -0.1167 -0.0164
  176SAPI   H9R20033   0.489   6.469   7.323 -1.3441  0.0168 -1.3121
  176SAPI  C21020034   0.548   6.273   7.422  0.5980 -0.6559  0.8592
  176SAPI  H10R20035   0.534   6.164   7.404  2.0230 -0.3678 -2.9552
  176SAPI  H10S20036   0.499   6.301   7.518  0.4241 -0.2607  0.6556
  176SAPI  C21120037   0.700   6.288   7.432 -0.6884 -0.1695  0.2912
  176SAPI  H11R20038   0.743   6.356   7.357  0.6132 -1.4777 -0.1943
  176SAPI  C21220039   0.787   6.246   7.525  1.0381  0.2643 -0.2897
  176SAPI  H12R20040   0.892   6.262   7.497  1.6800 -1.4218  0.9415
  176SAPI  C21320041   0.746   6.167   7.647  0.4921  0.1337 -0.9432
  176SAPI  H13R20042   0.824   6.098   7.685  0.0692  0.1602 -0.0035
  176SAPI  H13S20043   0.662   6.102   7.614 -1.3789  0.9886  1.8290
  176SAPI  C21420044   0.692   6.245   7.765 -0.3334  0.1379  0.0096
  176SAPI  H14R20045   0.602   6.304   7.743 -0.0564  0.9283  0.9624
  176SAPI  C21520046   0.750   6.271   7.885  0.8435 -0.2655 -0.0955
  176SAPI  H15R20047   0.695   6.345   7.946 -2.5863 -0.4484 -2.6932
  176SAPI  C21620048   0.872   6.204   7.942  0.7773  0.3737  0.5071
  176SAPI  H16R20049   0.958   6.274   7.949 -0.4472  1.7763  3.1353
  176SAPI  H16S20050   0.891   6.112   7.883 -0.1015  1.0620 -0.9185
  176SAPI  C21720051   0.838   6.154   8.086  0.2571 -0.2377  0.7649
  176SAPI  H17R20052   0.771   6.065   8.083  1.2912 -1.0387  1.0030
  176SAPI  H17S20053   0.797   6.240   8.143  0.0503  1.0162 -1.1888
  176SAPI  C21820054   0.957   6.082   8.157  0.0841 -0.1048  0.4381
  176SAPI  H18R20055   1.030   6.160   8.186  1.3172 -0.4609 -1.5436
  176SAPI  H18S20056   1.002   6.012   8.083  0.3851  0.0634  0.4608
  176SAPI  C21920057   0.905   6.004   8.280 -0.6706  0.8692 -0.7075
  176SAPI  H19R20058   0.996   5.977   8.337 -2.4028  0.8957  2.2464
  176SAPI  H19S20059   0.859   5.913   8.237  2.7971 -1.3622 -0.0963
  176SAPI  C22020060   0.810   6.075   8.372  0.6149 -0.1173 -0.8904
  176SAPI  H20R20061   0.711   6.095   8.326 -1.2978  0.3368  2.9917
  176SAPI  H20S20062   0.847   6.177   8.398 -3.0114  0.8528  1.2135
  176SAPI  H20T20063   0.786   6.016   8.463 -1.5119 -0.5839 -1.6981
  176SAPI   C3320064  -0.384   6.163   7.056 -0.0799  0.6430  0.4837
  176SAPI   H3X20065  -0.424   6.081   7.120  0.8982  0.1030  0.4246
  176SAPI   H3Y20066  -0.416   6.263   7.091  1.9943  1.7557 -0.5894
  176SAPI   C3420067  -0.232   6.140   7.081 -0.4417 -0.5209 -0.1970
  176SAPI   H4X20068  -0.178   6.209   7.013  1.2292 -3.3101 -1.8909
  176SAPI   H4Y20069  -0.193   6.042   7.049  2.7920  0.9797 -1.2950
  176SAPI   C3520070  -0.184   6.168   7.223  0.1943  0.5455 -0.3283
  176SAPI   H5X20071  -0.269   6.175   7.294  1.1484  0.2459  0.8615
  176SAPI   H5Y20072  -0.128   6.263   7.233  1.1937 -0.0819  0.1845
  176SAPI   C3620073  -0.086   6.060   7.268  0.1009  0.4041 -0.4572
  176SAPI   H6X20074  -0.001   6.061   7.196 -1.0153 -0.0455 -1.8126
  176SAPI   H6Y20075  -0.125   5.957   7.280  0.1843  0.4898  0.6865
  176SAPI   C3720076  -0.041   6.066   7.418 -0.0197 -0.2460 -0.5951
  176SAPI   H7X20077   0.031   5.986   7.447 -0.4242 -0.4248 -0.0665
  176SAPI   H7Y20078  -0.128   6.068   7.488  1.2214  0.7959  1.0263
  176SAPI   C3820079   0.042   6.193   7.442 -0.2878 -0.1515 -0.2314
  176SAPI   H8X20080  -0.014   6.288   7.429  0.5234  0.4108  0.3135
  176SAPI   H8Y20081   0.139   6.203   7.388 -0.3310 -1.3094 -0.5517
  176SAPI   C3920082   0.068   6.208   7.592  0.6687  0.4794 -0.7145
  176SAPI   H9X20083   0.144   6.132   7.618  1.2827  0.8339 -1.4362
  176SAPI   H9Y20084  -0.024   6.191   7.652  0.2561  0.7989 -1.2465
  176SAPI  C31020085   0.135   6.338   7.640  0.5003  0.0858  0.0143
  176SAPI  H10X20086   0.063   6.422   7.632  0.3045  0.1129  1.8221
  176SAPI  H10Y20087   0.214   6.370   7.568  0.0395  4.5507  1.1503
  176SAPI  C31120088   0.184   6.334   7.780 -0.1431  0.3532  0.8433
  176SAPI  H11X20089   0.267   6.260   7.781 -0.7067 -0.4031 -1.5251
  176SAPI  H11Y20090   0.116   6.276   7.846  1.2092 -2.1868  0.1254
  176SAPI  C31220091   0.217   6.472   7.832 -0.7234 -0.8244 -0.2105
  176SAPI  H12X20092   0.235   6.459   7.941  0.0888 -2.7552 -0.5297
  176SAPI  H12Y20093   0.122   6.524   7.807 -1.1730 -1.2833  0.5188
  176SAPI  C31320094   0.347   6.524   7.761  1.2171 -0.1678  0.2403
  176SAPI  H13X20095   0.323   6.532   7.653 -1.1814 -0.1573  0.7161
  176SAPI  H13Y20096   0.425   6.445   7.770  1.5547  0.1378  0.0013
  176SAPI  C31420097   0.396   6.655   7.818  0.0315  0.0559 -0.0043
  176SAPI  H14X20098   0.386   6.639   7.928 -3.5543 -0.5084 -0.3034
  176SAPI  H14Y20099   0.331   6.738   7.784  0.1392 -0.7730 -2.4163
  176SAPI  C31520100   0.537   6.681   7.776 -0.1940  0.9397  0.6572
  176SAPI  H15X20101   0.595   6.594   7.813  0.9554  0.6198 -1.7299
  176SAPI  H15Y20102   0.589   6.769   7.819  0.6906  1.1699 -0.8243
  176SAPI  C31620103   0.558   6.673   7.622 -0.1462  0.1801 -0.4499
  176SAPI  H16X20104   0.459   6.703   7.581 -1.2095  0.4321  2.1097
  176SAPI  H16Y20105   0.558   6.565   7.597 -1.9578 -0.2338  1.0908
  176SAPI  C31720106   0.661   6.771   7.558 -0.2559  0.5714 -0.3394
  176SAPI  H17X20107   0.682   6.742   7.452 -2.0085 -0.9724 -0.3118
  176SAPI  H17Y20108   0.752   6.781   7.621  1.0610 -0.9450 -1.8805
  176SAPI  C31820109   0.610   6.916   7.549 -0.7372  0.3028 -0.1536
  176SAPI  H18X20110   0.526   6.928   7.477 -0.3381  2.0563 -0.3527
  176SAPI  H18Y20111   0.693   6.974   7.503  0.2416  0.1967  1.4101
  176SAPI  H18Z20112   0.591   6.959   7.649  1.1764 -1.0214  0.8331
  177SLPC     N20113   5.924   3.599  10.942  0.3569  0.3793 -0.8473
  177SLPC   C1320114   5.828   3.585  10.822 -0.0055  0.1388  0.3029
  177SLPC  H13A20115   5.880   3.589  10.727 -2.1299  3.3156 -0.8914
  177SLPC  H13B20116   5.769   3.495  10.836 -1.3153  0.9519  0.1487
  177SLPC  H13C20117   5.754   3.663  10.816 -0.3088 -0.2344 -1.0092
  177SLPC   C1420118   6.016   3.479  10.948 -0.1744 -0.1433  0.5351
  177SLPC  H14A20119   5.971   3.383  10.927  2.3449 -0.8376 -2.4822
  177SLPC  H14B20120   6.090   3.488  10.871 -0.2623 -0.6475  0.3881
  177SLPC  H14C20121   6.066   3.472  11.044  0.8100 -0.3307  0.0136
  177SLPC   C1520122   5.837   3.612  11.066 -0.0909 -0.1018 -0.1632
  177SLPC  H15A20123   5.763   3.690  11.051  0.8131  0.8367  0.1300
  177SLPC  H15B20124   5.783   3.522  11.093  1.1491 -0.8285 -0.0462
  177SLPC  H15C20125   5.895   3.634  11.155  1.1310 -2.0361 -0.4219
  177SLPC   C1220126   6.017   3.725  10.923 -0.5961  0.2044 -0.9400
  177SLPC  H12A20127   5.949   3.808  10.912 -1.6539 -0.7552 -2.0183
  177SLPC  H12B20128   6.057   3.721  10.823 -1.1850  1.8956 -1.2740
  177SLPC   C1120129   6.135   3.748  11.011  0.2076  0.6948 -0.3348
  177SLPC  H11A20130   6.092   3.734  11.112 -0.9902 -2.4439 -1.1750
  177SLPC  H11B20131   6.164   3.854  10.994 -1.0170  0.5718 -4.1773
  177SLPC     P20132   6.383   3.689  10.951  0.5346 -0.1387  0.3691
  177SLPC   O1320133   6.459   3.686  11.079  0.1309  0.1966 -0.2389
  177SLPC   O1420134   6.437   3.612  10.834 -0.1916  0.2034  0.0403
  177SLPC   O1220135   6.232   3.651  10.983 -0.8156 -1.2750 -0.1527
  177SLPC   O1120136   6.384   3.836  10.903  0.3715  0.0388  0.2484
  177SLPC    C120137   6.366   3.871  10.761  0.1344 -0.2714  0.3378
  177SLPC    HA20138   6.299   3.802  10.705  0.1258 -0.0005  0.0171
  177SLPC    HB20139   6.317   3.971  10.766  2.2126  0.7338  1.7372
  177SLPC    C220140   6.502   3.871  10.692  0.4713 -0.5037 -0.5710
  177SLPC    HS20141   6.546   3.769  10.705  2.1230  0.3845  1.5273
  177SLPC   O2120142   6.583   3.975  10.764 -0.1288  0.2267 -0.1401
  177SLPC   C2120143   6.713   3.950  10.769  0.4829  0.3911 -0.3692
  177SLPC   O2220144   6.765   3.853  10.724 -0.1666 -0.2098 -0.0173
  177SLPC   C2220145   6.779   4.065  10.846 -0.7570 -1.0626  0.0096
  177SLPC   H2R20146   6.700   4.138  10.875  0.1098  0.2509 -0.8079
  177SLPC   H2S20147   6.828   4.029  10.939 -1.1282 -2.5209 -0.3317
  177SLPC    C320148   6.500   3.890  10.540  0.0672 -0.9905  0.5402
  177SLPC    HX20149   6.478   3.997  10.524  3.0166 -0.7413 -3.5343
  177SLPC    HY20150   6.416   3.825  10.505 -0.0593  0.6051 -2.5030
  177SLPC   O3120151   6.619   3.856  10.464  1.5052  0.6062  0.6065
  177SLPC   C3120152   6.625   3.906  10.345 -0.9645 -0.1234  0.3169
  177SLPC   O3220153   6.540   3.954  10.275  0.2811  0.0463  0.2998
  177SLPC   C3220154   6.774   3.879  10.301 -0.2444 -0.7921  0.8400
  177SLPC   H2X20155   6.782   3.769  10.288 -0.1226 -0.9616  2.1801
  177SLPC   H2Y20156   6.839   3.911  10.385  1.3688  0.3673 -0.7764
  177SLPC   C2320157   6.887   4.133  10.757  0.5172  0.0099 -0.2384
  177SLPC   H3R20158   6.961   4.057  10.725  0.2684  0.4269 -1.8939
  177SLPC   H3S20159   6.936   4.199  10.832  0.2360 -0.5082  0.4092
  177SLPC   C2420160   6.831   4.205  10.630  0.4021 -0.6337 -0.0897
  177SLPC   H4R20161   6.746   4.145  10.591 -0.5826  1.0662 -0.6983
  177SLPC   H4S20162   6.910   4.211  10.553 -0.8473  0.5519 -1.3397
  177SLPC   C2520163   6.773   4.345  10.643  0.1714  0.0218 -0.1817
  177SLPC   H5R20164   6.860   4.412  10.657  2.1547 -2.2403 -1.1682
  177SLPC   H5S20165   6.700   4.359  10.726  0.7734  0.7065  0.2426
  177SLPC   C2620166   6.696   4.392  10.516  0.6245  0.1769  0.6936
  177SLPC   H6R20167   6.612   4.319  10.515  1.9370 -1.6159 -3.3764
  177SLPC   H6S20168   6.744   4.369  10.418  0.3534 -0.8770  0.7919
  177SLPC   C2720169   6.660   4.545  10.526 -0.0167 -0.0546  0.6633
  177SLPC   H7R20170   6.752   4.608  10.535  0.3682 -0.4621 -0.3065
  177SLPC   H7S20171   6.605   4.558  10.622  1.8121 -0.6131  1.8594
  177SLPC   C2820172   6.561   4.583  10.412 -0.2614  0.0790  0.6790
  177SLPC   H8R20173   6.471   4.524  10.438 -0.2347  0.0711  0.7562
  177SLPC   H8S20174   6.608   4.549  10.318  0.9089  0.9644  0.9086
  177SLPC   C2920175   6.530   4.730  10.417  0.6819 -0.3940  1.1506
  177SLPC   H9R20176   6.511   4.787  10.509 -0.3996  3.0363 -1.0124
  177SLPC  C21020177   6.522   4.801  10.304 -0.0299 -0.1846 -0.6458
  177SLPC  H10R20178   6.497   4.907  10.320 -0.1014 -0.2578 -0.2706
  177SLPC  C21120179   6.536   4.746  10.164 -0.1597  0.7913 -0.6914
  177SLPC  H11R20180   6.633   4.695  10.147  0.1112  0.7231  0.9247
  177SLPC  H11S20181   6.469   4.659  10.147 -0.6792  0.2610  3.2046
  177SLPC  C21220182   6.534   4.854  10.057 -0.7372  0.2797  0.2436
  177SLPC  H12R20183   6.571   4.951  10.093  0.3732 -0.2685  0.6036
  177SLPC  C21320184   6.500   4.840   9.928 -0.9388  0.1065  0.4103
  177SLPC  H13R20185   6.529   4.920   9.859  1.9457  0.0608  1.4659
  177SLPC  C21420186   6.451   4.724   9.851  0.3647 -0.0577 -0.5927
  177SLPC  H14R20187   6.345   4.727   9.821  0.3550 -0.7779 -0.6725
  177SLPC  H14S20188   6.472   4.632   9.910  0.0347  0.2724  0.0468
  177SLPC  C21520189   6.547   4.716   9.726  0.5909  0.5778 -0.6125
  177SLPC  H15R20190   6.567   4.608   9.712 -0.4204 -0.0292  1.9656
  177SLPC  H15S20191   6.648   4.754   9.751  0.8846 -0.6058  0.0616
  177SLPC  C21620192   6.482   4.758   9.598 -0.3411 -0.5583  0.6705
  177SLPC  H16R20193   6.450   4.864   9.594  2.3742  0.2764 -2.0417
  177SLPC  H16S20194   6.384   4.706   9.593 -1.2528  1.1769 -0.5896
  177SLPC  C21720195   6.580   4.738   9.485  1.1515 -0.9092 -0.2473
  177SLPC  H17R20196   6.540   4.725   9.382  0.4291  0.1298 -0.1077
  177SLPC  H17S20197   6.631   4.641   9.506 -1.6659 -1.9721  2.4645
  177SLPC  C21820198   6.680   4.861   9.478 -0.2475 -0.1326 -0.1761
  177SLPC  H18R20199   6.645   4.950   9.421 -0.7604 -1.3443 -1.8516
  177SLPC  H18S20200   6.775   4.839   9.423 -0.3970  2.1300 -1.4789
  177SLPC  H18T20201   6.715   4.890   9.579 -3.3227  1.0643  0.6301
  177SLPC   C3320202   6.828   3.967  10.177 -0.1469  0.6381 -0.7350
  177SLPC   H3X20203   6.764   3.939  10.090  0.3468  0.8137 -1.1593
  177SLPC   H3Y20204   6.929   3.930  10.150 -0.6949 -2.1653  0.6671
  177SLPC   C3420205   6.829   4.117  10.216  0.1483 -0.6988 -0.5284
  177SLPC   H4X20206   6.886   4.122  10.310 -0.7947 -0.1491  0.0294
  177SLPC   H4Y20207   6.727   4.154  10.242 -0.2519 -1.1221 -1.4317
  177SLPC   C3520208   6.894   4.200  10.117 -0.4151  0.5726  0.3080
  177SLPC   H5X20209   6.861   4.161  10.019 -1.0862  3.6097 -0.7512
  177SLPC   H5Y20210   7.002   4.173  10.127 -0.3189  1.0944  0.7857
  177SLPC   C3620211   6.861   4.343  10.129  0.2399 -0.1629 -0.0978
  177SLPC   H6X20212   6.893   4.382  10.228 -1.4887  0.9287  0.0719
  177SLPC   H6Y20213   6.752   4.364  10.139 -0.1027 -1.9259  0.1742
  177SLPC   C3720214   6.930   4.433  10.024 -0.3970  0.2918 -0.1037
  177SLPC   H7X20215   7.030   4.392  10.002 -0.6023 -0.2019 -0.1314
  177SLPC   H7Y20216   6.951   4.532  10.071  1.5123  0.4441 -1.1597
  177SLPC   C3820217   6.841   4.458   9.899 -0.0417  0.5975 -0.2839
  177SLPC   H8X20218   6.735   4.474   9.929 -0.0419  0.1078 -0.0157
  177SLPC   H8Y20219   6.848   4.363   9.843 -0.7444 -0.0741  0.7340
  177SLPC   C3920220   6.891   4.575   9.815  0.2383  0.0778  0.0687
  177SLPC   H9X20221   6.974   4.631   9.863  0.6617 -1.0135  0.6489
  177SLPC   H9Y20222   6.823   4.657   9.786  1.4648  1.3757  0.7657
  177SLPC  C31020223   6.939   4.532   9.672  0.7181  0.6255  0.1663
  177SLPC  H10X20224   6.859   4.491   9.607  1.5864 -1.3663  0.2840
  177SLPC  H10Y20225   6.995   4.439   9.693  0.5003  0.5376  0.3590
  177SLPC  C31120226   7.016   4.638   9.608 -0.2147 -1.1018  0.3059
  177SLPC  H11X20227   7.072   4.697   9.684 -3.2449  1.6764  0.5702
  177SLPC  H11Y20228   6.951   4.715   9.562 -0.6574 -1.8682 -0.3664
  177SLPC  C31220229   7.109   4.575   9.498  0.4070 -0.2888  0.7579
  177SLPC  H12X20230   7.184   4.511   9.549  2.9028  0.9008 -1.1919
  177SLPC  H12Y20231   7.160   4.659   9.447  1.7673 -0.8618  1.1433
  177SLPC  C31320232   7.033   4.497   9.392  0.2475  0.6478 -0.3424
  177SLPC  H13X20233   6.967   4.572   9.344 -0.6186  0.3824  0.4052
  177SLPC  H13Y20234   6.966   4.421   9.438  1.2452  0.9300  1.6998
  177SLPC  C31420235   7.118   4.413   9.286  0.4287 -0.4180  0.6168
  177SLPC  H14X20236   7.202   4.355   9.329  0.5395 -0.8583 -0.1798
  177SLPC  H14Y20237   7.172   4.491   9.229  3.4280 -3.0869 -0.4750
  177SLPC  C31520238   7.035   4.321   9.197 -0.0127  0.3706  0.1273
  177SLPC  H15X20239   6.932   4.361   9.187  0.0148  0.8273  1.5072
  177SLPC  H15Y20240   7.028   4.225   9.252  0.6853 -1.4408 -2.7146
  177SLPC  C31620241   7.099   4.290   9.058  0.0934 -0.2213 -0.6801
  177SLPC  H16X20242   7.170   4.204   9.066 -1.5096 -1.5626 -0.2050
  177SLPC  H16Y20243   7.162   4.372   9.018 -1.1423  0.7131 -0.7537
  177SLPC  C31720244   7.009   4.252   8.943  1.1390  0.8321  0.1441
  177SLPC  H17X20245   6.938   4.334   8.924 -2.0722 -1.2979  1.9634
  177SLPC  H17Y20246   6.950   4.162   8.972 -0.2744  0.7221 -2.7164
  177SLPC  C31820247   7.094   4.224   8.820  0.2856 -0.1909 -0.2929
  177SLPC  H18X20248   7.031   4.203   8.731  0.2641 -1.5958  0.0208
  177SLPC  H18Y20249   7.156   4.134   8.842  0.6716 -0.0578 -0.8377
  177SLPC  H18Z20250   7.148   4.317   8.795 -0.9812  0.9461  0.9894
  178SLPC     N20251   1.870   0.454  10.820 -0.8609 -0.2180 -0.2205
  178SLPC   C1320252   1.774   0.471  10.705 -0.0089  0.3746  0.0229
  178SLPC  H13A20253   1.772   0.575  10.675 -0.8587  0.4861  0.4113
  178SLPC  H13B20254   1.800   0.395  10.633 -0.7251 -0.3451  0.5002
  178SLPC  H13C20255   1.670   0.452  10.728  0.2064 -0.6059  0.2232
  178SLPC   C1420256   1.834   0.562  10.919 -0.7920  0.3043  0.2159
  178SLPC  H14A20257   1.840   0.653  10.861 -0.5323 -0.8676 -1.7060
  178SLPC  H14B20258   1.736   0.552  10.963  0.1102 -0.8720  2.0555
  178SLPC  H14C20259   1.899   0.566  11.005 -0.4741  1.4353 -0.0580
  178SLPC   C1520260   2.010   0.462  10.782  0.2877 -0.0664 -0.6488
  178SLPC  H15A20261   2.044   0.556  10.740  0.7687  1.1947  2.2786
  178SLPC  H15B20262   2.075   0.448  10.867 -1.6514  1.4813  1.1958
  178SLPC  H15C20263   2.029   0.387  10.707  2.9025 -0.1425  0.0101
  178SLPC   C1220264   1.849   0.317  10.884 -0.0237 -0.0880  0.0829
  178SLPC  H12A20265   1.752   0.328  10.930  0.4635 -0.6255  1.2794
  178SLPC  H12B20266   1.921   0.295  10.961 -0.1116  0.6203  0.3678
  178SLPC   C1120267   1.849   0.191  10.792 -0.4595 -0.4493 -0.0853
  178SLPC  H11A20268   1.870   0.116  10.871 -1.3866  0.5400  1.1464
  178SLPC  H11B20269   1.945   0.193  10.736 -0.0654  1.8179  0.5699
  178SLPC     P20270   1.594   0.132  10.797 -0.1607  0.3637 -0.7257
  178SLPC   O1320271   1.611   0.012  10.882 -0.4137 -0.0535 -0.4038
  178SLPC   O1420272   1.540   0.256  10.857  0.0664  0.2187  0.4732
  178SLPC   O1220273   1.728   0.167  10.723 -0.5653  0.0780  0.3089
  178SLPC   O1120274   1.508   0.099  10.674  0.1711 -0.0068  0.4516
  178SLPC    C120275   1.475   0.208  10.586  0.1992  0.2645  0.1717
  178SLPC    HA20276   1.377   0.184  10.541 -0.3035 -1.4845  2.0336
  178SLPC    HB20277   1.479   0.310  10.630  0.7714  1.0004 -1.4922
  178SLPC    C220278   1.574   0.218  10.463  1.2377  0.4601  0.0282
  178SLPC    HS20279   1.665   0.248  10.520  0.1979 -1.6349  3.0615
  178SLPC   O2120280   1.535   0.322  10.374  0.2221  0.1908  0.0459
  178SLPC   C2120281   1.627   0.367  10.293 -0.3077 -0.0959 -0.4048
  178SLPC   O2220282   1.734   0.310  10.276 -0.4211 -0.0505  0.1843
  178SLPC   C2220283   1.569   0.474  10.207 -0.2039  0.6428  0.4875
  178SLPC   H2R20284   1.491   0.420  10.150  1.6577 -0.5889 -0.9992
  178SLPC   H2S20285   1.523   0.555  10.267  0.1627  1.8755 -0.8473
  178SLPC    C320286   1.592   0.078  10.387 -0.4791  0.5694  0.1783
  178SLPC    HX20287   1.607  -0.005  10.459 -2.4095 -1.0153 -1.1244
  178SLPC    HY20288   1.687   0.073  10.329  1.4252 -1.6045  3.2005
  178SLPC   O3120289   1.475   0.051  10.298 -0.2171 -0.1988 -0.3611
  178SLPC   C3120290   1.399  -0.053  10.332 -0.8305 -0.7952  0.0048
  178SLPC   O3220291   1.421  -0.127  10.427  0.5385  0.3411  0.0197
  178SLPC   C3220292   1.278  -0.058  10.238  0.4692 -0.0859 -0.1037
  178SLPC   H2X20293   1.223   0.038  10.229 -1.2744 -1.1051 -0.8837
  178SLPC   H2Y20294   1.204  -0.135  10.270  1.2792 -1.1369 -0.6986
  178SLPC   C2320295   1.671   0.533  10.109  0.9391 -0.6558  0.7106
  178SLPC   H3R20296   1.731   0.446  10.075  1.1428 -1.6723  3.3832
  178SLPC   H3S20297   1.734   0.613  10.155  2.0766 -0.2285 -1.4659
  178SLPC   C2420298   1.590   0.595  10.000 -0.4016 -0.0833 -0.0969
  178SLPC   H4R20299   1.545   0.688  10.040 -1.6806 -0.8880  0.3843
  178SLPC   H4S20300   1.512   0.520   9.978  0.7676 -1.6199  0.8031
  178SLPC   C2520301   1.675   0.617   9.873 -1.1119  0.2127  0.5664
  178SLPC   H5R20302   1.736   0.527   9.856  1.4062  2.0955 -0.9667
  178SLPC   H5S20303   1.744   0.702   9.890 -3.4359  2.4260 -0.3357
  178SLPC   C2620304   1.605   0.658   9.733 -0.4028  0.2052 -0.4605
  178SLPC   H6R20305   1.528   0.737   9.746  0.1147  0.5339  0.6805
  178SLPC   H6S20306   1.553   0.564   9.706  1.8306 -2.9053  4.5762
  178SLPC   C2720307   1.700   0.688   9.617  0.2161 -0.3449 -0.2914
  178SLPC   H7R20308   1.744   0.589   9.594 -2.3783 -1.3628 -1.2978
  178SLPC   H7S20309   1.771   0.764   9.655 -1.4640  0.6529  0.9888
  178SLPC   C2820310   1.618   0.753   9.500 -0.8175  0.3931  0.3805
  178SLPC   H8R20311   1.568   0.847   9.533 -0.8234 -0.0717  1.7457
  178SLPC   H8S20312   1.541   0.676   9.477 -0.0249 -0.0630 -0.8633
  178SLPC   C2920313   1.717   0.765   9.382  0.1616  0.0926 -0.3474
  178SLPC   H9R20314   1.742   0.673   9.328  0.2106  0.0699 -0.2857
  178SLPC  C21020315   1.765   0.879   9.342 -0.0333 -0.6871 -0.2072
  178SLPC  H10R20316   1.843   0.875   9.264 -2.4582 -1.1077 -2.8051
  178SLPC  C21120317   1.734   1.012   9.407  0.0609 -0.1880 -0.2348
  178SLPC  H11R20318   1.778   1.009   9.510 -2.3038 -3.3749  0.8343
  178SLPC  H11S20319   1.627   1.020   9.434  0.2981  1.7657  0.2332
  178SLPC  C21220320   1.761   1.142   9.334 -0.5937 -0.2458 -0.1658
  178SLPC  H12R20321   1.814   1.216   9.395 -0.5996  0.8158 -1.3903
  178SLPC  C21320322   1.723   1.180   9.209 -0.2833 -0.5036  0.1740
  178SLPC  H13R20323   1.737   1.280   9.167  0.3640 -1.0968 -1.0675
  178SLPC  C21420324   1.644   1.101   9.103  0.0596 -0.1750  0.7959
  178SLPC  H14R20325   1.540   1.138   9.093 -0.1056 -0.8679 -0.2002
  178SLPC  H14S20326   1.642   0.992   9.127 -0.2705  0.0464  1.8157
  178SLPC  C21520327   1.701   1.136   8.961 -0.0712  0.2796  0.5854
  178SLPC  H15R20328   1.709   1.246   8.949  2.6981  0.2078  0.9509
  178SLPC  H15S20329   1.620   1.104   8.892 -0.0718  0.9032  0.2866
  178SLPC  C21620330   1.845   1.076   8.915  0.2803 -0.3146 -0.0954
  178SLPC  H16R20331   1.824   0.969   8.892  0.7960 -0.3902 -0.2279
  178SLPC  H16S20332   1.919   1.081   8.998  2.8335 -2.0338 -2.0838
  178SLPC  C21720333   1.904   1.154   8.790  0.4239 -0.1484  0.0105
  178SLPC  H17R20334   2.004   1.115   8.760  1.5564  2.4254  0.1726
  178SLPC  H17S20335   1.925   1.258   8.821 -1.2562  0.0222  0.6715
  178SLPC  C21820336   1.817   1.150   8.664  0.5712  0.2906 -0.2132
  178SLPC  H18R20337   1.863   1.191   8.572  1.8771 -3.0555 -1.2034
  178SLPC  H18S20338   1.723   1.203   8.691  0.1195  0.7210 -2.4946
  178SLPC  H18T20339   1.784   1.048   8.635 -3.7074  1.5776 -0.4481
  178SLPC   C3320340   1.326  -0.084  10.098 -0.7768  0.3672 -0.0034
  178SLPC   H3X20341   1.394  -0.170  10.085  1.4150  2.1318 -0.9274
  178SLPC   H3Y20342   1.383  -0.003  10.048  2.2409 -2.0343 -0.7133
  178SLPC   C3420343   1.203  -0.105  10.009 -0.6682 -0.2892  0.1697
  178SLPC   H4X20344   1.123  -0.029  10.022 -0.6866 -0.3005  0.1232
  178SLPC   H4Y20345   1.154  -0.205  10.010 -0.4445 -0.4361 -1.6310
  178SLPC   C3520346   1.247  -0.096   9.859 -0.3255  0.4106 -0.0404
  178SLPC   H5X20347   1.322  -0.177   9.844 -1.8118 -1.1407  0.4451
  178SLPC   H5Y20348   1.294   0.003   9.844 -2.7035  1.8488  1.2389
  178SLPC   C3620349   1.122  -0.106   9.776  0.3861 -0.0296  0.9076
  178SLPC   H6X20350   1.056  -0.019   9.792 -0.2223 -0.3972  0.4319
  178SLPC   H6Y20351   1.064  -0.187   9.824 -1.4617 -0.1395 -1.3563
  178SLPC   C3720352   1.151  -0.146   9.630 -0.3655 -0.6628  0.5340
  178SLPC   H7X20353   1.227  -0.226   9.637  1.8027  1.2129 -0.3202
  178SLPC   H7Y20354   1.207  -0.065   9.579  3.1904 -2.1150  1.7848
  178SLPC   C3820355   1.033  -0.183   9.544 -0.3043  0.2587  0.5401
  178SLPC   H8X20356   0.978  -0.087   9.540 -0.2504  0.2563 -1.1813
  178SLPC   H8Y20357   0.977  -0.270   9.584 -0.2123 -0.2614 -0.4063
  178SLPC   C3920358   1.076  -0.218   9.397 -0.0002 -0.1320 -0.0606
  178SLPC   H9X20359   1.127  -0.317   9.402 -1.1534 -0.7041  0.9788
  178SLPC   H9Y20360   1.148  -0.141   9.362 -0.1013  0.0385  0.1051
  178SLPC  C31020361   0.961  -0.227   9.301  0.4561 -0.3271  0.0390
  178SLPC  H10X20362   0.925  -0.126   9.272  0.9294 -0.5691 -1.5334
  178SLPC  H10Y20363   0.873  -0.280   9.344 -0.5414  2.3405  1.4953
  178SLPC  C31120364   0.997  -0.299   9.171 -0.9383 -0.4322 -0.2862
  178SLPC  H11X20365   1.048  -0.396   9.191 -1.4809 -0.6550  0.0310
  178SLPC  H11Y20366   1.072  -0.240   9.113 -1.7413  1.0757  0.1550
  178SLPC  C31220367   0.873  -0.325   9.089 -0.1402 -0.2860  0.0525
  178SLPC  H12X20368   0.821  -0.229   9.069  0.4743 -0.1337 -0.8212
  178SLPC  H12Y20369   0.800  -0.378   9.155  1.2948 -0.7395  1.3331
  178SLPC  C31320370   0.884  -0.414   8.965  0.2157 -0.3007  0.2655
  178SLPC  H13X20371   0.788  -0.410   8.911  0.4768  2.4158 -0.1523
  178SLPC  H13Y20372   0.913  -0.516   9.000 -0.0840 -0.3632  0.3306
  178SLPC  C31420373   0.981  -0.355   8.860 -0.2880 -0.5524 -0.5279
  178SLPC  H14X20374   1.076  -0.337   8.914 -0.5139 -2.4644  0.5859
  178SLPC  H14Y20375   0.938  -0.258   8.827 -0.1577 -0.5007 -0.5462
  178SLPC  C31520376   1.009  -0.462   8.750  0.1727  0.5884 -0.0950
  178SLPC  H15X20377   1.104  -0.437   8.699  1.0616 -3.5926 -0.8803
  178SLPC  H15Y20378   1.029  -0.557   8.805 -0.1253  0.7722  0.3410
  178SLPC  C31620379   0.899  -0.472   8.643  0.8153 -0.5288  0.4571
  178SLPC  H16X20380   0.803  -0.511   8.683  0.8121 -1.9033 -0.8147
  178SLPC  H16Y20381   0.938  -0.542   8.567 -0.5042 -1.4112  0.5625
  178SLPC  C31720382   0.890  -0.339   8.564  0.2586  0.1055  0.2352
  178SLPC  H17X20383   0.916  -0.255   8.631 -1.8671  2.3621 -1.6222
  178SLPC  H17Y20384   0.782  -0.322   8.545  0.3602  0.2462 -0.2330
  178SLPC  C31820385   0.979  -0.323   8.440  0.4424 -0.1498 -0.4986
  178SLPC  H18X20386   0.927  -0.393   8.371  1.4067 -0.6421 -0.7493
  178SLPC  H18Y20387   1.083  -0.358   8.460  0.5969  0.0558 -0.9141
  178SLPC  H18Z20388   0.983  -0.219   8.401  0.9816 -0.3958 -1.1378
  179SLPC     N20389   3.448   3.238  10.711  0.7740 -0.1198 -0.1653
  179SLPC   C1320390   3.361   3.359  10.716 -0.1175  0.0166 -0.5650
  179SLPC  H13A20391   3.354   3.415  10.624 -0.0211  0.2235 -0.4466
  179SLPC  H13B20392   3.259   3.330  10.740 -0.2223  0.1946 -0.7924
  179SLPC  H13C20393   3.394   3.414  10.803 -0.3574 -1.1824  0.3248
  179SLPC   C1420394   3.463   3.199  10.847  0.0301  0.3020 -0.0765
  179SLPC  H14A20395   3.379   3.149  10.892  0.3950  0.2832  0.6047
  179SLPC  H14B20396   3.540   3.123  10.853 -1.9971 -1.8905 -0.5610
  179SLPC  H14C20397   3.495   3.276  10.916 -1.0839  2.1658 -1.5401
  179SLPC   C1520398   3.584   3.253  10.656  0.2949 -0.3154 -0.2570
  179SLPC  H15A20399   3.600   3.316  10.570  3.7832 -0.1713  0.3567
  179SLPC  H15B20400   3.654   3.285  10.732  0.4601  1.3908 -1.0870
  179SLPC  H15C20401   3.619   3.157  10.621 -0.2979 -0.3829 -0.6796
  179SLPC   C1220402   3.383   3.135  10.633  0.6723 -0.0167 -0.2123
  179SLPC  H12A20403   3.377   3.170  10.531 -3.0574 -1.8873 -0.7960
  179SLPC  H12B20404   3.280   3.129  10.666  1.2438 -1.4578  1.5003
  179SLPC   C1120405   3.439   2.990  10.630  0.2298 -0.4771 -0.6658
  179SLPC  H11A20406   3.375   2.916  10.576  1.4846 -1.0017 -1.4984
  179SLPC  H11B20407   3.452   2.955  10.734  1.7343  0.8857 -0.3537
  179SLPC     P20408   3.598   2.997  10.415 -0.2735 -0.4508 -0.1982
  179SLPC   O1320409   3.726   3.070  10.403 -0.0803  0.4090  0.0569
  179SLPC   O1420410   3.591   2.866  10.349 -0.0107 -1.0549 -0.0939
  179SLPC   O1220411   3.568   2.984  10.567  0.1526 -0.0526 -0.1925
  179SLPC   O1120412   3.488   3.094  10.369  0.4609  0.4499  0.3682
  179SLPC    C120413   3.367   3.040  10.311  0.3366 -0.5287 -0.3776
  179SLPC    HA20414   3.353   2.931  10.298  0.2480 -0.4509 -0.9441
  179SLPC    HB20415   3.281   3.070  10.375  0.9495 -0.1828  0.2940
  179SLPC    C220416   3.360   3.093  10.167 -0.8666 -0.7575  0.2118
  179SLPC    HS20417   3.261   3.071  10.122 -0.4077 -4.0611  0.5582
  179SLPC   O2120418   3.464   3.030  10.096 -0.4771  0.0688  0.5443
  179SLPC   C2120419   3.447   2.903  10.055 -0.0012  0.3668 -0.5873
  179SLPC   O2220420   3.341   2.842  10.054  0.0766 -0.7309  0.2372
  179SLPC   C2220421   3.580   2.850  10.004  0.5046 -0.1492 -0.0519
  179SLPC   H2R20422   3.662   2.901  10.059 -1.0074 -0.0922  2.2604
  179SLPC   H2S20423   3.600   2.741  10.018  0.0583 -0.1883  0.2830
  179SLPC    C320424   3.384   3.248  10.159 -0.0006  0.2015 -0.2099
  179SLPC    HX20425   3.490   3.261  10.189  0.2385 -0.3357 -0.8001
  179SLPC    HY20426   3.317   3.290  10.237 -0.1295 -0.3722 -0.0047
  179SLPC   O3120427   3.367   3.306  10.026 -0.1260 -0.2702  0.3204
  179SLPC   C3120428   3.306   3.425  10.018  0.0095 -0.3816 -0.4866
  179SLPC   O3220429   3.271   3.492  10.113 -0.5911  0.5745 -0.3377
  179SLPC   C3220430   3.312   3.469   9.878  0.2292 -0.4571 -0.0328
  179SLPC   H2X20431   3.316   3.386   9.804 -2.1105 -0.5749 -0.0951
  179SLPC   H2Y20432   3.404   3.531   9.873  1.1847 -1.6498  1.5009
  179SLPC   C2320433   3.595   2.881   9.853 -0.7525 -0.3879  0.4797
  179SLPC   H3R20434   3.703   2.893   9.832 -1.1209 -0.2170 -1.4778
  179SLPC   H3S20435   3.561   2.986   9.839 -1.7171 -0.3484  2.6225
  179SLPC   C2420436   3.528   2.787   9.756  0.1132 -0.3766  0.0549
  179SLPC   H4R20437   3.421   2.782   9.787  1.0792 -0.3368  4.0107
  179SLPC   H4S20438   3.579   2.689   9.756  2.6089  0.8281 -0.0323
  179SLPC   C2520439   3.541   2.833   9.610  0.9488 -0.4112 -0.0574
  179SLPC   H5R20440   3.650   2.851   9.594  0.9990  1.5132  1.9520
  179SLPC   H5S20441   3.477   2.924   9.602 -0.2037 -1.0439  1.4180
  179SLPC   C2620442   3.517   2.723   9.505  0.1853  0.4225 -0.3814
  179SLPC   H6R20443   3.422   2.667   9.513  0.6694 -0.3351  0.1166
  179SLPC   H6S20444   3.595   2.646   9.517  1.4736  1.9417  1.8117
  179SLPC   C2720445   3.525   2.784   9.357 -0.3341 -0.1785 -0.1309
  179SLPC   H7R20446   3.624   2.833   9.341  0.1966 -1.1035  0.2652
  179SLPC   H7S20447   3.462   2.876   9.363 -0.5359 -0.4194  2.1684
  179SLPC   C2820448   3.492   2.690   9.240 -0.5478 -0.2634  0.3268
  179SLPC   H8R20449   3.499   2.741   9.142  0.5030 -2.5164 -0.8579
  179SLPC   H8S20450   3.384   2.665   9.252 -0.5816  0.1428  0.8996
  179SLPC   C2920451   3.581   2.571   9.234  0.5059 -0.0693  0.4421
  179SLPC   H9R20452   3.636   2.549   9.326 -1.5920 -4.0227  0.9904
  179SLPC  C21020453   3.586   2.479   9.138 -0.4307  0.4542 -0.7226
  179SLPC  H10R20454   3.651   2.393   9.161 -1.1674  0.1448  0.2795
  179SLPC  C21120455   3.488   2.457   9.026  0.4200 -0.4061 -0.1631
  179SLPC  H11R20456   3.442   2.551   8.989 -1.7456 -1.2197  0.3260
  179SLPC  H11S20457   3.400   2.401   9.063 -0.9408  0.9423 -1.2373
  179SLPC  C21220458   3.561   2.388   8.916 -0.7079  0.7630 -0.0623
  179SLPC  H12R20459   3.565   2.278   8.922  0.7868  0.6024 -2.5961
  179SLPC  C21320460   3.604   2.440   8.798 -0.6690  0.5492 -1.0636
  179SLPC  H13R20461   3.654   2.364   8.737  0.5669 -2.2405  2.9782
  179SLPC  C21420462   3.611   2.580   8.755 -0.2527  0.2899 -0.3405
  179SLPC  H14R20463   3.511   2.622   8.781 -0.1257 -0.2611  1.1923
  179SLPC  H14S20464   3.618   2.572   8.645  0.0971  1.0349 -0.3807
  179SLPC  C21520465   3.713   2.672   8.827  0.7131  0.2854 -0.4428
  179SLPC  H15R20466   3.698   2.680   8.937  1.5884 -0.3057 -0.2767
  179SLPC  H15S20467   3.689   2.773   8.786 -1.6179  0.3657  0.9350
  179SLPC  C21620468   3.857   2.626   8.804 -0.1818  0.1067 -0.3433
  179SLPC  H16R20469   3.873   2.519   8.831  1.4701 -0.1675 -2.1355
  179SLPC  H16S20470   3.917   2.680   8.881 -1.3920  0.0418  0.6665
  179SLPC  C21720471   3.903   2.665   8.670 -0.8345  0.3135  0.9044
  179SLPC  H17R20472   3.863   2.766   8.648 -0.8160  0.1007 -0.1553
  179SLPC  H17S20473   3.877   2.594   8.588  2.3297  1.6069 -1.4142
  179SLPC  C21820474   4.051   2.669   8.641 -0.7200 -0.6191  0.7473
  179SLPC  H18R20475   4.103   2.743   8.704  0.5792 -0.2980 -0.6348
  179SLPC  H18S20476   4.065   2.709   8.538 -0.5243 -1.3586  0.4801
  179SLPC  H18T20477   4.098   2.569   8.651  0.5850 -0.0081  0.9166
  179SLPC   C3320478   3.186   3.548   9.832  0.1083 -0.2679 -0.6372
  179SLPC   H3X20479   3.183   3.634   9.901 -0.2209  3.5051 -4.8526
  179SLPC   H3Y20480   3.101   3.481   9.856 -0.6750  1.2756  1.0526
  179SLPC   C3420481   3.181   3.593   9.688  0.2487 -0.4188  0.7617
  179SLPC   H4X20482   3.246   3.678   9.662 -2.0244  0.8934 -1.0576
  179SLPC   H4Y20483   3.077   3.625   9.664 -0.1237 -0.5439  2.1006
  179SLPC   C3520484   3.200   3.477   9.584  0.3147  0.0195  1.2197
  179SLPC   H5X20485   3.309   3.460   9.597  0.8207  0.5978 -1.6273
  179SLPC   H5Y20486   3.184   3.524   9.484 -0.3987  0.0459  1.3364
  179SLPC   C3620487   3.122   3.346   9.589 -0.7063  0.5135 -0.3939
  179SLPC   H6X20488   3.017   3.347   9.627  0.1590 -0.0309  2.1870
  179SLPC   H6Y20489   3.172   3.280   9.662 -0.6674 -1.0175 -1.7308
  179SLPC   C3720490   3.131   3.266   9.454  0.8341  0.1995 -0.0184
  179SLPC   H7X20491   3.224   3.292   9.399  0.7513  0.3591 -0.0821
  179SLPC   H7Y20492   3.045   3.293   9.389  0.1257 -0.1755  0.7465
  179SLPC   C3820493   3.128   3.118   9.486 -0.0050  0.1868  0.0497
  179SLPC   H8X20494   3.053   3.104   9.566 -2.9254 -1.9287 -2.7699
  179SLPC   H8Y20495   3.224   3.082   9.530 -0.2807 -1.0135 -0.2960
  179SLPC   C3920496   3.091   3.032   9.366 -0.5025 -0.8404 -0.2148
  179SLPC   H9X20497   2.984   3.042   9.340 -0.7708  0.3165  1.2008
  179SLPC   H9Y20498   3.109   2.926   9.396 -0.2930 -0.4280  1.2082
  179SLPC  C31020499   3.168   3.061   9.239 -0.3745 -0.1661  0.0231
  179SLPC  H10X20500   3.276   3.053   9.262  0.5615  1.5215 -3.1644
  179SLPC  H10Y20501   3.156   3.160   9.190 -2.2774 -1.4040 -2.2292
  179SLPC  C31120502   3.146   2.953   9.133 -0.3318 -0.1091 -0.4822
  179SLPC  H11X20503   3.038   2.947   9.110 -0.6141 -0.0678  0.7755
  179SLPC  H11Y20504   3.167   2.861   9.192  3.4290  1.2851  0.6755
  179SLPC  C31220505   3.262   2.939   9.034 -0.0087  0.5049  0.0960
  179SLPC  H12X20506   3.275   2.837   8.993  5.0072  1.6762 -1.9444
  179SLPC  H12Y20507   3.354   2.972   9.086  1.0559 -0.1324 -1.3310
  179SLPC  C31320508   3.247   3.026   8.904  0.1857  0.7346 -0.0919
  179SLPC  H13X20509   3.193   3.120   8.929 -0.4938 -0.1322  1.9377
  179SLPC  H13Y20510   3.179   2.969   8.838  0.7334  0.1078 -0.1236
  179SLPC  C31420511   3.369   3.068   8.831  0.1949  0.0707  0.1814
  179SLPC  H14X20512   3.426   3.142   8.890  2.4600 -2.4232  1.3157
  179SLPC  H14Y20513   3.314   3.120   8.749  1.5699 -0.1833 -0.9491
  179SLPC  C31520514   3.445   2.952   8.774 -1.2853  0.4552 -0.0287
  179SLPC  H15X20515   3.367   2.875   8.761 -0.9810 -0.5728  3.2431
  179SLPC  H15Y20516   3.512   2.915   8.855 -1.7503  2.5867  1.4339
  179SLPC  C31620517   3.493   2.980   8.633 -0.1056  0.0003 -0.7922
  179SLPC  H16X20518   3.592   3.030   8.640 -0.2457  0.3956 -1.5291
  179SLPC  H16Y20519   3.425   3.056   8.588 -2.5861 -1.9042 -0.4462
  179SLPC  C31720520   3.522   2.849   8.547  0.7034  0.6625 -0.6494
  179SLPC  H17X20521   3.433   2.783   8.555 -0.1570  1.9380  0.8964
  179SLPC  H17Y20522   3.619   2.805   8.578  1.4814 -0.2764 -3.9783
  179SLPC  C31820523   3.532   2.869   8.397 -0.1956  0.0765 -0.3122
  179SLPC  H18X20524   3.446   2.922   8.351  0.1439  1.3961  0.5350
  179SLPC  H18Y20525   3.552   2.777   8.338  0.4562  1.1293 -1.7743
  179SLPC  H18Z20526   3.615   2.942   8.386 -1.4984  1.4943 -1.0281
  180SLPC     N20527   5.108   0.770  10.870 -0.2009 -0.3176  0.0759
  180SLPC   C1320528   5.113   0.648  10.959  0.3215  0.1806 -0.1025
  180SLPC  H13A20529   5.208   0.598  10.966 -0.6942 -1.8707 -0.2886
  180SLPC  H13B20530   5.093   0.688  11.058  0.9319  2.9693 -1.0030
  180SLPC  H13C20531   5.028   0.582  10.955 -1.4343  2.1859  1.2931
  180SLPC   C1420532   5.158   0.738  10.736  0.3072 -0.5131 -0.4488
  180SLPC  H14A20533   5.096   0.665  10.687 -0.2526  0.7686 -1.7273
  180SLPC  H14B20534   5.146   0.828  10.677 -2.0222  0.7935  1.7926
  180SLPC  H14C20535   5.250   0.682  10.747 -0.0092 -2.3384 -5.0636
  180SLPC   C1520536   5.208   0.872  10.928 -0.5254 -0.0933 -0.0013
  180SLPC  H15A20537   5.306   0.828  10.937 -0.5095  0.2363  1.9960
  180SLPC  H15B20538   5.215   0.953  10.857  0.9661 -2.1526 -2.3673
  180SLPC  H15C20539   5.178   0.904  11.027 -0.3099  0.3292 -0.0717
  180SLPC   C1220540   4.962   0.822  10.869  0.1865 -0.6224  0.6235
  180SLPC  H12A20541   4.961   0.920  10.824  0.8370 -1.0922 -0.4629
  180SLPC  H12B20542   4.926   0.836  10.969  1.6421  0.4732  1.0200
  180SLPC   C1120543   4.861   0.743  10.780  0.0572  0.8175  1.0232
  180SLPC  H11A20544   4.868   0.640  10.821  0.6524 -0.2944 -1.7107
  180SLPC  H11B20545   4.909   0.742  10.680  1.2099 -0.7558  1.5590
  180SLPC     P20546   4.683   0.910  10.702 -0.1102  0.0602 -0.0760
  180SLPC   O1320547   4.539   0.939  10.730  0.1946 -0.7119 -0.2381
  180SLPC   O1420548   4.777   1.023  10.722  0.4278  0.1206 -0.7811
  180SLPC   O1220549   4.722   0.802  10.805 -0.2402  0.5590  0.5674
  180SLPC   O1120550   4.702   0.851  10.565  0.6784  0.0144 -0.1060
  180SLPC    C120551   4.619   0.749  10.500  0.5906 -0.5340  0.9547
  180SLPC    HA20552   4.606   0.659  10.565 -1.8035 -0.0393  1.2587
  180SLPC    HB20553   4.523   0.798  10.475 -0.0049 -0.1110  3.7247
  180SLPC    C220554   4.691   0.706  10.372 -0.0303  0.4328  0.1863
  180SLPC    HS20555   4.793   0.685  10.408 -0.3698  1.7425  2.0023
  180SLPC   O2120556   4.696   0.817  10.271  0.7157  0.1998  0.7846
  180SLPC   C2120557   4.809   0.855  10.232  0.4699 -0.2481  0.3313
  180SLPC   O2220558   4.917   0.821  10.271 -0.3697  0.1185 -0.2737
  180SLPC   C2220559   4.787   0.955  10.113 -0.4269 -0.1026  0.0834
  180SLPC   H2R20560   4.684   0.940  10.073 -0.6907 -2.0805  1.4023
  180SLPC   H2S20561   4.788   1.053  10.166  0.9664 -0.0088 -0.0966
  180SLPC    C320562   4.626   0.569  10.329  0.1627  0.1349 -0.3269
  180SLPC    HX20563   4.525   0.571  10.282  0.5743  1.6483 -1.2511
  180SLPC    HY20564   4.609   0.506  10.419  0.6333 -2.2361 -1.7987
  180SLPC   O3120565   4.719   0.506  10.230  0.1102 -0.0445  0.0261
  180SLPC   C3120566   4.707   0.371  10.218  0.2596 -0.8997 -0.2671
  180SLPC   O3220567   4.654   0.292  10.291  0.2281  0.1747  0.6530
  180SLPC   C3220568   4.774   0.317  10.082 -0.4157 -0.0468  0.7985
  180SLPC   H2X20569   4.866   0.376  10.061 -0.6870  0.1468  0.1385
  180SLPC   H2Y20570   4.714   0.340   9.992  2.5452 -0.8783 -1.5486
  180SLPC   C2320571   4.895   0.968  10.006  0.2660  0.5258  0.8348
  180SLPC   H3R20572   4.995   0.956  10.052  1.5146  2.9357 -1.0142
  180SLPC   H3S20573   4.897   1.064   9.950  1.1659  0.0520  0.0076
  180SLPC   C2420574   4.875   0.866   9.889  0.0989 -0.1278 -0.4595
  180SLPC   H4R20575   4.943   0.908   9.812 -0.6003  0.4574 -0.7644
  180SLPC   H4S20576   4.770   0.866   9.853 -0.3938 -1.0607  0.9030
  180SLPC   C2520577   4.919   0.728   9.924  0.0863  0.5413  0.9041
  180SLPC   H5R20578   4.869   0.674  10.007  0.0477  0.0465  0.5673
  180SLPC   H5S20579   5.024   0.753   9.948  0.2466 -0.6801  1.5400
  180SLPC   C2620580   4.911   0.631   9.803 -0.1807  0.7330 -0.1187
  180SLPC   H6R20581   4.805   0.620   9.770 -0.1785  0.1509  0.0543
  180SLPC   H6S20582   4.949   0.530   9.831 -1.3432  0.5687  0.9564
  180SLPC   C2720583   4.979   0.688   9.673  0.0690  0.0084 -0.6272
  180SLPC   H7R20584   5.084   0.712   9.700 -0.3088 -0.6559  1.6422
  180SLPC   H7S20585   4.926   0.778   9.636 -0.3112 -0.8185 -2.2332
  180SLPC   C2820586   4.978   0.584   9.566 -0.2625 -0.3761 -0.0015
  180SLPC   H8R20587   5.026   0.635   9.479 -0.1611  0.6395  0.6459
  180SLPC   H8S20588   4.874   0.578   9.527  0.1770  1.8843 -1.7523
  180SLPC   C2920589   5.061   0.459   9.593  0.2956  0.1827 -0.4626
  180SLPC   H9R20590   5.164   0.474   9.628  0.4756  1.3019 -1.4234
  180SLPC  C21020591   5.014   0.337   9.579  1.0931 -0.7471 -0.7172
  180SLPC  H10R20592   5.073   0.249   9.606 -1.6950 -3.1750 -1.9413
  180SLPC  C21120593   4.871   0.294   9.540 -0.9503 -0.0362 -0.1921
  180SLPC  H11R20594   4.811   0.388   9.533 -0.0412  0.5858  0.1767
  180SLPC  H11S20595   4.826   0.241   9.626  0.4792 -0.3172  0.4051
  180SLPC  C21220596   4.854   0.212   9.419  0.0040 -0.7469 -0.0932
  180SLPC  H12R20597   4.826   0.108   9.442  0.0632 -0.8965 -0.6849
  180SLPC  C21320598   4.842   0.248   9.292  0.0583 -0.1620  0.2366
  180SLPC  H13R20599   4.831   0.174   9.212 -0.8572  0.6465 -0.4054
  180SLPC  C21420600   4.852   0.390   9.244  0.7139 -0.0874  0.3415
  180SLPC  H14R20601   4.800   0.467   9.304  0.4123  1.1321 -1.4116
  180SLPC  H14S20602   4.809   0.399   9.142  0.5126  1.4868  0.5386
  180SLPC  C21520603   5.007   0.420   9.222 -0.1421  0.5586 -0.8299
  180SLPC  H15R20604   5.063   0.333   9.182 -2.6188 -0.2200 -2.8512
  180SLPC  H15S20605   5.047   0.437   9.324 -2.3753 -1.5855  0.5129
  180SLPC  C21620606   5.030   0.539   9.140 -0.0591 -0.7417 -0.3877
  180SLPC  H16R20607   4.962   0.624   9.166  0.3541  0.5626 -3.2361
  180SLPC  H16S20608   5.010   0.518   9.033 -1.3440  3.0103 -1.0280
  180SLPC  C21720609   5.173   0.579   9.147 -0.6017  0.6025  0.7577
  180SLPC  H17R20610   5.231   0.495   9.102  2.6193  0.9154  3.8313
  180SLPC  H17S20611   5.201   0.586   9.254  0.3665 -0.7745  0.6285
  180SLPC  C21820612   5.228   0.709   9.083 -0.5497  0.2070 -0.0276
  180SLPC  H18R20613   5.197   0.801   9.139 -1.9430  0.0065 -0.4290
  180SLPC  H18S20614   5.197   0.725   8.977 -1.3501  1.3699  0.3541
  180SLPC  H18T20615   5.338   0.697   9.082 -0.7876 -2.5302 -0.7601
  180SLPC   C3320616   4.802   0.165  10.085 -0.3687  0.4404 -0.2100
  180SLPC   H3X20617   4.723   0.102  10.131 -0.1022  0.6177  0.5181
  180SLPC   H3Y20618   4.881   0.148  10.162 -0.7370  1.2494  0.3604
  180SLPC   C3420619   4.841   0.121   9.946  0.6826 -0.1161 -0.8645
  180SLPC   H4X20620   4.902   0.192   9.886  2.7513  0.0293  1.2463
  180SLPC   H4Y20621   4.747   0.101   9.890  0.1905  1.6507 -0.7357
  180SLPC   C3520622   4.912  -0.011   9.950 -0.1188  0.1462 -0.5227
  180SLPC   H5X20623   4.834  -0.086   9.975  0.7356 -1.0817 -1.4115
  180SLPC   H5Y20624   4.981  -0.004  10.037  0.8871  0.2811 -1.3173
  180SLPC   C3620625   4.995  -0.040   9.829 -0.4036  0.6652  0.5726
  180SLPC   H6X20626   5.081  -0.102   9.860  1.0998  2.1930 -0.3305
  180SLPC   H6Y20627   5.040   0.055   9.791 -0.1417 -0.3056 -1.6810
  180SLPC   C3720628   4.911  -0.085   9.708 -0.1414 -0.2505  0.8735
  180SLPC   H7X20629   4.886   0.007   9.652 -0.8028 -1.3964 -0.8078
  180SLPC   H7Y20630   4.825  -0.147   9.740 -2.9304  2.1441 -1.3871
  180SLPC   C3820631   4.983  -0.167   9.598  0.0523 -0.1932 -0.3614
  180SLPC   H8X20632   4.912  -0.179   9.513  0.0603  1.3572 -0.6116
  180SLPC   H8Y20633   5.020  -0.266   9.632 -1.6873 -0.1681  1.8282
  180SLPC   C3920634   5.106  -0.096   9.546 -0.4029 -0.2703  0.0756
  180SLPC   H9X20635   5.201  -0.128   9.594  1.0723  3.1719 -0.2583
  180SLPC   H9Y20636   5.115   0.014   9.557 -1.5476 -0.3349  2.0173
  180SLPC  C31020637   5.138  -0.133   9.401  0.3665 -0.1363 -0.3267
  180SLPC  H10X20638   5.154  -0.243   9.395  2.3941  0.1711 -1.0040
  180SLPC  H10Y20639   5.239  -0.093   9.376  1.0996 -0.9830  1.1723
  180SLPC  C31120640   5.044  -0.091   9.287 -0.4843  0.3145  0.0501
  180SLPC  H11X20641   5.049   0.020   9.273 -1.9615  0.3058 -0.6968
  180SLPC  H11Y20642   4.941  -0.127   9.309 -0.3217 -0.4116 -0.3775
  180SLPC  C31220643   5.097  -0.136   9.155  0.0451  0.6443 -0.0489
  180SLPC  H12X20644   5.128  -0.242   9.164 -3.5545 -0.6573 -1.2553
  180SLPC  H12Y20645   5.188  -0.079   9.125 -0.2731  0.4040 -1.5572
  180SLPC  C31320646   4.996  -0.120   9.042 -0.1172  0.0795  0.2253
  180SLPC  H13X20647   4.971  -0.012   9.033 -2.5891 -0.6125 -3.2887
  180SLPC  H13Y20648   4.906  -0.182   9.064 -0.1344  0.9331  2.8998
  180SLPC  C31420649   5.051  -0.165   8.906  0.1430 -0.0159 -0.2092
  180SLPC  H14X20650   5.051  -0.276   8.907 -0.8640 -0.0383 -1.4435
  180SLPC  H14Y20651   5.157  -0.138   8.888  1.6197 -3.8729  1.5487
  180SLPC  C31520652   4.947  -0.125   8.794 -0.5359  0.8970 -0.5838
  180SLPC  H15X20653   4.884  -0.040   8.828  1.2729  1.9016  0.4063
  180SLPC  H15Y20654   4.882  -0.215   8.788 -0.4973  0.7553  0.7762
  180SLPC  C31620655   5.014  -0.108   8.657  0.3195  0.0470 -0.4271
  180SLPC  H16X20656   5.102  -0.175   8.658 -1.2617 -2.1348  0.3673
  180SLPC  H16Y20657   5.047  -0.003   8.639  0.5757  0.7910  3.5038
  180SLPC  C31720658   4.919  -0.145   8.543  0.2406 -0.1499 -0.3302
  180SLPC  H17X20659   4.892  -0.251   8.562 -0.1889  0.2538  1.4340
  180SLPC  H17Y20660   4.974  -0.136   8.447 -0.8063 -0.5569 -0.9818
  180SLPC  C31820661   4.781  -0.068   8.538  0.1854 -0.1494 -0.0450
  180SLPC  H18X20662   4.725  -0.093   8.631 -0.4750 -2.4844 -0.9864
  180SLPC  H18Y20663   4.727  -0.100   8.447 -0.6574  1.7312 -0.2510
  180SLPC  H18Z20664   4.798   0.041   8.535  1.4322 -0.3595 -2.0111
  181SLPC     N20665   1.385   5.616  11.062 -0.7596 -1.0849 -0.5421
  181SLPC   C1320666   1.282   5.679  11.153  1.3848 -0.7877  0.2778
  181SLPC  H13A20667   1.256   5.617  11.237  1.0679 -1.2742 -0.1733
  181SLPC  H13B20668   1.309   5.782  11.173  0.6075  0.1824 -3.0906
  181SLPC  H13C20669   1.197   5.677  11.087  1.8805 -1.1200 -0.3630
  181SLPC   C1420670   1.506   5.591  11.148  0.3693 -0.2456  0.3953
  181SLPC  H14A20671   1.516   5.677  11.212  0.3875  0.3979 -0.4468
  181SLPC  H14B20672   1.495   5.507  11.214 -0.2467  1.3723  2.4637
  181SLPC  H14C20673   1.599   5.573  11.096 -0.9508 -1.4870 -1.6777
  181SLPC   C1520674   1.423   5.733  10.970 -0.1038  0.9811  0.1543
  181SLPC  H15A20675   1.512   5.701  10.917  0.8414  0.4556  1.9796
  181SLPC  H15B20676   1.343   5.759  10.903 -0.0212  2.8000  0.7022
  181SLPC  H15C20677   1.442   5.822  11.027 -0.3403  0.5338  0.9429
  181SLPC   C1220678   1.347   5.489  10.996 -0.5186 -0.1096  0.6824
  181SLPC  H12A20679   1.313   5.412  11.064  1.4500 -1.4308  0.2599
  181SLPC  H12B20680   1.437   5.451  10.951  0.0655  0.1001  1.6475
  181SLPC   C1120681   1.243   5.504  10.886  0.7531 -0.1662 -0.1644
  181SLPC  H11A20682   1.225   5.402  10.847  0.5266 -0.4388  0.6419
  181SLPC  H11B20683   1.281   5.574  10.808 -0.6464  1.7790  0.8074
  181SLPC     P20684   0.991   5.494  10.968  0.0774 -0.3388 -0.3185
  181SLPC   O1320685   1.002   5.357  10.915  0.2476 -0.1649 -0.0860
  181SLPC   O1420686   0.970   5.506  11.116  0.0078  0.2062 -0.1094
  181SLPC   O1220687   1.126   5.574  10.932  0.0788 -0.2539 -0.2661
  181SLPC   O1120688   0.869   5.570  10.900 -0.4829  0.1062 -0.0394
  181SLPC    C120689   0.882   5.612  10.765 -0.1513 -1.0149  0.1377
  181SLPC    HA20690   0.835   5.712  10.752  2.1236  0.2027  0.7404
  181SLPC    HB20691   0.989   5.636  10.744 -0.1087 -0.3861  1.0082
  181SLPC    C220692   0.838   5.500  10.671 -0.2729  0.3045  0.5808
  181SLPC    HS20693   0.750   5.460  10.726  0.2637 -0.8327  0.6353
  181SLPC   O2120694   0.952   5.412  10.653  0.2536 -0.1523  0.1099
  181SLPC   C2120695   0.922   5.285  10.649  0.5176  0.6177  0.0802
  181SLPC   O2220696   0.806   5.239  10.639 -0.1142 -0.3415 -0.0176
  181SLPC   C2220697   1.049   5.193  10.653 -0.6385  0.8450  0.2047
  181SLPC   H2R20698   1.138   5.244  10.696  0.2125 -2.0041  2.1478
  181SLPC   H2S20699   1.025   5.118  10.731 -1.4283  0.8680 -0.0087
  181SLPC    C320700   0.796   5.554  10.528 -0.7685 -0.0780  0.8148
  181SLPC    HX20701   0.885   5.600  10.480 -0.1530  0.3253  2.2842
  181SLPC    HY20702   0.726   5.641  10.532  2.2501  2.5883  0.2512
  181SLPC   O3120703   0.774   5.455  10.427  1.0349  0.1005 -0.1536
  181SLPC   C3120704   0.647   5.416  10.425  0.1372  0.2425  0.1612
  181SLPC   O3220705   0.557   5.459  10.496  0.3614  0.1012 -0.1711
  181SLPC   C3220706   0.629   5.309  10.323  0.2997  0.6533 -0.8736
  181SLPC   H2X20707   0.521   5.282  10.329  0.3120  0.9369  1.3410
  181SLPC   H2Y20708   0.691   5.222  10.354  0.0855  1.3509  1.7700
  181SLPC   C2320709   1.082   5.128  10.515  0.1447 -0.1629  0.1264
  181SLPC   H3R20710   0.998   5.058  10.495  2.0872 -2.1214 -1.6242
  181SLPC   H3S20711   1.176   5.070  10.527  0.4685  0.1779 -0.7239
  181SLPC   C2420712   1.098   5.229  10.401 -0.0444 -0.3295  0.2952
  181SLPC   H4R20713   1.180   5.297  10.432 -1.6613  1.7075  0.2867
  181SLPC   H4S20714   1.002   5.285  10.398 -0.0798 -0.2786  1.7145
  181SLPC   C2520715   1.125   5.154  10.263  0.6423 -0.1120 -0.6715
  181SLPC   H5R20716   1.189   5.067  10.287  0.7322  0.3939  1.0975
  181SLPC   H5S20717   1.190   5.222  10.203  2.8484 -0.7931  0.8276
  181SLPC   C2620718   1.010   5.116  10.187 -0.5257 -0.0030  1.1705
  181SLPC   H6R20719   0.968   5.214  10.153  1.8483  1.0796  1.1856
  181SLPC   H6S20720   0.937   5.070  10.257 -0.7550 -0.2767  0.7592
  181SLPC   C2720721   1.044   5.038  10.061 -0.0941 -0.2006 -0.2197
  181SLPC   H7R20722   1.144   4.994  10.084 -0.7758 -1.5960  0.1631
  181SLPC   H7S20723   1.048   5.111   9.978 -1.6515 -0.2496 -0.3629
  181SLPC   C2820724   0.951   4.916  10.028  0.9345 -0.0366 -0.3099
  181SLPC   H8R20725   0.844   4.946  10.028  1.1044  0.5796 -0.8217
  181SLPC   H8S20726   0.958   4.843  10.111 -0.9215 -0.6706 -0.6568
  181SLPC   C2920727   0.981   4.849   9.891  0.0643  0.4611 -0.0448
  181SLPC   H9R20728   0.987   4.919   9.806  2.9231  1.0752  0.5491
  181SLPC  C21020729   1.028   4.728   9.871  0.6098  0.5688  0.6415
  181SLPC  H10R20730   1.049   4.708   9.764  2.3095 -0.8539  1.1891
  181SLPC  C21120731   1.066   4.619   9.965  0.6798 -0.1902  0.2449
  181SLPC  H11R20732   1.040   4.644  10.070  1.4130  0.5511  0.2632
  181SLPC  H11S20733   1.174   4.591   9.959  0.7919  0.2581  0.1307
  181SLPC  C21220734   0.973   4.498   9.940 -0.4613  0.5627  0.5955
  181SLPC  H12R20735   0.881   4.506  10.000 -1.3657 -0.8579 -0.5489
  181SLPC  C21320736   0.990   4.391   9.865 -0.4295  1.3673  0.8555
  181SLPC  H13R20737   0.919   4.309   9.875  0.0770  0.8087 -0.0069
  181SLPC  C21420738   1.101   4.359   9.773 -0.9293  0.7186 -0.1443
  181SLPC  H14R20739   1.148   4.264   9.804  2.1599  2.2642  0.3221
  181SLPC  H14S20740   1.177   4.440   9.774 -0.8275  0.6215  0.8317
  181SLPC  C21520741   1.046   4.329   9.635 -0.0865  0.3484  0.1498
  181SLPC  H15R20742   0.989   4.419   9.603 -0.4067  0.1769  0.2312
  181SLPC  H15S20743   0.982   4.240   9.617  1.6411 -0.9236  0.0779
  181SLPC  C21620744   1.153   4.300   9.531  0.5938  0.5064  0.1273
  181SLPC  H16R20745   1.206   4.207   9.559  1.2171  1.2679  1.6271
  181SLPC  H16S20746   1.229   4.381   9.524  2.8004 -0.6609  5.5139
  181SLPC  C21720747   1.103   4.285   9.390  0.0791 -0.5902  1.2330
  181SLPC  H17R20748   1.065   4.385   9.359 -0.9634 -0.8270  1.6927
  181SLPC  H17S20749   1.021   4.211   9.381  0.0196 -0.2578 -2.2794
  181SLPC  C21820750   1.204   4.228   9.289 -0.3303 -0.3565  0.4768
  181SLPC  H18R20751   1.277   4.309   9.268 -3.8616  2.8476 -0.8527
  181SLPC  H18S20752   1.142   4.211   9.198 -0.8553  0.3418  0.6922
  181SLPC  H18T20753   1.241   4.126   9.310 -0.0772 -0.5496 -0.8150
  181SLPC   C3320754   0.674   5.370  10.193  0.2386 -0.4587 -0.0989
  181SLPC   H3X20755   0.783   5.391  10.202  0.1639 -0.5959  1.2450
  181SLPC   H3Y20756   0.614   5.460  10.168 -3.3431 -2.6887 -0.2795
  181SLPC   C3420757   0.647   5.279  10.069 -0.4042 -0.4355 -0.9458
  181SLPC   H4X20758   0.537   5.261  10.073 -0.6223  0.9555  2.3852
  181SLPC   H4Y20759   0.687   5.177  10.086 -2.4346 -1.4349 -1.8181
  181SLPC   C3520760   0.703   5.324   9.939 -0.0168  0.1975 -0.3898
  181SLPC   H5X20761   0.811   5.347   9.952  0.1756 -0.8065 -0.1774
  181SLPC   H5Y20762   0.656   5.413   9.892  0.0294  0.4053 -0.0493
  181SLPC   C3620763   0.703   5.208   9.833 -0.6107 -1.2314 -0.0813
  181SLPC   H6X20764   0.603   5.179   9.793  0.1882 -2.3783 -1.3382
  181SLPC   H6Y20765   0.739   5.111   9.871  0.1492 -0.2292  1.8634
  181SLPC   C3720766   0.786   5.244   9.701  0.6591 -0.4560 -0.6629
  181SLPC   H7X20767   0.892   5.264   9.727  0.9751 -1.1278 -1.4062
  181SLPC   H7Y20768   0.739   5.339   9.666  0.0250 -0.3738  0.3545
  181SLPC   C3820769   0.757   5.141   9.589 -0.0138  0.0642  0.2294
  181SLPC   H8X20770   0.651   5.152   9.560  0.9100  1.5517 -3.0086
  181SLPC   H8Y20771   0.771   5.038   9.629  1.4377  0.2325  0.2130
  181SLPC   C3920772   0.848   5.162   9.473  0.1645  0.3359 -0.1932
  181SLPC   H9X20773   0.942   5.104   9.480  1.7837  2.9711  2.8396
  181SLPC   H9Y20774   0.883   5.268   9.482  0.8966  0.1120 -0.3364
  181SLPC  C31020775   0.780   5.141   9.341 -0.1360 -0.0181  0.1093
  181SLPC  H10X20776   0.685   5.199   9.336 -0.5937 -0.8131 -0.8499
  181SLPC  H10Y20777   0.765   5.033   9.317  0.9602  0.1063 -1.2321
  181SLPC  C31120778   0.860   5.194   9.223 -0.1569 -0.4126 -0.0565
  181SLPC  H11X20779   0.953   5.136   9.204  0.8773  0.3699  2.2140
  181SLPC  H11Y20780   0.903   5.288   9.265 -1.2966  0.6649 -1.2438
  181SLPC  C31220781   0.785   5.232   9.101  0.5495 -0.8434 -0.1091
  181SLPC  H12X20782   0.859   5.274   9.030  0.6182  1.2736  1.1502
  181SLPC  H12Y20783   0.707   5.309   9.116  0.4127 -0.4330 -2.4818
  181SLPC  C31320784   0.722   5.106   9.035  0.7295 -0.1570 -0.0151
  181SLPC  H13X20785   0.657   5.154   8.959 -0.0345  0.6174  1.0754
  181SLPC  H13Y20786   0.653   5.063   9.111 -0.9992 -1.4714 -2.2077
  181SLPC  C31420787   0.819   5.005   8.971 -0.2422 -0.1462 -0.0016
  181SLPC  H14X20788   0.851   4.949   9.061 -0.1068 -1.3153 -0.7675
  181SLPC  H14Y20789   0.902   5.069   8.936  0.4959 -1.8052 -1.4130
  181SLPC  C31520790   0.753   4.913   8.864 -0.6829  0.7555  0.3989
  181SLPC  H15X20791   0.705   4.973   8.784 -0.8415 -0.8147 -0.7313
  181SLPC  H15Y20792   0.670   4.851   8.906  0.4952 -1.5221 -0.4292
  181SLPC  C31620793   0.852   4.822   8.798 -0.0196  0.3525 -0.2982
  181SLPC  H16X20794   0.913   4.771   8.876  2.0319 -0.6106 -2.3891
  181SLPC  H16Y20795   0.936   4.877   8.750  0.1890 -1.3420 -1.9883
  181SLPC  C31720796   0.798   4.721   8.697  0.6864 -0.0592  0.4005
  181SLPC  H17X20797   0.732   4.774   8.624  1.7465 -1.2789 -1.5173
  181SLPC  H17Y20798   0.740   4.640   8.747 -0.1697 -0.6879 -1.5331
  181SLPC  C31820799   0.905   4.653   8.606 -0.2148 -0.6339  0.1494
  181SLPC  H18X20800   0.852   4.581   8.539 -1.6579  1.6048 -1.2444
  181SLPC  H18Y20801   0.984   4.606   8.668 -1.6139 -1.5049  1.3727
  181SLPC  H18Z20802   0.953   4.730   8.542  0.2790 -1.3013 -0.2919
  182SLPC     N20803   4.897   6.842  11.098  0.1621 -0.2558  0.8498
  182SLPC   C1320804   4.940   6.757  11.212  0.0557  0.1235 -0.3589
  182SLPC  H13A20805   5.004   6.676  11.181 -0.4452 -1.1785  1.7993
  182SLPC  H13B20806   4.986   6.822  11.285  0.0677 -0.7080  0.3882
  182SLPC  H13C20807   4.854   6.710  11.257 -2.0858  2.4116 -1.7296
  182SLPC   C1420808   4.808   6.948  11.152 -0.0432  0.0386  0.2086
  182SLPC  H14A20809   4.849   6.996  11.240  0.5251  0.9094 -0.5024
  182SLPC  H14B20810   4.798   7.033  11.086  1.1638  1.0106  1.2135
  182SLPC  H14C20811   4.710   6.909  11.173 -0.8876  1.9670  0.0857
  182SLPC   C1520812   4.794   6.764  11.018 -0.7339 -0.4635  0.2801
  182SLPC  H15A20813   4.721   6.712  11.079 -0.5100 -0.3412  0.6545
  182SLPC  H15B20814   4.754   6.842  10.955  0.1703 -1.7474 -2.0103
  182SLPC  H15C20815   4.844   6.696  10.949  0.2891 -0.4424  0.9769
  182SLPC   C1220816   5.010   6.895  11.010  0.0774  0.4060 -0.2822
  182SLPC  H12A20817   5.083   6.938  11.077  0.4821 -2.2050  1.0865
  182SLPC  H12B20818   4.970   6.966  10.939 -1.5198  0.3897  0.5636
  182SLPC   C1120819   5.086   6.787  10.925  0.3248 -0.4421 -0.8059
  182SLPC  H11A20820   5.028   6.730  10.849 -0.7202 -0.2659 -0.1655
  182SLPC  H11B20821   5.096   6.707  11.002 -3.8749  0.7326  1.2310
  182SLPC     P20822   5.213   6.959  10.781 -0.0564 -0.0430 -0.2046
  182SLPC   O1320823   5.080   6.995  10.730  0.1357  0.2020  0.0782
  182SLPC   O1420824   5.287   7.069  10.839 -0.3404 -0.1735  0.1588
  182SLPC   O1220825   5.208   6.842  10.879  0.5487 -0.5180  0.5244
  182SLPC   O1120826   5.301   6.904  10.662  0.5779 -0.4275 -0.3378
  182SLPC    C120827   5.420   6.821  10.674 -0.1799 -0.7842 -0.3206
  182SLPC    HA20828   5.428   6.771  10.774 -1.7745  1.0336  0.7783
  182SLPC    HB20829   5.414   6.739  10.600  0.9270 -2.0100  0.8755
  182SLPC    C220830   5.543   6.908  10.649  0.3972 -0.6698 -0.4724
  182SLPC    HS20831   5.553   6.989  10.724  0.3408 -1.3103  0.2352
  182SLPC   O2120832   5.536   6.979  10.515 -0.0049  0.5380 -0.0193
  182SLPC   C2120833   5.627   7.078  10.489  0.1479 -0.5455 -0.8676
  182SLPC   O2220834   5.695   7.125  10.578  0.0195 -0.2394  0.4841
  182SLPC   C2220835   5.610   7.126  10.347  0.0830  0.3232  0.6759
  182SLPC   H2R20836   5.518   7.186  10.329  0.9134  0.7342 -3.0270
  182SLPC   H2S20837   5.692   7.197  10.323  1.1583 -1.0883  0.0346
  182SLPC    C320838   5.664   6.811  10.665 -0.2355  0.6854 -0.2232
  182SLPC    HX20839   5.624   6.715  10.626 -1.5366  0.7176  0.9313
  182SLPC    HY20840   5.673   6.782  10.772 -2.8518 -2.2643 -0.6480
  182SLPC   O3120841   5.789   6.850  10.599  1.0203 -0.3733  0.4064
  182SLPC   C3120842   5.899   6.863  10.669 -0.6626 -0.3794 -0.2027
  182SLPC   O3220843   5.910   6.824  10.789  0.1827  0.9660  0.9478
  182SLPC   C3220844   6.015   6.903  10.579  0.6992 -0.6945  0.1373
  182SLPC   H2X20845   6.078   6.981  10.626  2.9097 -0.6740 -2.6212
  182SLPC   H2Y20846   5.976   6.936  10.480 -0.6524 -1.0840  0.5150
  182SLPC   C2320847   5.620   7.017  10.234 -0.6107  0.8339 -0.3424
  182SLPC   H3R20848   5.580   7.065  10.143  1.1120  2.1019 -0.4806
  182SLPC   H3S20849   5.556   6.929  10.257  0.7903 -0.0094  0.5068
  182SLPC   C2420850   5.755   6.961  10.210  0.1574  0.1655  0.4326
  182SLPC   H4R20851   5.796   6.908  10.298 -0.9286  0.5588  1.2054
  182SLPC   H4S20852   5.828   7.035  10.173  0.1936 -0.8272 -1.6616
  182SLPC   C2520853   5.774   6.850  10.107 -0.1885  0.8155 -0.1582
  182SLPC   H5R20854   5.701   6.769  10.128 -0.1326  1.3042  2.1840
  182SLPC   H5S20855   5.874   6.802  10.114 -0.9873 -0.9530 -0.3994
  182SLPC   C2620856   5.741   6.865   9.960 -0.2954 -1.0422 -0.3610
  182SLPC   H6R20857   5.643   6.915   9.948  0.3830  0.0272 -1.7246
  182SLPC   H6S20858   5.726   6.763   9.917  1.6306 -2.5230  2.1791
  182SLPC   C2720859   5.853   6.933   9.883 -0.7026 -0.1312 -0.5171
  182SLPC   H7R20860   5.947   6.873   9.879 -0.7908 -0.2161 -2.0724
  182SLPC   H7S20861   5.874   7.031   9.930  1.1306 -0.8932  0.3490
  182SLPC   C2820862   5.817   6.967   9.736  0.1612  0.2297 -0.0068
  182SLPC   H8R20863   5.717   7.015   9.732  0.1117  0.2259  0.9887
  182SLPC   H8S20864   5.803   6.874   9.677 -0.4870  0.9122 -0.9604
  182SLPC   C2920865   5.923   7.061   9.688  0.9189 -0.2006  0.5111
  182SLPC   H9R20866   5.962   7.133   9.762 -0.6059 -0.3016  1.4622
  182SLPC  C21020867   5.973   7.060   9.562  0.1065  0.2859  0.4932
  182SLPC  H10R20868   6.040   7.141   9.529  0.2820 -0.2253 -0.4438
  182SLPC  C21120869   5.943   6.974   9.444  0.3472 -0.0660  0.5560
  182SLPC  H11R20870   5.958   7.046   9.362  2.5187 -0.4265  0.5847
  182SLPC  H11S20871   5.834   6.952   9.448  0.0146  1.3572 -0.1137
  182SLPC  C21220872   6.026   6.851   9.431 -0.1810 -0.0758  0.1651
  182SLPC  H12R20873   6.085   6.835   9.522  0.4272  2.4548  0.3021
  182SLPC  C21320874   6.032   6.771   9.329  0.3187  1.1251  0.0459
  182SLPC  H13R20875   6.094   6.681   9.326  2.2092  2.3081 -4.4466
  182SLPC  C21420876   5.947   6.782   9.203  0.3093 -0.7782  0.6369
  182SLPC  H14R20877   5.887   6.875   9.205 -1.3842 -1.8354  2.8137
  182SLPC  H14S20878   5.874   6.699   9.195 -0.8280  0.2864 -0.3390
  182SLPC  C21520879   6.044   6.779   9.080 -0.8183 -0.2297 -0.9296
  182SLPC  H15R20880   6.122   6.701   9.093 -0.3235  0.4115  0.0338
  182SLPC  H15S20881   6.104   6.872   9.082 -0.0018 -0.6948 -2.1921
  182SLPC  C21620882   5.979   6.768   8.943 -0.0916 -0.6168 -0.2183
  182SLPC  H16R20883   5.942   6.664   8.936  3.1171 -1.8545 -0.6732
  182SLPC  H16S20884   6.049   6.777   8.857 -1.6131  0.8823 -1.3540
  182SLPC  C21720885   5.872   6.880   8.912  0.5404 -0.4172 -0.3044
  182SLPC  H17R20886   5.801   6.893   8.995 -1.0197 -1.1571 -1.4750
  182SLPC  H17S20887   5.823   6.840   8.821 -0.9025 -0.3712  0.4267
  182SLPC  C21820888   5.928   7.015   8.856 -0.3046  0.5411 -0.6241
  182SLPC  H18R20889   5.857   7.081   8.802 -0.5152  0.0522 -0.9556
  182SLPC  H18S20890   6.000   6.994   8.774 -0.8933 -1.6311 -0.6609
  182SLPC  H18T20891   5.971   7.071   8.941 -1.5159 -0.3949  0.6506
  182SLPC   C3320892   6.091   6.778  10.531  0.1927  0.2019  0.4578
  182SLPC   H3X20893   6.036   6.730  10.448  0.8134 -1.4470  0.9432
  182SLPC   H3Y20894   6.094   6.696  10.607 -0.5603 -0.3488 -0.0965
  182SLPC   C3420895   6.228   6.815  10.474 -0.4527 -0.1796  0.3356
  182SLPC   H4X20896   6.290   6.731  10.435  3.3723  1.5346  2.1163
  182SLPC   H4Y20897   6.293   6.842  10.561  0.6682 -1.0277 -0.2127
  182SLPC   C3520898   6.235   6.923  10.363 -0.6708 -0.4785  0.0543
  182SLPC   H5X20899   6.339   6.948  10.334 -0.2858 -1.7873  0.2436
  182SLPC   H5Y20900   6.191   7.016  10.405  0.8833  0.5995 -0.6447
  182SLPC   C3620901   6.151   6.895  10.235  0.1895  0.8080 -0.7298
  182SLPC   H6X20902   6.056   6.859  10.280  1.0082 -0.3433  0.1208
  182SLPC   H6Y20903   6.196   6.817  10.170 -0.2698 -1.3651  1.4172
  182SLPC   C3720904   6.138   7.018  10.145  0.2538  0.6386  0.1228
  182SLPC   H7X20905   6.092   7.086  10.221 -0.4539  0.0175  0.2597
  182SLPC   H7Y20906   6.061   6.992  10.070 -1.1711 -0.9371  2.0075
  182SLPC   C3820907   6.260   7.096  10.094  0.6389  0.1847 -0.1484
  182SLPC   H8X20908   6.337   7.087  10.174  1.3725 -0.8458 -0.9433
  182SLPC   H8Y20909   6.231   7.202  10.080 -0.0648 -0.2178 -1.9691
  182SLPC   C3920910   6.323   7.033   9.967 -0.4987  0.5715  0.5912
  182SLPC   H9X20911   6.343   6.926   9.990  0.1208  0.7556  0.9344
  182SLPC   H9Y20912   6.421   7.077   9.942  0.0559  0.2313  2.0565
  182SLPC  C31020913   6.230   7.039   9.845  0.8995  0.1445 -0.1420
  182SLPC  H10X20914   6.176   7.136   9.840 -0.4770 -0.6185 -0.8755
  182SLPC  H10Y20915   6.151   6.962   9.859  1.3843  0.0091  2.0641
  182SLPC  C31120916   6.307   7.023   9.714 -0.1729 -0.1630 -0.5321
  182SLPC  H11X20917   6.364   7.116   9.695  0.1969 -0.3951 -0.5856
  182SLPC  H11Y20918   6.229   7.003   9.637 -1.0646  1.4627 -0.0895
  182SLPC  C31220919   6.398   6.895   9.708  0.3125 -0.1936  0.1377
  182SLPC  H12X20920   6.329   6.808   9.708  2.1418 -1.6971 -0.9132
  182SLPC  H12Y20921   6.470   6.893   9.792 -1.7798 -3.4974  2.0996
  182SLPC  C31320922   6.488   6.876   9.583 -0.2008  0.1289  0.5657
  182SLPC  H13X20923   6.539   6.778   9.592 -2.5240 -1.3231 -0.9936
  182SLPC  H13Y20924   6.558   6.962   9.582  1.1862 -0.9300 -1.4999
  182SLPC  C31420925   6.418   6.884   9.450  0.2010 -0.0068  0.0476
  182SLPC  H14X20926   6.309   6.872   9.465 -0.1572  0.9955 -1.5303
  182SLPC  H14Y20927   6.456   6.800   9.387  1.4119  0.1948  0.4698
  182SLPC  C31520928   6.455   7.015   9.368  0.3951  0.1208 -0.2838
  182SLPC  H15X20929   6.565   7.015   9.356  0.3310 -3.2929 -2.2317
  182SLPC  H15Y20930   6.428   7.108   9.423 -0.5368 -0.3506  0.0888
  182SLPC  C31620931   6.377   7.015   9.234  0.1833 -0.3221  0.5495
  182SLPC  H16X20932   6.269   6.995   9.252  0.4988 -2.0184  0.7115
  182SLPC  H16Y20933   6.413   6.923   9.184  1.3076  0.2236  0.3043
  182SLPC  C31720934   6.385   7.146   9.147 -0.6673 -0.1857 -0.1260
  182SLPC  H17X20935   6.493   7.165   9.128 -0.4266 -0.1151  1.2056
  182SLPC  H17Y20936   6.343   7.235   9.198  1.3404  0.5530  0.3505
  182SLPC  C31820937   6.298   7.136   9.023 -0.3562 -0.5914 -0.6834
  182SLPC  H18X20938   6.319   7.217   8.951  2.5430 -1.2475 -0.6796
  182SLPC  H18Y20939   6.190   7.131   9.048  0.1978 -0.1656  2.1441
  182SLPC  H18Z20940   6.329   7.044   8.969  0.9439 -1.2257  1.0482
  183SLPC     N20941   0.601   1.752  10.619  0.6600  0.1057  0.0359
  183SLPC   C1320942   0.468   1.826  10.651 -0.7107 -0.3363  0.2326
  183SLPC  H13A20943   0.475   1.933  10.637 -1.7169 -0.0988  1.3310
  183SLPC  H13B20944   0.384   1.793  10.592 -1.1042  1.2366 -0.1331
  183SLPC  H13C20945   0.437   1.808  10.753 -4.7215  1.7951 -0.3804
  183SLPC   C1420946   0.709   1.797  10.708  0.3092 -1.1135  0.6541
  183SLPC  H14A20947   0.708   1.904  10.728  0.6215 -0.9171 -0.3495
  183SLPC  H14B20948   0.697   1.752  10.806  1.4435 -0.1892  1.2467
  183SLPC  H14C20949   0.807   1.773  10.671 -0.2333  0.2655 -1.8760
  183SLPC   C1520950   0.612   1.785  10.474 -0.5434 -0.4641 -0.3163
  183SLPC  H15A20951   0.602   1.890  10.450  0.8938  0.2522  1.9422
  183SLPC  H15B20952   0.712   1.752  10.451  0.4915  1.2999  1.2928
  183SLPC  H15C20953   0.535   1.735  10.417 -2.0908 -0.0355  1.3169
  183SLPC   C1220954   0.586   1.599  10.624 -0.0601 -0.2539  0.4560
  183SLPC  H12A20955   0.548   1.570  10.721 -0.4958  0.9353  0.6712
  183SLPC  H12B20956   0.687   1.562  10.625 -0.1545 -0.6455 -1.3426
  183SLPC   C1120957   0.504   1.524  10.517 -0.4121 -0.2478  0.2308
  183SLPC  H11A20958   0.505   1.415  10.534  2.6482  0.0470  3.0100
  183SLPC  H11B20959   0.559   1.550  10.424  0.3431  0.3449  0.8215
  183SLPC     P20960   0.266   1.531  10.609 -0.1001  0.1275  0.4064
  183SLPC   O1320961   0.321   1.511  10.740 -1.1192 -0.5435  0.0501
  183SLPC   O1420962   0.158   1.630  10.598 -0.4985 -0.1206  0.0585
  183SLPC   O1220963   0.376   1.573  10.508  0.3250  0.3724  0.5641
  183SLPC   O1120964   0.218   1.398  10.542 -0.0205 -0.2379 -0.8121
  183SLPC    C120965   0.177   1.392  10.407 -0.1129 -1.0868 -0.2323
  183SLPC    HA20966   0.090   1.322  10.412 -2.2364  1.0582 -3.4384
  183SLPC    HB20967   0.138   1.485  10.361  2.3382 -0.9195 -2.1791
  183SLPC    C220968   0.271   1.324  10.305  0.6194  0.2982  0.6256
  183SLPC    HS20969   0.358   1.391  10.291  0.2093  0.7911  0.4413
  183SLPC   O2120970   0.203   1.312  10.179 -0.2072  0.3386 -0.9419
  183SLPC   C2120971   0.185   1.421  10.105 -0.0932 -0.3865  0.2038
  183SLPC   O2220972   0.196   1.538  10.142  0.1503 -0.5871  0.0757
  183SLPC   C2220973   0.153   1.382   9.957  0.0535 -0.2331  0.1908
  183SLPC   H2R20974   0.243   1.329   9.918  0.2396  0.8262 -0.8803
  183SLPC   H2S20975   0.070   1.309   9.962 -0.6299  0.6032  1.5349
  183SLPC    C320976   0.333   1.187  10.349  0.2877  0.9438 -0.1066
  183SLPC    HX20977   0.249   1.134  10.400  2.5322 -1.8734  0.9115
  183SLPC    HY20978   0.416   1.211  10.419  2.1467  1.1702 -2.2749
  183SLPC   O3120979   0.389   1.109  10.247 -0.3799  0.1207  0.2591
  183SLPC   C3120980   0.508   1.143  10.188 -0.4446  0.5107 -0.3762
  183SLPC   O3220981   0.577   1.234  10.229  0.3612  0.4700  0.4638
  183SLPC   C3220982   0.536   1.051  10.073 -0.0810  0.2966  0.0238
  183SLPC   H2X20983   0.468   0.966  10.093  0.8741 -0.9215 -1.7027
  183SLPC   H2Y20984   0.641   1.016  10.068  0.1160  0.8830 -0.1125
  183SLPC   C2320985   0.126   1.508   9.864  0.1656  0.0815  0.0943
  183SLPC   H3R20986   0.212   1.577   9.866 -0.0551  0.4374 -1.5550
  183SLPC   H3S20987   0.038   1.560   9.908  1.5581  3.4690 -0.8961
  183SLPC   C2420988   0.103   1.454   9.723  0.5082 -0.5281 -0.7606
  183SLPC   H4R20989   0.039   1.364   9.734 -0.0998  0.0777  0.8756
  183SLPC   H4S20990   0.203   1.431   9.681  2.0739 -0.2022  2.5002
  183SLPC   C2520991   0.047   1.554   9.619 -0.9447 -0.4343 -0.4147
  183SLPC   H5R20992   0.132   1.625   9.612 -1.8844  0.9575  1.4674
  183SLPC   H5S20993  -0.042   1.609   9.655 -1.5051 -0.3782 -1.8321
  183SLPC   C2620994   0.022   1.486   9.482 -0.7593  0.3949 -0.8704
  183SLPC   H6R20995  -0.028   1.389   9.505 -0.1022  0.2120 -0.1672
  183SLPC   H6S20996   0.121   1.443   9.456 -0.0602  0.6248  1.1757
  183SLPC   C2720997  -0.031   1.575   9.369 -0.1032 -0.3242  0.3592
  183SLPC   H7R20998   0.030   1.667   9.354 -0.3937 -0.2546 -0.4229
  183SLPC   H7S20999  -0.126   1.613   9.413  1.5338  1.4860  2.5818
  183SLPC   C2821000  -0.064   1.499   9.242 -0.3916  0.4935  0.2573
  183SLPC   H8R21001  -0.097   1.396   9.269 -0.4197  0.4042 -0.1152
  183SLPC   H8S21002   0.035   1.475   9.196 -1.1741 -1.4146 -0.5484
  183SLPC   C2921003  -0.161   1.550   9.146 -0.1736  0.0863  0.4774
  183SLPC   H9R21004  -0.267   1.536   9.172 -0.6143 -2.2614 -2.0451
  183SLPC  C21021005  -0.138   1.585   9.019  0.0554 -0.1147  0.0049
  183SLPC  H10R21006  -0.223   1.622   8.959  1.1700  2.0045 -0.3454
  183SLPC  C21121007  -0.009   1.587   8.951 -0.3645 -0.6124  0.1572
  183SLPC  H11R21008   0.038   1.491   8.921 -0.5917  0.1474 -2.8922
  183SLPC  H11S21009   0.066   1.628   9.022 -1.8500  0.9660  0.8836
  183SLPC  C21221010   0.000   1.671   8.829  0.4833  0.1541  1.5334
  183SLPC  H12R21011   0.053   1.768   8.830  1.7365 -0.4992  1.2391
  183SLPC  C21321012  -0.027   1.631   8.700 -0.2607 -0.4263  0.0295
  183SLPC  H13R21013  -0.001   1.706   8.624 -0.8131  0.6498  0.8764
  183SLPC  C21421014  -0.074   1.496   8.655 -1.0490  0.6789 -0.5139
  183SLPC  H14R21015  -0.096   1.445   8.751 -1.2490  0.8313 -0.4802
  183SLPC  H14S21016  -0.002   1.427   8.605  0.2286 -0.5071  2.6859
  183SLPC  C21521017  -0.204   1.497   8.583 -0.2839  0.1860 -0.1647
  183SLPC  H15R21018  -0.280   1.522   8.661  0.6938  1.5471  0.4036
  183SLPC  H15S21019  -0.232   1.400   8.538  1.8778 -0.8395  0.5644
  183SLPC  C21621020  -0.217   1.596   8.469 -0.3409 -0.8408  0.1967
  183SLPC  H16R21021  -0.195   1.695   8.514 -0.3726 -1.2935  1.2374
  183SLPC  H16S21022  -0.321   1.599   8.430 -0.9377  2.5824  1.7017
  183SLPC  C21721023  -0.123   1.579   8.350 -0.3176  0.4364  0.6152
  183SLPC  H17R21024  -0.115   1.470   8.331 -0.8890  0.5033 -0.0263
  183SLPC  H17S21025  -0.022   1.613   8.381 -0.9975  0.7008  2.7398
  183SLPC  C21821026  -0.187   1.642   8.232 -0.2643 -0.2661  0.5142
  183SLPC  H18R21027  -0.195   1.752   8.246 -3.2082 -0.2795 -0.2900
  183SLPC  H18S21028  -0.284   1.593   8.210  0.1310 -0.6345 -0.4469
  183SLPC  H18T21029  -0.122   1.644   8.142  0.3306 -0.3078  0.9404
  183SLPC   C3321030   0.499   1.136   9.945  0.4276  0.4413 -0.2590
  183SLPC   H3X21031   0.573   1.218   9.934  0.3984  0.8820  2.2819
  183SLPC   H3Y21032   0.393   1.171   9.950 -0.2233 -1.1234 -2.0479
  183SLPC   C3421033   0.508   1.044   9.823 -0.0368  0.0226  0.3663
  183SLPC   H4X21034   0.435   0.960   9.828 -0.8381  0.7564  1.2243
  183SLPC   H4Y21035   0.614   1.010   9.811 -0.3307 -0.6883 -0.3002
  183SLPC   C3521036   0.492   1.105   9.684  0.8108  0.0771  0.8433
  183SLPC   H5X21037   0.581   1.171   9.676  1.8782 -1.2403  1.4902
  183SLPC   H5Y21038   0.399   1.166   9.685 -0.0149 -1.1459  1.6797
  183SLPC   C3621039   0.499   1.011   9.561 -0.6693  0.2332  0.3824
  183SLPC   H6X21040   0.417   0.935   9.560  0.7014 -1.3267 -1.3233
  183SLPC   H6Y21041   0.599   0.964   9.569 -0.5663  0.4703  0.5077
  183SLPC   C3721042   0.482   1.085   9.422 -0.3064  0.0590  0.0203
  183SLPC   H7X21043   0.566   1.159   9.422 -1.1659  1.1026  1.6252
  183SLPC   H7Y21044   0.390   1.147   9.426  0.7011  1.8559 -2.2979
  183SLPC   C3821045   0.478   0.985   9.307 -0.6754 -0.3675 -0.0360
  183SLPC   H8X21046   0.386   0.925   9.327 -0.7335 -0.5477 -0.8183
  183SLPC   H8Y21047   0.572   0.925   9.312  0.3352  1.2715  2.4008
  183SLPC   C3921048   0.469   1.049   9.168 -1.0461 -0.2067  0.3184
  183SLPC   H9X21049   0.548   1.124   9.150 -0.9448 -0.6278 -1.0854
  183SLPC   H9Y21050   0.374   1.103   9.149 -0.0429  1.1124 -1.1106
  183SLPC  C31021051   0.491   0.943   9.064 -0.0791  0.2852  0.3177
  183SLPC  H10X21052   0.435   0.852   9.093 -1.2040  0.8983  0.1441
  183SLPC  H10Y21053   0.595   0.905   9.065 -0.5716 -1.2773 -1.5194
  183SLPC  C31121054   0.448   0.972   8.922  0.0214  0.3329  0.0005
  183SLPC  H11X21055   0.465   1.080   8.905  0.2789  0.5160  1.3215
  183SLPC  H11Y21056   0.339   0.954   8.910 -0.3408 -0.1955  3.1600
  183SLPC  C31221057   0.525   0.889   8.817  1.0287 -0.1091 -0.2206
  183SLPC  H12X21058   0.536   0.787   8.860 -1.8837 -0.4141 -0.0192
  183SLPC  H12Y21059   0.630   0.917   8.792  1.9444 -0.2231  3.0269
  183SLPC  C31321060   0.446   0.866   8.690  0.1797  0.8189 -0.1413
  183SLPC  H13X21061   0.419   0.964   8.645  1.4318  0.5631 -1.5088
  183SLPC  H13Y21062   0.351   0.808   8.697 -0.5986  2.2703  2.6196
  183SLPC  C31421063   0.526   0.778   8.594 -0.0651  0.6311 -0.3209
  183SLPC  H14X21064   0.546   0.680   8.643  0.3209  1.8729  2.1515
  183SLPC  H14Y21065   0.619   0.837   8.583  0.6306 -0.7544 -2.4486
  183SLPC  C31521066   0.460   0.755   8.459 -0.0147  0.5068 -0.0574
  183SLPC  H15X21067   0.475   0.850   8.405  1.7159  1.0019  1.2106
  183SLPC  H15Y21068   0.351   0.740   8.477  0.1294  1.4178  1.8183
  183SLPC  C31621069   0.511   0.636   8.372 -0.3465  0.0190  0.0080
  183SLPC  H16X21070   0.615   0.655   8.339 -0.3553 -1.7023 -1.1910
  183SLPC  H16Y21071   0.447   0.624   8.282  0.1677  3.0146 -0.8573
  183SLPC  C31721072   0.528   0.505   8.449 -0.3697 -0.2171  0.7817
  183SLPC  H17X21073   0.443   0.487   8.518 -0.5604 -1.7559  0.1879
  183SLPC  H17Y21074   0.625   0.503   8.502 -0.0041  0.2939  0.1472
  183SLPC  C31821075   0.541   0.389   8.350 -0.3685 -0.3061 -0.1123
  183SLPC  H18X21076   0.453   0.381   8.282 -0.3589  0.3086 -0.2015
  183SLPC  H18Y21077   0.531   0.297   8.412 -2.2607 -0.7573 -1.0049
  183SLPC  H18Z21078   0.639   0.396   8.300 -1.1531  2.4640 -1.4475
  184SLPC     N21079   3.064   4.047  10.936 -0.4528 -0.4797 -0.0998
  184SLPC   C1321080   3.101   4.117  11.054 -0.2548  0.0499  0.1620
  184SLPC  H13A21081   3.151   4.210  11.031  0.0278  0.1828  1.2122
  184SLPC  H13B21082   3.019   4.128  11.123 -1.2216 -0.0930 -0.9442
  184SLPC  H13C21083   3.182   4.067  11.106 -0.1765 -0.0105 -0.0184
  184SLPC   C1421084   3.027   3.901  10.956  0.3386  0.2658 -0.4733
  184SLPC  H14A21085   3.008   3.866  10.856  1.1980  1.3351 -1.0283
  184SLPC  H14B21086   3.120   3.849  10.973  0.3757  0.3918 -0.2931
  184SLPC  H14C21087   2.947   3.890  11.028  1.2059 -0.4970  0.4144
  184SLPC   C1521088   3.175   4.049  10.838 -0.2168  0.7346  0.7961
  184SLPC  H15A21089   3.191   4.146  10.794  0.1525  0.1797 -0.3175
  184SLPC  H15B21090   3.261   4.015  10.894 -0.3714 -2.8458 -0.8630
  184SLPC  H15C21091   3.156   3.988  10.752 -1.6174  2.6359 -0.3189
  184SLPC   C1221092   2.940   4.115  10.879 -0.0892 -0.3699 -0.6535
  184SLPC  H12A21093   2.970   4.213  10.847 -2.3998 -0.0395 -2.0100
  184SLPC  H12B21094   2.872   4.108  10.963  1.2391 -0.5359  0.4483
  184SLPC   C1121095   2.867   4.057  10.753  0.0624 -0.1185  0.2880
  184SLPC  H11A21096   2.762   4.092  10.757 -0.7368 -2.4278  1.4146
  184SLPC  H11B21097   2.857   3.946  10.751 -1.9926  0.0232 -1.5510
  184SLPC     P21098   2.964   4.237  10.592  0.0283  0.1302 -0.5438
  184SLPC   O1321099   2.840   4.317  10.605  0.4110  0.1214  0.1342
  184SLPC   O1421100   3.081   4.285  10.670  0.0099 -0.0975 -0.0885
  184SLPC   O1221101   2.927   4.089  10.631 -0.1507 -0.4048  0.4420
  184SLPC   O1121102   2.994   4.223  10.435  0.0336 -0.0641 -0.3943
  184SLPC    C121103   3.065   4.320  10.360 -0.3326 -0.2783 -0.6211
  184SLPC    HA21104   3.151   4.361  10.416  0.6829 -2.1608 -0.7250
  184SLPC    HB21105   3.098   4.278  10.262 -0.9099  0.4090 -1.1222
  184SLPC    C221106   2.973   4.441  10.316  0.3371 -0.1040  0.6319
  184SLPC    HS21107   2.908   4.470  10.402 -1.3310  0.4866 -0.7749
  184SLPC   O2121108   2.892   4.401  10.201 -0.0491  0.1310  0.2604
  184SLPC   C2121109   2.785   4.476  10.185  0.5690  0.3044  0.1953
  184SLPC   O2221110   2.750   4.566  10.255 -0.6412  0.5210 -0.3869
  184SLPC   C2221111   2.701   4.416  10.067  0.2335  0.1548 -0.3816
  184SLPC   H2R21112   2.640   4.336  10.113  1.4031 -2.0925 -2.5355
  184SLPC   H2S21113   2.639   4.498  10.025  1.4734  1.5732  0.4314
  184SLPC    C321114   3.052   4.571  10.284 -0.3612  0.2781 -0.8551
  184SLPC    HX21115   3.133   4.599  10.354  2.2870 -0.2987 -3.4928
  184SLPC    HY21116   2.980   4.656  10.284  0.1888  0.7467 -0.4204
  184SLPC   O3121117   3.103   4.561  10.149  0.1956  0.6740  0.2759
  184SLPC   C3121118   3.198   4.638  10.115  0.1521 -0.5163 -0.0138
  184SLPC   O3221119   3.262   4.717  10.187 -0.5186  0.4501 -0.1738
  184SLPC   C3221120   3.244   4.625   9.968  0.3451  0.1066 -0.2195
  184SLPC   H2X21121   3.162   4.651   9.898 -0.1110 -0.4210  0.1073
  184SLPC   H2Y21122   3.266   4.517   9.959  0.6939 -0.0242  1.7629
  184SLPC   C2321123   2.781   4.341   9.965  0.0749  0.0359  0.4311
  184SLPC   H3R21124   2.710   4.280   9.906  1.0816  0.4790 -1.3021
  184SLPC   H3S21125   2.851   4.273  10.018 -1.2979 -1.3261  0.5512
  184SLPC   C2421126   2.850   4.449   9.874  0.3343 -0.3911 -0.5618
  184SLPC   H4R21127   2.886   4.521   9.951  1.3347 -2.6540  1.1822
  184SLPC   H4S21128   2.777   4.506   9.811  0.0425 -1.7585 -1.4952
  184SLPC   C2521129   2.970   4.395   9.795 -0.6848 -0.5804 -0.6846
  184SLPC   H5R21130   3.018   4.329   9.869 -2.1171  0.1834  1.0019
  184SLPC   H5S21131   3.047   4.469   9.766  0.7030 -1.0928  1.5297
  184SLPC   C2621132   2.926   4.317   9.668 -0.0726  0.0216  0.0644
  184SLPC   H6R21133   2.820   4.290   9.683  0.0512 -0.1811  0.6176
  184SLPC   H6S21134   2.984   4.223   9.656 -1.6803 -0.8713 -1.0606
  184SLPC   C2721135   2.925   4.392   9.532 -0.8132 -0.6595  0.4135
  184SLPC   H7R21136   3.026   4.415   9.493 -0.6231 -1.0800  0.6480
  184SLPC   H7S21137   2.871   4.487   9.550 -2.0556 -1.0842 -0.8529
  184SLPC   C2821138   2.843   4.318   9.422 -0.3998  0.2429 -0.6738
  184SLPC   H8R21139   2.819   4.405   9.356 -0.2940  0.6995 -0.1210
  184SLPC   H8S21140   2.752   4.279   9.472 -0.0045 -0.9021 -0.8252
  184SLPC   C2921141   2.931   4.211   9.354 -0.3734 -0.5300  0.9440
  184SLPC   H9R21142   2.933   4.118   9.412 -2.1009 -0.1273  1.7171
  184SLPC  C21021143   2.985   4.216   9.227  0.5573  0.3989 -0.2789
  184SLPC  H10R21144   3.029   4.124   9.186  1.5340 -0.2430  2.0312
  184SLPC  C21121145   2.982   4.335   9.139  0.1937  0.5928  0.0618
  184SLPC  H11R21146   2.968   4.428   9.198  0.0402 -0.3177  1.4968
  184SLPC  H11S21147   2.905   4.312   9.062  2.1499 -1.3307 -1.4629
  184SLPC  C21221148   3.115   4.361   9.077  0.4664 -0.3993  0.1866
  184SLPC  H12R21149   3.180   4.418   9.145  1.2744  0.0022 -0.8985
  184SLPC  C21321150   3.158   4.331   8.955 -0.9372  0.1983 -0.0381
  184SLPC  H13R21151   3.265   4.341   8.933 -0.9142 -0.2946 -0.1806
  184SLPC  C21421152   3.085   4.257   8.853 -0.0927  0.1325  0.6316
  184SLPC  H14R21153   3.079   4.314   8.758  1.0136 -0.1307  0.3839
  184SLPC  H14S21154   2.978   4.259   8.881 -0.1722  0.7767  0.3007
  184SLPC  C21521155   3.147   4.121   8.828  0.7141  0.6723 -0.1948
  184SLPC  H15R21156   3.256   4.134   8.811  0.7400 -0.9118 -1.4312
  184SLPC  H15S21157   3.103   4.070   8.740  0.5141  0.9678 -0.2671
  184SLPC  C21621158   3.129   4.019   8.950 -0.3129 -0.4963  0.3498
  184SLPC  H16R21159   3.024   4.024   8.988 -0.6714 -1.6910 -0.4111
  184SLPC  H16S21160   3.200   4.046   9.031  1.2467 -0.9642 -0.8225
  184SLPC  C21721161   3.153   3.872   8.922 -0.0368 -0.2379  0.1044
  184SLPC  H17R21162   3.089   3.858   8.832 -0.3951  1.6527  0.0373
  184SLPC  H17S21163   3.110   3.805   9.000 -0.1625 -0.1452  0.1133
  184SLPC  C21821164   3.298   3.846   8.882 -0.8820 -0.6799 -0.1242
  184SLPC  H18R21165   3.364   3.864   8.970 -0.6920  1.5028 -0.6547
  184SLPC  H18S21166   3.343   3.923   8.816 -1.1034 -1.2330 -0.9315
  184SLPC  H18T21167   3.328   3.749   8.836 -1.6963 -0.8914 -0.2199
  184SLPC   C3321168   3.361   4.718   9.931  0.1626  0.0632  0.8429
  184SLPC   H3X21169   3.442   4.700  10.005 -0.0919 -0.3011  1.0356
  184SLPC   H3Y21170   3.344   4.827   9.942  0.3637  0.4342 -1.7931
  184SLPC   C3421171   3.404   4.706   9.789 -0.4084  0.4144  0.0547
  184SLPC   H4X21172   3.476   4.787   9.765 -0.1938  0.9897  2.3956
  184SLPC   H4Y21173   3.311   4.720   9.729 -0.9150  2.4761  1.2108
  184SLPC   C3521174   3.474   4.573   9.760 -0.4981 -1.1748  0.4118
  184SLPC   H5X21175   3.420   4.482   9.793  0.7214 -1.9114  0.4582
  184SLPC   H5Y21176   3.572   4.575   9.812  0.0658 -2.6088 -0.5333
  184SLPC   C3621177   3.493   4.543   9.607  0.6070  0.5476 -0.2731
  184SLPC   H6X21178   3.560   4.456   9.591  0.0980  0.0425  0.3355
  184SLPC   H6Y21179   3.539   4.632   9.558  0.1620  1.1724  0.4205
  184SLPC   C3721180   3.358   4.529   9.543 -0.0462 -0.7144  0.5923
  184SLPC   H7X21181   3.323   4.631   9.516  0.3682 -0.3209  1.5243
  184SLPC   H7Y21182   3.287   4.501   9.623 -0.9015 -3.0073 -0.8619
  184SLPC   C3821183   3.351   4.425   9.435  0.2699  0.3205 -0.1270
  184SLPC   H8X21184   3.252   4.377   9.421  0.0745  0.6554  0.0973
  184SLPC   H8Y21185   3.415   4.342   9.472  1.7651  1.8939  1.0154
  184SLPC   C3921186   3.401   4.482   9.306 -0.3332 -0.0717 -0.7852
  184SLPC   H9X21187   3.480   4.554   9.335  1.3412 -2.5251  1.1460
  184SLPC   H9Y21188   3.315   4.540   9.265 -0.2059 -0.9083 -2.3315
  184SLPC  C31021189   3.448   4.378   9.207  0.2482  0.0304 -0.1058
  184SLPC  H10X21190   3.377   4.294   9.189  1.6091 -0.6909 -2.4659
  184SLPC  H10Y21191   3.530   4.326   9.261 -1.0276 -2.8909 -0.8178
  184SLPC  C31121192   3.508   4.436   9.080  0.8652  0.4226  0.1909
  184SLPC  H11X21193   3.585   4.513   9.101  1.8985 -0.5625  0.1546
  184SLPC  H11Y21194   3.432   4.462   9.004 -0.2206 -3.5730 -0.3353
  184SLPC  C31221195   3.590   4.336   8.998  0.1760 -0.5522  0.3972
  184SLPC  H12X21196   3.661   4.289   9.069  1.0117 -0.9967 -0.7076
  184SLPC  H12Y21197   3.651   4.389   8.921  1.0157 -2.5473 -0.3685
  184SLPC  C31321198   3.514   4.220   8.935 -0.1356 -0.1606  0.1201
  184SLPC  H13X21199   3.462   4.271   8.851 -1.5861 -1.0479  0.4352
  184SLPC  H13Y21200   3.436   4.176   9.001  0.1379 -0.9438 -0.0734
  184SLPC  C31421201   3.613   4.113   8.886  0.0667  0.5250 -0.6698
  184SLPC  H14X21202   3.559   4.030   8.835 -0.8138  2.0295 -2.3060
  184SLPC  H14Y21203   3.664   4.066   8.974 -4.4806 -0.1498  1.9504
  184SLPC  C31521204   3.701   4.166   8.776 -0.4320  0.0773 -0.0802
  184SLPC  H15X21205   3.779   4.232   8.820 -0.9501  0.6245  0.0395
  184SLPC  H15Y21206   3.636   4.234   8.717 -0.3366  2.0381  1.8998
  184SLPC  C31621207   3.760   4.055   8.681 -0.0233  0.3779  0.1955
  184SLPC  H16X21208   3.778   4.117   8.590  0.8070 -2.7391 -1.9100
  184SLPC  H16Y21209   3.679   3.985   8.650 -1.5839  2.2661 -0.2103
  184SLPC  C31721210   3.895   4.001   8.722 -1.1776  0.2295  0.1717
  184SLPC  H17X21211   3.883   3.933   8.810  0.1739  0.1306  0.3060
  184SLPC  H17Y21212   3.963   4.086   8.742  0.4532 -0.5505 -1.7309
  184SLPC  C31821213   3.968   3.919   8.612  0.6889  0.5852  0.4740
  184SLPC  H18X21214   4.042   3.855   8.664 -1.2361 -1.4417  0.8495
  184SLPC  H18Y21215   4.017   3.983   8.536 -1.6165  0.2049 -1.4550
  184SLPC  H18Z21216   3.902   3.854   8.551  1.4453  0.4567 -0.2103
  185SLPC     N21217   1.661   5.556   5.928  0.8016  0.5913  0.6585
  185SLPC   C1321218   1.553   5.643   5.856 -0.2463  0.2572  0.1205
  185SLPC  H13A21219   1.582   5.674   5.757 -3.5114  1.0222 -0.7193
  185SLPC  H13B21220   1.455   5.599   5.844  0.4394 -1.4467  0.3474
  185SLPC  H13C21221   1.535   5.734   5.911 -1.8892  0.4058 -0.6078
  185SLPC   C1421222   1.789   5.627   5.928 -0.1275 -0.2981  0.0316
  185SLPC  H14A21223   1.781   5.708   5.998 -0.7526  0.3528 -0.7809
  185SLPC  H14B21224   1.874   5.571   5.963 -0.3206  0.5935  2.0803
  185SLPC  H14C21225   1.790   5.666   5.827 -1.8230 -0.8167 -0.2172
  185SLPC   C1521226   1.686   5.440   5.839 -0.1982 -0.1649 -0.1003
  185SLPC  H15A21227   1.742   5.363   5.889 -0.9538 -0.1703  0.7543
  185SLPC  H15B21228   1.601   5.380   5.812 -0.4890  0.2333 -0.0787
  185SLPC  H15C21229   1.724   5.464   5.741  0.6655 -2.6400 -0.4499
  185SLPC   C1221230   1.604   5.523   6.067  0.4424  0.2363  0.0096
  185SLPC  H12A21231   1.670   5.452   6.116  1.3185  0.6667 -0.5176
  185SLPC  H12B21232   1.510   5.472   6.049  0.5366 -0.2137  0.7790
  185SLPC   C1121233   1.577   5.635   6.160 -0.6669 -0.6000  0.0409
  185SLPC  H11A21234   1.517   5.596   6.244 -1.5251  3.0941  1.3086
  185SLPC  H11B21235   1.523   5.721   6.115 -0.3139  0.4638  1.5591
  185SLPC     P21236   1.773   5.635   6.332 -0.0644 -0.1266  0.0863
  185SLPC   O1321237   1.788   5.487   6.313 -0.1275 -0.0980 -0.1281
  185SLPC   O1421238   1.890   5.715   6.360 -0.2938  0.2765 -0.5696
  185SLPC   O1221239   1.705   5.688   6.197  0.3047  0.0884 -0.1564
  185SLPC   O1121240   1.660   5.657   6.453  0.2345  0.7825  0.1539
  185SLPC    C121241   1.637   5.797   6.479  0.1177  0.1528  0.2869
  185SLPC    HA21242   1.727   5.826   6.537  0.3072 -0.6630  0.4195
  185SLPC    HB21243   1.637   5.848   6.381  1.2357 -1.1224 -0.4101
  185SLPC    C221244   1.513   5.835   6.568 -0.0400 -0.2762  0.3875
  185SLPC    HS21245   1.505   5.943   6.593 -0.8333 -0.0688 -0.7005
  185SLPC   O2121246   1.523   5.762   6.689  0.7043 -0.1930 -0.2007
  185SLPC   C2121247   1.580   5.825   6.791  0.1504  0.6336 -0.7561
  185SLPC   O2221248   1.646   5.928   6.791  0.6368  0.2768 -0.4654
  185SLPC   C2221249   1.553   5.745   6.912 -0.8581 -0.1490 -0.9032
  185SLPC   H2R21250   1.446   5.718   6.920 -0.4072 -1.6405  1.0147
  185SLPC   H2S21251   1.615   5.652   6.916  1.5695  1.3788  3.1165
  185SLPC    C321252   1.389   5.775   6.501  0.0136 -0.3776  0.0905
  185SLPC    HX21253   1.398   5.664   6.505  0.0615 -0.3678  0.2394
  185SLPC    HY21254   1.390   5.802   6.393  1.7755  2.5365  0.7205
  185SLPC   O3121255   1.270   5.815   6.572 -0.0607  0.1179 -0.5811
  185SLPC   C3121256   1.169   5.854   6.494 -0.6875 -0.7876  1.4297
  185SLPC   O3221257   1.181   5.855   6.374 -0.2296 -0.0779 -0.3509
  185SLPC   C3221258   1.045   5.898   6.576  0.4954 -0.5044 -0.1655
  185SLPC   H2X21259   0.958   5.833   6.552  0.3679 -0.4416  0.1179
  185SLPC   H2Y21260   1.024   5.996   6.528  2.3481 -0.0718 -0.1673
  185SLPC   C2321261   1.594   5.823   7.039  0.6610  0.7431  0.9638
  185SLPC   H3R21262   1.513   5.898   7.050 -0.9809 -0.7850 -0.1552
  185SLPC   H3S21263   1.693   5.871   7.028  1.0368 -0.3660 -0.9275
  185SLPC   C2421264   1.590   5.721   7.156  0.0722  0.2239 -0.8634
  185SLPC   H4R21265   1.676   5.651   7.147 -1.2992 -1.5977 -0.3868
  185SLPC   H4S21266   1.498   5.659   7.153  0.2214 -0.0857  0.4922
  185SLPC   C2521267   1.589   5.795   7.291  0.2383 -0.1987 -0.5428
  185SLPC   H5R21268   1.499   5.860   7.303 -0.0495 -0.9595  2.1330
  185SLPC   H5S21269   1.682   5.855   7.299 -0.6801  1.2657 -0.5825
  185SLPC   C2621270   1.584   5.700   7.409 -0.1433 -0.6055  0.2837
  185SLPC   H6R21271   1.594   5.758   7.503  2.6227 -2.7866  1.4630
  185SLPC   H6S21272   1.676   5.638   7.410 -0.5943 -1.2910  0.1580
  185SLPC   C2721273   1.461   5.602   7.425 -0.0957 -0.0339 -0.3018
  185SLPC   H7R21274   1.484   5.527   7.346  1.4685  0.6125 -0.5015
  185SLPC   H7S21275   1.367   5.650   7.392 -1.3465 -3.1822 -1.6758
  185SLPC   C2821276   1.424   5.542   7.563 -0.1318  0.0903 -0.4519
  185SLPC   H8R21277   1.351   5.461   7.540 -1.0699  0.7331  0.1929
  185SLPC   H8S21278   1.371   5.617   7.625 -0.3229 -1.0749  0.8271
  185SLPC   C2921279   1.546   5.483   7.639  0.5557  0.2076  0.0074
  185SLPC   H9R21280   1.633   5.469   7.572 -1.2618 -0.0733 -2.4053
  185SLPC  C21021281   1.534   5.423   7.762  0.1292 -0.2028 -0.3368
  185SLPC  H10R21282   1.623   5.376   7.807 -0.4499 -0.7593  0.2382
  185SLPC  C21121283   1.406   5.417   7.849  0.4070 -0.1614  0.6218
  185SLPC  H11R21284   1.390   5.310   7.875  0.4674 -0.3562 -0.1252
  185SLPC  H11S21285   1.314   5.449   7.794 -0.1190 -1.6363  0.6026
  185SLPC  C21221286   1.417   5.508   7.973 -0.3253  0.1278 -0.9330
  185SLPC  H12R21287   1.417   5.616   7.956  1.6146  0.2394 -0.5396
  185SLPC  C21321288   1.418   5.456   8.100 -0.2935 -0.3599  0.4370
  185SLPC  H13R21289   1.425   5.531   8.180  0.4057  0.4274 -0.3338
  185SLPC  C21421290   1.413   5.311   8.151  0.0489  0.3343  0.4285
  185SLPC  H14R21291   1.380   5.248   8.067 -1.5023  1.1734  0.3739
  185SLPC  H14S21292   1.348   5.307   8.241 -0.2050  0.0211  0.2325
  185SLPC  C21521293   1.549   5.252   8.205  0.1992  0.0677  0.2252
  185SLPC  H15R21294   1.574   5.313   8.295 -2.3733  0.6527  0.6256
  185SLPC  H15S21295   1.624   5.275   8.126  1.7772  2.9895  2.3268
  185SLPC  C21621296   1.551   5.101   8.229 -0.3385 -0.3547  0.3198
  185SLPC  H16R21297   1.474   5.071   8.304 -0.2348  1.7617  1.3740
  185SLPC  H16S21298   1.646   5.067   8.275 -0.5716  0.6883  1.6556
  185SLPC  C21721299   1.527   5.030   8.100  1.0275 -0.3790  0.7469
  185SLPC  H17R21300   1.599   5.073   8.027 -2.3237  3.3401 -0.7152
  185SLPC  H17S21301   1.422   5.043   8.067  0.7489 -0.8087  1.4302
  185SLPC  C21821302   1.535   4.883   8.111  0.4081  1.3867 -0.4609
  185SLPC  H18R21303   1.532   4.833   8.011  0.7690 -0.1287  0.2634
  185SLPC  H18S21304   1.458   4.827   8.167  0.6996  0.2515 -1.1646
  185SLPC  H18T21305   1.626   4.848   8.163 -1.3970  0.7743  2.5221
  185SLPC   C3321306   1.062   5.913   6.727  0.4114  0.0347 -0.0579
  185SLPC   H3X21307   1.143   5.986   6.750 -0.1924  0.4026  1.0112
  185SLPC   H3Y21308   1.092   5.811   6.759 -0.4184 -0.3646 -0.4980
  185SLPC   C3421309   0.936   5.957   6.799 -0.5109 -0.3681 -0.3121
  185SLPC   H4X21310   0.869   5.869   6.813  1.3620 -2.1009 -1.8039
  185SLPC   H4Y21311   0.875   6.031   6.744  0.9486  0.1470 -1.2889
  185SLPC   C3521312   0.969   6.022   6.936  0.7619  0.5246 -0.2977
  185SLPC   H5X21313   0.877   6.076   6.965  1.0387  1.8219 -1.6379
  185SLPC   H5Y21314   1.047   6.099   6.912 -0.8701  1.5811 -2.6413
  185SLPC   C3621315   1.025   5.942   7.052 -0.2309 -0.7042 -0.3839
  185SLPC   H6X21316   1.125   5.911   7.016 -0.8728 -0.6694 -2.3618
  185SLPC   H6Y21317   0.962   5.852   7.071  0.4883 -1.1120  0.0993
  185SLPC   C3721318   1.033   6.030   7.175 -0.2629  0.2150 -0.9130
  185SLPC   H7X21319   0.936   6.037   7.228  0.6884  1.0253  0.7944
  185SLPC   H7Y21320   1.060   6.137   7.164 -1.8390  0.6553 -0.7044
  185SLPC   C3821321   1.116   5.955   7.282 -0.0300 -0.5113  0.2635
  185SLPC   H8X21322   1.220   5.939   7.247 -0.6544 -0.6579 -1.6704
  185SLPC   H8Y21323   1.082   5.849   7.287  1.6662 -1.1034 -0.1610
  185SLPC   C3921324   1.139   6.018   7.415  0.5541  1.0455 -0.5295
  185SLPC   H9X21325   1.038   6.015   7.462  0.7824  0.5519 -0.0699
  185SLPC   H9Y21326   1.173   6.124   7.408  0.2229  1.0951 -1.6557
  185SLPC  C31021327   1.230   5.936   7.509 -0.1066 -0.4237 -0.7351
  185SLPC  H10X21328   1.315   5.900   7.447 -0.8628 -1.9628 -0.9237
  185SLPC  H10Y21329   1.180   5.843   7.543 -0.4079  1.0522  3.4413
  185SLPC  C31121330   1.280   6.017   7.626  0.2253 -0.7227 -0.0505
  185SLPC  H11X21331   1.195   6.060   7.682  1.3520  0.2699  0.9461
  185SLPC  H11Y21332   1.357   6.093   7.599  0.6604 -1.2084 -0.1917
  185SLPC  C31221333   1.360   5.925   7.721 -0.7728  0.3772  0.4777
  185SLPC  H12X21334   1.432   5.869   7.658 -2.1925 -1.1294  0.1415
  185SLPC  H12Y21335   1.297   5.850   7.773 -0.6495  0.8104  1.2761
  185SLPC  C31321336   1.423   6.000   7.838  0.0564 -0.7950 -0.0079
  185SLPC  H13X21337   1.355   6.078   7.878  0.1597  0.8332 -2.7422
  185SLPC  H13Y21338   1.492   6.073   7.790 -0.5232  0.2327  0.6579
  185SLPC  C31421339   1.497   5.918   7.937 -0.8755 -0.6792  0.3478
  185SLPC  H14X21340   1.581   5.977   7.979  0.0375 -1.5570 -0.2088
  185SLPC  H14Y21341   1.538   5.824   7.894 -1.0397  0.0976 -1.6009
  185SLPC  C31521342   1.410   5.892   8.059 -0.0664  0.2462  0.1826
  185SLPC  H15X21343   1.354   5.800   8.031 -0.0350  0.1648  0.3896
  185SLPC  H15Y21344   1.338   5.974   8.076  1.5505  1.7779 -0.1027
  185SLPC  C31621345   1.506   5.869   8.183 -0.1314  0.5426 -0.0618
  185SLPC  H16X21346   1.574   5.957   8.192  3.0403 -1.6429 -1.0294
  185SLPC  H16Y21347   1.567   5.783   8.152  0.6306  0.8217  0.6241
  185SLPC  C31721348   1.425   5.840   8.310 -0.0543 -0.2469  0.3444
  185SLPC  H17X21349   1.486   5.810   8.398 -0.2810 -1.2641  0.1714
  185SLPC  H17Y21350   1.354   5.755   8.297 -1.2067  0.5302  1.2785
  185SLPC  C31821351   1.351   5.963   8.375  0.2690 -0.1593  0.7344
  185SLPC  H18X21352   1.312   6.014   8.284 -1.4173 -2.0311  0.3421
  185SLPC  H18Y21353   1.418   6.036   8.425 -0.6193 -0.5532  2.5973
  185SLPC  H18Z21354   1.265   5.947   8.443  0.0426  1.5895  0.9053
  186SLPC     N21355   1.617   2.961   6.094 -0.2185  0.6121  0.9486
  186SLPC   C1321356   1.631   3.104   6.042 -0.6568  0.3269 -0.5121
  186SLPC  H13A21357   1.736   3.129   6.042 -0.6388  0.4802  2.1891
  186SLPC  H13B21358   1.596   3.107   5.939 -1.1160 -1.9331 -0.4736
  186SLPC  H13C21359   1.575   3.174   6.103 -2.8143 -1.8695  0.1690
  186SLPC   C1421360   1.669   2.857   5.998  0.3451  0.3899 -0.3524
  186SLPC  H14A21361   1.631   2.883   5.900 -2.3159  1.4568  0.8467
  186SLPC  H14B21362   1.777   2.854   5.999  0.3187 -1.0451  0.2957
  186SLPC  H14C21363   1.628   2.759   6.020 -1.2645  0.9595 -0.6553
  186SLPC   C1521364   1.473   2.928   6.108 -0.6159  0.2523  0.0771
  186SLPC  H15A21365   1.430   2.923   6.009  0.1775 -2.5614 -0.1941
  186SLPC  H15B21366   1.460   2.832   6.154  4.4616 -0.9819 -0.4510
  186SLPC  H15C21367   1.426   3.009   6.161 -0.4743  1.7002 -1.8730
  186SLPC   C1221368   1.681   2.952   6.231  0.1495 -0.7372 -0.0712
  186SLPC  H12A21369   1.651   2.862   6.283  1.5889 -1.0839  0.2206
  186SLPC  H12B21370   1.632   3.029   6.289 -0.6958  0.0311 -1.7370
  186SLPC   C1121371   1.837   2.969   6.242  0.2411 -0.9452 -0.2581
  186SLPC  H11A21372   1.853   2.979   6.352  1.1524  1.5819 -0.5588
  186SLPC  H11B21373   1.860   3.067   6.196 -1.0847 -0.9811 -1.0390
  186SLPC     P21374   1.911   2.721   6.236  0.2738  0.0165 -0.1359
  186SLPC   O1321375   1.783   2.688   6.302  0.1865  0.1656  0.2631
  186SLPC   O1421376   1.966   2.635   6.133  0.2823 -0.1754 -0.0622
  186SLPC   O1221377   1.911   2.866   6.185 -0.2232 -0.0650  0.2708
  186SLPC   O1121378   2.019   2.733   6.352  0.2251  0.5089  0.1837
  186SLPC    C121379   2.158   2.741   6.318  0.4516 -0.0518  0.2955
  186SLPC    HA21380   2.208   2.642   6.326 -0.5880 -0.6540 -0.2941
  186SLPC    HB21381   2.172   2.784   6.216  0.4311  0.2300  0.4103
  186SLPC    C221382   2.232   2.831   6.417  0.3034 -0.3690 -0.1652
  186SLPC    HS21383   2.340   2.827   6.390  0.6265  1.1535  0.7861
  186SLPC   O2121384   2.201   2.786   6.548  0.5661 -0.1300 -0.0145
  186SLPC   C2121385   2.292   2.773   6.636 -0.7736 -0.6421  0.9778
  186SLPC   O2221386   2.411   2.810   6.622  0.4780 -0.3812  0.8050
  186SLPC   C2221387   2.241   2.691   6.752 -0.0237 -0.0888  0.2878
  186SLPC   H2R21388   2.146   2.735   6.788 -2.3442 -1.8287 -3.2187
  186SLPC   H2S21389   2.212   2.594   6.707  0.0000 -0.2325  0.5855
  186SLPC    C321390   2.188   2.971   6.406 -1.0420 -0.0769  0.9490
  186SLPC    HX21391   2.079   2.974   6.423 -1.1553 -0.2548  0.2772
  186SLPC    HY21392   2.198   3.013   6.303  0.0145  1.9675  1.8199
  186SLPC   O3121393   2.256   3.059   6.497 -0.0013  0.5151  0.2145
  186SLPC   C3121394   2.375   3.096   6.455  0.2245 -0.1017  0.0804
  186SLPC   O3221395   2.429   3.061   6.354 -0.1947 -0.5307  0.3248
  186SLPC   C3221396   2.435   3.188   6.565  0.5399  0.4678 -0.2329
  186SLPC   H2X21397   2.375   3.172   6.658  1.5436  1.8523  0.6987
  186SLPC   H2Y21398   2.422   3.294   6.535  2.6319  1.2305  1.3001
  186SLPC   C2321399   2.341   2.667   6.867  0.2079  0.0973  0.1898
  186SLPC   H3R21400   2.364   2.760   6.923 -2.0161 -0.0667  1.5246
  186SLPC   H3S21401   2.437   2.632   6.825  0.9345  2.0967  0.1105
  186SLPC   C2421402   2.295   2.564   6.970 -0.5175 -0.4847 -0.2005
  186SLPC   H4R21403   2.246   2.476   6.922 -0.3388 -1.4669  1.3663
  186SLPC   H4S21404   2.211   2.614   7.023 -0.3741 -1.4198  0.9474
  186SLPC   C2521405   2.400   2.512   7.063 -0.0327 -0.4601  0.1495
  186SLPC   H5R21406   2.494   2.498   7.005 -1.0420  1.2230 -2.0051
  186SLPC   H5S21407   2.375   2.415   7.111  0.6732 -1.6737 -1.8238
  186SLPC   C2621408   2.425   2.613   7.183  0.1472 -0.1915  0.0231
  186SLPC   H6R21409   2.341   2.623   7.255  1.2558  2.0633  1.0931
  186SLPC   H6S21410   2.439   2.708   7.127 -0.1343 -0.7369 -1.0053
  186SLPC   C2721411   2.554   2.581   7.259 -0.2580  0.2179 -0.5363
  186SLPC   H7R21412   2.579   2.683   7.296  0.7419 -0.6180  1.1909
  186SLPC   H7S21413   2.631   2.538   7.192 -0.3793 -0.1818 -0.4183
  186SLPC   C2821414   2.532   2.494   7.385 -0.9814  0.2004  0.2174
  186SLPC   H8R21415   2.501   2.393   7.350 -0.1436  0.4152 -1.1958
  186SLPC   H8S21416   2.445   2.537   7.440 -1.6602 -2.1201  1.0809
  186SLPC   C2921417   2.650   2.486   7.485 -0.1244 -0.5293 -0.4166
  186SLPC   H9R21418   2.701   2.388   7.484 -1.0867 -1.0456 -0.2675
  186SLPC  C21021419   2.660   2.562   7.591 -0.2103  0.2018 -0.5720
  186SLPC  H10R21420   2.753   2.545   7.648 -1.0571 -4.0273 -0.1476
  186SLPC  C21121421   2.572   2.675   7.629  0.1822 -0.3167  0.2070
  186SLPC  H11R21422   2.480   2.636   7.678 -0.5499  1.9153  0.7421
  186SLPC  H11S21423   2.537   2.738   7.545  0.0507  0.4378  0.8125
  186SLPC  C21221424   2.638   2.763   7.729  0.4072 -0.4603 -0.3707
  186SLPC  H12R21425   2.685   2.856   7.694 -0.5901 -0.0536 -0.6489
  186SLPC  C21321426   2.637   2.732   7.854 -0.2324 -0.0761 -0.4817
  186SLPC  H13R21427   2.685   2.785   7.938 -0.6492 -0.5712  0.0828
  186SLPC  C21421428   2.576   2.602   7.912 -0.6821 -0.1867  0.2482
  186SLPC  H14R21429   2.635   2.514   7.879  0.4194  0.5496  0.2327
  186SLPC  H14S21430   2.475   2.582   7.869 -1.5943  1.3830  1.5483
  186SLPC  C21521431   2.548   2.597   8.058  0.1272 -0.5933 -0.2142
  186SLPC  H15R21432   2.504   2.499   8.085 -0.8460 -0.0083  0.4051
  186SLPC  H15S21433   2.472   2.676   8.078 -0.4093 -0.9640 -0.7462
  186SLPC  C21621434   2.663   2.611   8.158 -0.1530 -0.2082  0.0949
  186SLPC  H16R21435   2.703   2.715   8.158 -0.0802 -0.1852 -2.1124
  186SLPC  H16S21436   2.738   2.533   8.133  0.6293  0.8878 -1.2096
  186SLPC  C21721437   2.617   2.583   8.304  0.2334 -0.2834  0.1068
  186SLPC  H17R21438   2.588   2.476   8.309  1.7043 -0.6758  0.9029
  186SLPC  H17S21439   2.531   2.648   8.329 -0.3577 -1.1437  0.3578
  186SLPC  C21821440   2.731   2.602   8.397  1.6980  0.1866  0.5887
  186SLPC  H18R21441   2.769   2.706   8.389  0.3507  0.5693 -1.1931
  186SLPC  H18S21442   2.807   2.521   8.387 -0.1792 -1.5533 -0.3756
  186SLPC  H18T21443   2.693   2.588   8.501  0.9877  0.6500  0.3909
  186SLPC   C3321444   2.583   3.155   6.602 -0.2694  0.8247 -0.0278
  186SLPC   H3X21445   2.635   3.151   6.504  0.9408  1.7459  0.5529
  186SLPC   H3Y21446   2.587   3.058   6.655  2.6146  0.6433 -0.4267
  186SLPC   C3421447   2.659   3.254   6.687 -0.2956  0.0080 -0.4525
  186SLPC   H4X21448   2.593   3.293   6.767 -0.4412  0.7420 -0.9238
  186SLPC   H4Y21449   2.668   3.349   6.631 -0.2103  0.0830 -0.3103
  186SLPC   C3521450   2.792   3.209   6.748 -0.0943 -1.0939 -0.3498
  186SLPC   H5X21451   2.853   3.164   6.666  0.7053  0.0386 -0.3956
  186SLPC   H5Y21452   2.773   3.121   6.814 -1.0590  0.4453  1.5159
  186SLPC   C3621453   2.873   3.327   6.818  0.0210  0.6594 -0.3163
  186SLPC   H6X21454   2.821   3.425   6.811  0.8876  1.1264 -0.3416
  186SLPC   H6Y21455   2.970   3.335   6.765  0.5983  0.7866  0.7350
  186SLPC   C3721456   2.903   3.284   6.966 -0.3343  0.0292  0.4597
  186SLPC   H7X21457   2.983   3.355   6.996  0.6701 -0.4542 -0.9164
  186SLPC   H7Y21458   2.941   3.180   6.962  0.4810  0.1684  2.9079
  186SLPC   C3821459   2.793   3.284   7.067 -0.5500  0.1181  0.4373
  186SLPC   H8X21460   2.706   3.226   7.029 -1.2077  0.6066  1.1759
  186SLPC   H8Y21461   2.757   3.388   7.082  0.7880  0.6876 -0.2151
  186SLPC   C3921462   2.829   3.224   7.202 -0.4531 -0.2004 -0.3565
  186SLPC   H9X21463   2.910   3.148   7.198  1.0282  1.1469  1.9139
  186SLPC   H9Y21464   2.739   3.170   7.238  1.2032 -2.0598  1.2234
  186SLPC  C31021465   2.860   3.324   7.311  0.2397 -0.4412  0.4528
  186SLPC  H10X21466   2.796   3.415   7.308 -0.1883 -0.7363  0.5859
  186SLPC  H10Y21467   2.962   3.362   7.287  0.4064 -1.1715  0.0011
  186SLPC  C31121468   2.847   3.267   7.440 -0.7225 -0.6224  0.0606
  186SLPC  H11X21469   2.748   3.219   7.453 -0.4249 -1.3386 -0.2672
  186SLPC  H11Y21470   2.861   3.350   7.513  0.9738 -0.4669 -0.4048
  186SLPC  C31221471   2.957   3.166   7.485 -0.2371 -0.2945  0.4491
  186SLPC  H12X21472   3.054   3.220   7.490  0.2412 -1.2335  2.8184
  186SLPC  H12Y21473   2.972   3.088   7.407 -0.5482  2.4529 -2.5484
  186SLPC  C31321474   2.947   3.103   7.620  0.0717 -0.4830  0.1211
  186SLPC  H13X21475   3.050   3.084   7.659 -0.2250 -0.4065  0.9686
  186SLPC  H13Y21476   2.887   3.010   7.622  0.4149 -0.7076  0.1447
  186SLPC  C31421477   2.893   3.203   7.722  0.0646 -0.2944 -0.0383
  186SLPC  H14X21478   2.794   3.239   7.687  1.3829  0.0465 -3.7961
  186SLPC  H14Y21479   2.960   3.290   7.739  0.7401 -1.1084  1.7568
  186SLPC  C31521480   2.862   3.135   7.857 -0.8205 -0.0737  0.3387
  186SLPC  H15X21481   2.942   3.067   7.894  1.3136  2.5768  0.9005
  186SLPC  H15Y21482   2.770   3.073   7.845  0.4121 -1.7573 -1.0079
  186SLPC  C31621483   2.847   3.246   7.968 -0.6636  0.4690 -0.0879
  186SLPC  H16X21484   2.777   3.323   7.931 -1.9980 -0.8031 -0.3148
  186SLPC  H16Y21485   2.944   3.298   7.988 -0.8887 -0.1076  3.0799
  186SLPC  C31721486   2.800   3.186   8.096 -0.4714  0.5747 -0.1660
  186SLPC  H17X21487   2.727   3.106   8.068  0.3173 -0.2780  0.1579
  186SLPC  H17Y21488   2.747   3.256   8.164 -0.6522  2.5074 -2.1856
  186SLPC  C31821489   2.916   3.117   8.176 -0.2156  0.6803  0.1820
  186SLPC  H18X21490   2.980   3.054   8.110 -0.3801 -2.7857  3.0175
  186SLPC  H18Y21491   2.882   3.039   8.247  0.6523 -0.5316 -0.6951
  186SLPC  H18Z21492   2.986   3.190   8.222 -0.8167  2.0980 -1.0590
  187SLPC     N21493   3.663   6.409   6.280  0.2937 -0.3221 -0.0768
  187SLPC   C1321494   3.759   6.309   6.231  0.3184  0.7029 -0.2193
  187SLPC  H13A21495   3.750   6.218   6.289 -2.0893 -0.1399 -1.7534
  187SLPC  H13B21496   3.723   6.272   6.136  0.7415  0.5146 -0.3093
  187SLPC  H13C21497   3.860   6.347   6.225  1.2129 -1.4454  0.1347
  187SLPC   C1421498   3.668   6.413   6.431 -0.1881  0.0120 -1.0687
  187SLPC  H14A21499   3.597   6.484   6.468 -1.6194 -1.2749 -1.2403
  187SLPC  H14B21500   3.629   6.319   6.467 -1.0539  1.0905  0.9621
  187SLPC  H14C21501   3.773   6.424   6.453 -0.7694  0.9989  1.5128
  187SLPC   C1521502   3.523   6.369   6.249  0.5532 -0.5164 -0.2867
  187SLPC  H15A21503   3.500   6.264   6.259 -1.2359 -0.2361 -1.1626
  187SLPC  H15B21504   3.460   6.437   6.306  0.8962  1.4485 -2.1247
  187SLPC  H15C21505   3.503   6.401   6.148  0.0477  0.4191  0.1005
  187SLPC   C1221506   3.691   6.544   6.214 -0.2407  0.5209  0.0353
  187SLPC  H12A21507   3.650   6.621   6.277  0.8743  0.7189  0.5378
  187SLPC  H12B21508   3.649   6.561   6.116  1.0899 -0.9729 -0.8487
  187SLPC   C1121509   3.839   6.579   6.198 -0.3594  0.8759  0.5064
  187SLPC  H11A21510   3.864   6.671   6.142 -0.2323  1.5856  1.7072
  187SLPC  H11B21511   3.879   6.501   6.129 -1.0167  1.6468 -0.7903
  187SLPC     P21512   3.929   6.695   6.407 -0.2697 -0.0998  0.4694
  187SLPC   O1321513   3.993   6.799   6.320  0.1158  0.5025 -0.7757
  187SLPC   O1421514   3.801   6.732   6.472 -0.1833 -0.4872 -0.3001
  187SLPC   O1221515   3.914   6.568   6.316  0.1564 -0.2600  0.1147
  187SLPC   O1121516   4.035   6.646   6.511 -0.1824  0.2335  0.4101
  187SLPC    C121517   4.159   6.590   6.466 -0.1787  0.6450  0.4174
  187SLPC    HA21518   4.154   6.485   6.431 -0.3729  1.4620 -2.1652
  187SLPC    HB21519   4.200   6.647   6.380  0.2448  0.3197  0.4002
  187SLPC    C221520   4.264   6.594   6.580 -0.1443  0.1327 -0.4538
  187SLPC    HS21521   4.363   6.578   6.531  0.8487  1.4388  1.0406
  187SLPC   O2121522   4.234   6.495   6.674 -0.9451 -0.0809  0.6416
  187SLPC   C2121523   4.309   6.448   6.768  0.8443 -0.4945  0.5763
  187SLPC   O2221524   4.431   6.474   6.772  0.1431 -0.0937  0.2842
  187SLPC   C2221525   4.232   6.372   6.869  0.0491  0.2605  0.3923
  187SLPC   H2R21526   4.168   6.307   6.806  0.2280 -0.0114  0.4928
  187SLPC   H2S21527   4.305   6.316   6.931 -3.0190 -1.4201  2.7611
  187SLPC    C321528   4.256   6.736   6.635 -0.2598  0.2936  0.0348
  187SLPC    HX21529   4.158   6.760   6.681 -0.6405  0.5231 -0.8625
  187SLPC    HY21530   4.271   6.810   6.553 -0.9804  2.3980  1.7265
  187SLPC   O3121531   4.352   6.766   6.738 -0.4431  0.1045 -0.0204
  187SLPC   C3121532   4.477   6.805   6.703  0.7136 -0.4930  0.3752
  187SLPC   O3221533   4.521   6.816   6.590  0.6612  0.0843  0.2588
  187SLPC   C3221534   4.571   6.835   6.826  0.5234  0.7544  0.1114
  187SLPC   H2X21535   4.489   6.858   6.896 -1.5397 -3.0999 -0.7512
  187SLPC   H2Y21536   4.645   6.915   6.803  1.9768 -0.7157 -0.5059
  187SLPC   C2321537   4.147   6.466   6.951 -0.4751 -0.5277 -0.2720
  187SLPC   H3R21538   4.074   6.411   7.015 -1.8377  1.0194 -0.4348
  187SLPC   H3S21539   4.079   6.531   6.892  0.5845 -1.1208 -2.2159
  187SLPC   C2421540   4.233   6.540   7.055  0.8001  0.0497 -0.1371
  187SLPC   H4R21541   4.320   6.586   7.003  1.0621  1.6747  1.6526
  187SLPC   H4S21542   4.265   6.463   7.128 -0.0909  0.1156  0.3278
  187SLPC   C2521543   4.160   6.650   7.131  0.0110 -0.3589  0.1237
  187SLPC   H5R21544   4.155   6.736   7.061 -0.4996 -1.1466 -0.8420
  187SLPC   H5S21545   4.233   6.669   7.212 -0.9101  0.8640  0.6906
  187SLPC   C2621546   4.024   6.606   7.190 -0.6471  0.3260 -0.0778
  187SLPC   H6R21547   3.958   6.578   7.105 -1.8431 -0.4845  1.0721
  187SLPC   H6S21548   3.969   6.694   7.229 -0.4925  0.8405 -0.9947
  187SLPC   C2721549   4.029   6.500   7.299 -0.6577  0.1313  0.0579
  187SLPC   H7R21550   4.077   6.404   7.269 -1.5584 -0.2882 -0.1025
  187SLPC   H7S21551   3.925   6.481   7.335 -0.1603  0.9750  2.0347
  187SLPC   C2821552   4.089   6.570   7.427 -0.2346  0.0472  0.5831
  187SLPC   H8R21553   4.047   6.672   7.444  0.1322  0.3822 -0.4690
  187SLPC   H8S21554   4.194   6.597   7.405 -0.3153  0.1331  0.3052
  187SLPC   C2921555   4.077   6.471   7.537  0.2441  0.4335  0.7649
  187SLPC   H9R21556   4.145   6.388   7.512 -1.4774 -0.5549 -0.8821
  187SLPC  C21021557   3.982   6.464   7.634 -0.2419  0.2267  0.1338
  187SLPC  H10R21558   3.992   6.381   7.706 -1.5615 -1.6882 -1.7393
  187SLPC  C21121559   3.866   6.561   7.643  0.0221 -0.9869 -0.4983
  187SLPC  H11R21560   3.773   6.503   7.663 -1.2580  1.2921  0.5514
  187SLPC  H11S21561   3.848   6.609   7.544 -2.0372  0.0285  0.3049
  187SLPC  C21221562   3.883   6.669   7.752 -0.2710 -0.2948  0.4183
  187SLPC  H12R21563   3.936   6.759   7.717 -0.4666 -0.9011 -1.5206
  187SLPC  C21321564   3.847   6.660   7.880  0.7431  0.2582  0.3800
  187SLPC  H13R21565   3.881   6.737   7.950 -0.7199 -0.4332  1.9558
  187SLPC  C21421566   3.775   6.533   7.931  0.1597  0.1476 -0.1542
  187SLPC  H14R21567   3.785   6.444   7.865  0.9263  1.5513 -2.0360
  187SLPC  H14S21568   3.669   6.548   7.960 -0.0098 -0.3156 -0.5278
  187SLPC  C21521569   3.851   6.503   8.064  0.0258 -0.2215  0.3372
  187SLPC  H15R21570   3.800   6.416   8.111  1.8009 -1.6444 -0.2882
  187SLPC  H15S21571   3.857   6.588   8.135 -0.9016 -0.1388  0.3386
  187SLPC  C21621572   3.990   6.443   8.042  0.1664  0.4055 -0.8248
  187SLPC  H16R21573   4.058   6.527   8.015  0.8451 -0.4354 -1.7954
  187SLPC  H16S21574   4.000   6.374   7.956 -0.2466 -0.4070 -0.2275
  187SLPC  C21721575   4.063   6.392   8.172 -0.6866  0.8762 -0.5614
  187SLPC  H17R21576   4.027   6.442   8.264  0.2912  1.0581 -0.2579
  187SLPC  H17S21577   4.172   6.413   8.162  0.1421 -2.5828  0.0739
  187SLPC  C21821578   4.062   6.239   8.189  0.3071 -0.2657 -0.2191
  187SLPC  H18R21579   4.087   6.188   8.093 -1.6888 -1.6263 -0.0735
  187SLPC  H18S21580   3.965   6.197   8.224  1.5203 -1.8425  1.4158
  187SLPC  H18T21581   4.132   6.207   8.269 -1.2186 -2.3184  0.3994
  187SLPC   C3321582   4.641   6.707   6.866 -0.1211  0.4484 -0.7562
  187SLPC   H3X21583   4.715   6.680   6.788 -1.2826  1.1498 -2.1531
  187SLPC   H3Y21584   4.569   6.625   6.886  0.8075 -0.0428  0.7027
  187SLPC   C3421585   4.710   6.727   6.999 -1.0869  0.3651 -0.1008
  187SLPC   H4X21586   4.793   6.800   6.991 -0.8831 -0.0050 -1.9822
  187SLPC   H4Y21587   4.762   6.630   7.018  1.1574  0.9874 -2.3747
  187SLPC   C3521588   4.616   6.757   7.121 -0.5217  0.1099  0.0531
  187SLPC   H5X21589   4.535   6.682   7.109  0.1386 -0.5862 -0.1243
  187SLPC   H5Y21590   4.582   6.863   7.123  1.1646  0.8287 -2.9866
  187SLPC   C3621591   4.681   6.735   7.261 -0.8677 -0.6070 -0.2034
  187SLPC   H6X21592   4.787   6.768   7.258 -0.8974 -0.4829  0.0925
  187SLPC   H6Y21593   4.690   6.626   7.279  0.9022 -0.1270  2.2309
  187SLPC   C3721594   4.611   6.807   7.380  0.7550  1.1413 -0.5782
  187SLPC   H7X21595   4.672   6.769   7.465  0.6553 -0.4001 -1.1616
  187SLPC   H7Y21596   4.599   6.917   7.372  1.7452  1.3517  0.5953
  187SLPC   C3821597   4.463   6.757   7.402  0.0247 -0.5470  0.0883
  187SLPC   H8X21598   4.461   6.646   7.398  1.8744 -0.6308  0.2128
  187SLPC   H8Y21599   4.383   6.792   7.334  1.3599 -0.0549 -1.2893
  187SLPC   C3921600   4.421   6.801   7.543 -0.2541 -1.0274 -0.3027
  187SLPC   H9X21601   4.310   6.798   7.546 -0.3249  0.8087  0.7466
  187SLPC   H9Y21602   4.451   6.905   7.568 -1.7324 -0.6854  0.1119
  187SLPC  C31021603   4.457   6.691   7.645  0.3163 -0.0962  0.7208
  187SLPC  H10X21604   4.566   6.709   7.657  0.9070  0.8860 -4.1561
  187SLPC  H10Y21605   4.439   6.591   7.601 -3.5526  1.0833 -0.7954
  187SLPC  C31121606   4.403   6.717   7.787  0.1849 -0.3180  0.9475
  187SLPC  H11X21607   4.447   6.814   7.819 -0.4507  0.2026  0.2827
  187SLPC  H11Y21608   4.441   6.645   7.863  0.9556 -3.4273 -2.1786
  187SLPC  C31221609   4.251   6.731   7.812  0.4443  0.0476  1.0070
  187SLPC  H12X21610   4.195   6.636   7.812 -1.2725  1.0244  0.6368
  187SLPC  H12Y21611   4.199   6.782   7.728  1.7921 -0.1533  0.0203
  187SLPC  C31321612   4.214   6.806   7.944 -0.1281 -0.4552  0.4082
  187SLPC  H13X21613   4.104   6.815   7.928  0.3911  2.3380 -2.7864
  187SLPC  H13Y21614   4.251   6.910   7.955 -1.1113 -0.3987  4.4891
  187SLPC  C31421615   4.247   6.735   8.075  0.4316 -0.4829 -0.0962
  187SLPC  H14X21616   4.356   6.709   8.073  1.2513  2.5449  0.5279
  187SLPC  H14Y21617   4.206   6.632   8.075  0.9178 -0.6835 -0.1913
  187SLPC  C31521618   4.201   6.812   8.202  0.1499 -0.5220  0.0848
  187SLPC  H15X21619   4.094   6.835   8.184  0.9864  3.7863 -0.5893
  187SLPC  H15Y21620   4.257   6.907   8.219  2.4396 -1.5721 -1.1992
  187SLPC  C31621621   4.209   6.724   8.320  0.2202 -0.5335 -0.0327
  187SLPC  H16X21622   4.311   6.697   8.352 -0.2943 -1.8338  0.5750
  187SLPC  H16Y21623   4.161   6.625   8.307 -1.2517  0.3976 -2.4712
  187SLPC  C31721624   4.126   6.781   8.442 -0.3396  0.3121 -0.1807
  187SLPC  H17X21625   4.036   6.835   8.405  0.6936  0.3315 -2.9073
  187SLPC  H17Y21626   4.200   6.857   8.478  0.4849  0.0650 -1.3089
  187SLPC  C31821627   4.093   6.677   8.545 -0.0680  0.2013 -0.9978
  187SLPC  H18X21628   4.189   6.645   8.590 -0.4423  0.5382  0.0682
  187SLPC  H18Y21629   4.046   6.588   8.497  3.3642 -3.7446  2.1753
  187SLPC  H18Z21630   4.036   6.710   8.635  1.5505 -1.0918  0.5573
  188SLPC     N21631   3.714   0.911   6.275  0.1118 -0.0359 -0.6089
  188SLPC   C1321632   3.760   1.023   6.371  0.2720  0.4725  0.2892
  188SLPC  H13A21633   3.745   0.991   6.473  0.8707 -1.0145 -0.0546
  188SLPC  H13B21634   3.866   1.037   6.358  0.4322 -1.4570 -0.8261
  188SLPC  H13C21635   3.701   1.113   6.361  0.5096  0.7039  0.9394
  188SLPC   C1421636   3.807   0.799   6.290  0.3132 -0.6404  0.0622
  188SLPC  H14A21637   3.786   0.743   6.380  0.5954  0.3153  0.7298
  188SLPC  H14B21638   3.792   0.725   6.213 -1.1406  0.3139 -0.6063
  188SLPC  H14C21639   3.911   0.829   6.285  0.4456 -0.8299  1.4351
  188SLPC   C1521640   3.731   0.963   6.136 -0.0582  0.5305  0.1940
  188SLPC  H15A21641   3.655   1.036   6.112 -1.5599 -0.5921  1.3738
  188SLPC  H15B21642   3.828   1.011   6.145  0.7831 -1.4210  2.7974
  188SLPC  H15C21643   3.740   0.887   6.060 -3.5059 -0.4152  0.5441
  188SLPC   C1221644   3.570   0.871   6.310 -0.2316 -0.5233  0.0906
  188SLPC  H12A21645   3.545   0.794   6.238 -0.4402  0.5406 -0.9886
  188SLPC  H12B21646   3.509   0.958   6.292 -0.5832 -0.6875  0.4706
  188SLPC   C1121647   3.552   0.833   6.458  0.5074  0.0994 -0.1619
  188SLPC  H11A21648   3.448   0.832   6.498  1.1077 -3.1427  1.6921
  188SLPC  H11B21649   3.591   0.910   6.528 -1.5913 -0.1388  1.3505
  188SLPC     P21650   3.548   0.576   6.441  0.1656  0.1054  0.1508
  188SLPC   O1321651   3.481   0.602   6.314  0.1988 -0.6336  0.4179
  188SLPC   O1421652   3.664   0.483   6.445  0.2777  0.5983  0.0972
  188SLPC   O1221653   3.610   0.714   6.496  0.4197  0.0672  0.4777
  188SLPC   O1121654   3.443   0.534   6.548  0.2293  0.2321 -0.4128
  188SLPC    C121655   3.356   0.418   6.548 -0.1695 -0.8371  0.6140
  188SLPC    HA21656   3.255   0.449   6.514  0.3842 -0.5283 -0.8398
  188SLPC    HB21657   3.387   0.337   6.478 -0.4238 -0.7351  0.3811
  188SLPC    C221658   3.354   0.335   6.680  0.1541  0.5394 -0.0140
  188SLPC    HS21659   3.266   0.268   6.668 -0.8547  1.7588  0.4105
  188SLPC   O2121660   3.332   0.419   6.797 -0.6441 -0.2947  0.4328
  188SLPC   C2121661   3.231   0.497   6.789 -0.1547  0.1371  0.5784
  188SLPC   O2221662   3.137   0.493   6.713  0.0403 -0.1483  0.0631
  188SLPC   C2221663   3.239   0.602   6.894  0.2598 -0.1798  0.2201
  188SLPC   H2R21664   3.323   0.673   6.878 -0.4029  0.2890 -1.3043
  188SLPC   H2S21665   3.147   0.664   6.888 -0.1383 -0.8804 -1.8872
  188SLPC    C321666   3.479   0.247   6.704 -0.0544 -0.3635 -0.6438
  188SLPC    HX21667   3.560   0.322   6.708 -1.4426  1.4098 -2.9240
  188SLPC    HY21668   3.499   0.178   6.620 -0.9472 -0.0811 -1.1122
  188SLPC   O3121669   3.471   0.174   6.835  0.1067  0.2639  0.2172
  188SLPC   C3121670   3.590   0.113   6.878  0.0618 -0.4246  0.0422
  188SLPC   O3221671   3.694   0.139   6.828 -0.8452 -0.6210  0.3680
  188SLPC   C3221672   3.549   0.019   6.990 -0.2727  0.0515  0.9779
  188SLPC   H2X21673   3.475  -0.054   6.950 -2.7978  2.0204  1.7595
  188SLPC   H2Y21674   3.501   0.075   7.073  1.7497  0.8518  1.6603
  188SLPC   C2321675   3.254   0.539   7.034  1.0771 -0.8675  0.1938
  188SLPC   H3R21676   3.345   0.476   7.044  0.0891 -2.4678 -0.5471
  188SLPC   H3S21677   3.172   0.465   7.044 -0.7323  0.9105 -0.8756
  188SLPC   C2421678   3.235   0.638   7.147  0.5738 -0.1976 -0.7798
  188SLPC   H4R21679   3.152   0.711   7.131  1.0034  1.2959  2.9203
  188SLPC   H4S21680   3.333   0.688   7.157  0.7390 -0.4175 -1.2590
  188SLPC   C2521681   3.202   0.564   7.279  0.0711 -0.1828 -0.0664
  188SLPC   H5R21682   3.291   0.526   7.333 -1.4332 -1.3345  1.7368
  188SLPC   H5S21683   3.138   0.477   7.256 -1.0849  1.0512 -1.7160
  188SLPC   C2621684   3.128   0.650   7.381  0.7096  0.3442  0.9116
  188SLPC   H6R21685   3.032   0.685   7.337  1.4363 -0.5068 -1.5074
  188SLPC   H6S21686   3.193   0.739   7.395  2.1729 -0.4607 -0.4903
  188SLPC   C2721687   3.120   0.575   7.520  0.1789 -0.3717 -0.3017
  188SLPC   H7R21688   3.057   0.639   7.586  0.0747  0.1326 -0.8909
  188SLPC   H7S21689   3.225   0.569   7.555  0.7063 -0.3010 -1.8297
  188SLPC   C2821690   3.055   0.434   7.505 -0.4520 -0.6455  0.2709
  188SLPC   H8R21691   3.123   0.374   7.442 -1.1003 -1.0811 -0.0271
  188SLPC   H8S21692   2.965   0.447   7.441  0.2986  0.8062 -0.5341
  188SLPC   C2921693   3.023   0.356   7.631 -0.5031 -0.2557 -0.3859
  188SLPC   H9R21694   2.921   0.361   7.672  0.0377 -0.2711  1.0175
  188SLPC  C21021695   3.109   0.304   7.721 -0.4842 -0.7489 -0.1846
  188SLPC  H10R21696   3.076   0.257   7.814  1.5534  1.3444  1.7312
  188SLPC  C21121697   3.263   0.291   7.700 -0.0896 -0.4616 -0.1442
  188SLPC  H11R21698   3.291   0.341   7.605  0.8363  0.0379  0.3737
  188SLPC  H11S21699   3.279   0.183   7.679  0.4142 -0.4641  0.2258
  188SLPC  C21221700   3.341   0.332   7.818 -0.1853  0.3091 -0.1219
  188SLPC  H12R21701   3.342   0.440   7.838 -0.6299  0.4204 -0.7043
  188SLPC  C21321702   3.417   0.250   7.901  0.4778 -0.0248 -0.7456
  188SLPC  H13R21703   3.455   0.289   7.997 -0.5208  0.1421 -0.4139
  188SLPC  C21421704   3.437   0.107   7.864  0.1401 -0.1508  0.4490
  188SLPC  H14R21705   3.459   0.106   7.755 -0.9118 -2.3142  0.2181
  188SLPC  H14S21706   3.351   0.038   7.875 -0.5588  0.3436 -1.5023
  188SLPC  C21521707   3.564   0.046   7.938  0.0926 -0.4073  0.8685
  188SLPC  H15R21708   3.658   0.105   7.929  0.4793 -0.5830  3.1411
  188SLPC  H15S21709   3.590  -0.051   7.890  0.1973  0.2285 -0.3910
  188SLPC  C21621710   3.540   0.028   8.093 -0.0514  0.1170  0.6927
  188SLPC  H16R21711   3.448  -0.035   8.097 -0.8327  0.9499 -1.9804
  188SLPC  H16S21712   3.521   0.124   8.146 -1.3016 -0.4701  1.3763
  188SLPC  C21721713   3.649  -0.043   8.173 -0.0700  0.7444  0.1819
  188SLPC  H17R21714   3.673  -0.142   8.128  2.1860  0.7262  1.3101
  188SLPC  H17S21715   3.619  -0.061   8.278  0.1868 -1.2346 -0.0278
  188SLPC  C21821716   3.781   0.046   8.171  0.2590  0.3799 -0.3652
  188SLPC  H18R21717   3.868  -0.004   8.219 -0.1052  0.0258 -0.0686
  188SLPC  H18S21718   3.746   0.136   8.227 -2.6579 -0.6891 -0.3085
  188SLPC  H18T21719   3.803   0.086   8.070 -0.5285  2.7891  0.3477
  188SLPC   C3321720   3.675  -0.048   7.051 -0.6723 -0.0831 -0.1026
  188SLPC   H3X21721   3.770   0.005   7.025 -0.8298 -0.3937 -1.3495
  188SLPC   H3Y21722   3.694  -0.148   7.008 -0.4608  0.7746 -2.0978
  188SLPC   C3421723   3.669  -0.056   7.203 -0.3857  1.1440  0.5903
  188SLPC   H4X21724   3.647   0.042   7.249 -3.9583  2.5492 -3.4067
  188SLPC   H4Y21725   3.768  -0.095   7.233  0.1068 -1.0870 -3.2291
  188SLPC   C3521726   3.564  -0.153   7.258 -0.7304  0.2776 -0.0971
  188SLPC   H5X21727   3.592  -0.257   7.231 -0.6747  0.7215 -1.8113
  188SLPC   H5Y21728   3.461  -0.139   7.219 -1.4744 -1.7629  0.9801
  188SLPC   C3621729   3.554  -0.135   7.413  0.7637 -0.2785 -0.6017
  188SLPC   H6X21730   3.522  -0.030   7.426  1.1496 -0.1680 -0.5355
  188SLPC   H6Y21731   3.650  -0.143   7.470 -0.3031 -0.2179  1.2762
  188SLPC   C3721732   3.457  -0.236   7.472 -0.3313 -0.2536 -0.3153
  188SLPC   H7X21733   3.520  -0.328   7.472 -0.9107 -0.6690 -1.3501
  188SLPC   H7Y21734   3.371  -0.246   7.402  1.4855 -0.5737 -2.6183
  188SLPC   C3821735   3.408  -0.201   7.613  0.3473  0.4639  0.6757
  188SLPC   H8X21736   3.347  -0.109   7.598  0.5268  0.1042 -3.3536
  188SLPC   H8Y21737   3.489  -0.174   7.683 -0.1718  1.7871  0.7850
  188SLPC   C3921738   3.340  -0.320   7.680 -0.0684  0.5289  0.0814
  188SLPC   H9X21739   3.371  -0.420   7.643 -2.5892 -0.3257  0.1094
  188SLPC   H9Y21740   3.230  -0.324   7.665  0.0714 -0.5612 -0.7851
  188SLPC  C31021741   3.360  -0.315   7.834 -0.1043 -0.5266 -0.1316
  188SLPC  H10X21742   3.300  -0.230   7.875 -0.1215  0.4151 -2.0435
  188SLPC  H10Y21743   3.465  -0.294   7.864 -0.0602 -0.4439 -0.3493
  188SLPC  C31121744   3.312  -0.448   7.893  0.7414 -0.3667  0.6849
  188SLPC  H11X21745   3.385  -0.528   7.869  0.8585 -0.7603  2.2406
  188SLPC  H11Y21746   3.210  -0.464   7.852  0.0545  1.0254  1.7675
  188SLPC  C31221747   3.292  -0.446   8.049  0.5103  0.1218 -0.2514
  188SLPC  H12X21748   3.269  -0.547   8.089 -1.9801  0.3223 -1.0084
  188SLPC  H12Y21749   3.211  -0.372   8.068  0.2566  0.5066 -2.5136
  188SLPC  C31321750   3.402  -0.388   8.141  0.1257 -0.2826  0.6697
  188SLPC  H13X21751   3.434  -0.292   8.096 -0.6008 -0.5424 -0.4354
  188SLPC  H13Y21752   3.485  -0.462   8.133  0.8160  0.6544 -2.2390
  188SLPC  C31421753   3.366  -0.365   8.290  0.6172 -0.2275  0.4743
  188SLPC  H14X21754   3.456  -0.341   8.351 -0.5951 -0.6536  2.5273
  188SLPC  H14Y21755   3.305  -0.452   8.321  1.2206 -0.4390  1.0818
  188SLPC  C31521756   3.265  -0.241   8.298 -0.4616  0.5002  0.0190
  188SLPC  H15X21757   3.175  -0.278   8.245  0.3039 -1.2541 -0.1057
  188SLPC  H15Y21758   3.311  -0.152   8.249  4.7389 -1.6338  0.3233
  188SLPC  C31621759   3.235  -0.200   8.443 -0.2614 -0.2139  0.4360
  188SLPC  H16X21760   3.196  -0.287   8.500 -0.6257  1.4765  2.9306
  188SLPC  H16Y21761   3.145  -0.136   8.449  0.6362  1.1506 -0.2563
  188SLPC  C31721762   3.348  -0.128   8.521  0.0771 -0.2278 -0.2110
  188SLPC  H17X21763   3.364  -0.030   8.471  0.8855 -0.9422 -1.3915
  188SLPC  H17Y21764   3.445  -0.181   8.519  0.0014 -0.4856  1.4234
  188SLPC  C31821765   3.312  -0.110   8.672 -0.1029  0.3817 -0.8226
  188SLPC  H18X21766   3.400  -0.091   8.737 -0.5841  0.2483 -0.1207
  188SLPC  H18Y21767   3.263  -0.203   8.709 -0.2333  1.2700  1.4038
  188SLPC  H18Z21768   3.254  -0.017   8.689 -0.0779  0.5282 -1.5311
  189SLPC     N21769   6.597   2.062   6.244  0.2170 -0.2701  0.1803
  189SLPC   C1321770   6.596   1.926   6.315 -0.1553  0.1137  0.7116
  189SLPC  H13A21771   6.493   1.897   6.333 -0.4462  1.6856  1.8132
  189SLPC  H13B21772   6.637   1.859   6.242  0.9552  1.3003  0.2176
  189SLPC  H13C21773   6.666   1.910   6.396  0.3436  2.0355  0.7082
  189SLPC   C1421774   6.529   2.051   6.108  0.1443 -0.2033 -0.7699
  189SLPC  H14A21775   6.571   1.976   6.043  0.7878  0.1653 -0.7876
  189SLPC  H14B21776   6.427   2.018   6.123  0.9110 -1.8858  1.3713
  189SLPC  H14C21777   6.538   2.144   6.055  3.5086  1.2220  1.9864
  189SLPC   C1521778   6.733   2.095   6.211  0.6218 -0.3747 -0.3209
  189SLPC  H15A21779   6.788   2.126   6.298  0.8808 -1.9719  0.1161
  189SLPC  H15B21780   6.793   2.020   6.162  0.9680 -0.6198  0.4681
  189SLPC  H15C21781   6.739   2.191   6.162 -0.9256  0.6845  1.3864
  189SLPC   C1221782   6.521   2.160   6.326 -0.2679  0.9074 -0.2299
  189SLPC  H12A21783   6.540   2.262   6.296 -1.4871  0.7713 -1.5552
  189SLPC  H12B21784   6.562   2.142   6.424  0.0361  1.6894 -0.2052
  189SLPC   C1121785   6.371   2.145   6.325 -0.1513 -0.2238  0.0797
  189SLPC  H11A21786   6.338   2.184   6.423 -2.7085 -0.7153 -0.5051
  189SLPC  H11B21787   6.338   2.039   6.325  3.2691 -1.4440  2.0593
  189SLPC     P21788   6.292   2.374   6.231  0.3135  0.1435 -0.1829
  189SLPC   O1321789   6.407   2.437   6.299  0.8354  0.1233  0.0943
  189SLPC   O1421790   6.252   2.430   6.099  0.7495  0.4346 -0.1827
  189SLPC   O1221791   6.314   2.216   6.216  0.2765  0.3443  0.9064
  189SLPC   O1121792   6.166   2.392   6.330  0.1105 -0.1042  0.0818
  189SLPC    C121793   6.044   2.324   6.293  0.4936  0.7958 -1.0646
  189SLPC    HA21794   5.999   2.356   6.197  0.1044 -2.4834 -2.0884
  189SLPC    HB21795   6.062   2.214   6.300 -2.7950  0.2195  1.2416
  189SLPC    C221796   5.927   2.333   6.400 -0.3733 -0.6523  0.1499
  189SLPC    HS21797   5.864   2.422   6.374  1.7375  0.8084 -0.2203
  189SLPC   O2121798   5.974   2.343   6.534 -0.1711 -0.0273 -0.0552
  189SLPC   C2121799   5.906   2.415   6.614  0.8164  0.4210 -0.0461
  189SLPC   O2221800   5.803   2.483   6.596 -0.1595  0.3719  0.0175
  189SLPC   C2221801   5.968   2.399   6.752  0.4386 -0.2328 -0.5502
  189SLPC   H2R21802   5.909   2.316   6.795  2.1328  0.2727  3.1516
  189SLPC   H2S21803   6.077   2.377   6.749  0.7734  0.9514  1.2137
  189SLPC    C321804   5.830   2.213   6.380 -0.3088  0.0289 -0.0169
  189SLPC    HX21805   5.892   2.121   6.380 -1.5539 -0.8750 -2.1876
  189SLPC    HY21806   5.779   2.212   6.281  0.7629  1.3021 -0.6116
  189SLPC   O3121807   5.741   2.194   6.488  0.6673  0.1710  0.2914
  189SLPC   C3121808   5.631   2.248   6.481 -0.2849 -1.5494 -0.2306
  189SLPC   O3221809   5.581   2.311   6.386 -0.3701  0.7252  0.2328
  189SLPC   C3221810   5.555   2.225   6.605 -0.0349  0.6371  0.8479
  189SLPC   H2X21811   5.466   2.161   6.588  0.8466 -1.1825  2.5646
  189SLPC   H2Y21812   5.516   2.327   6.625  1.1047  0.9630  1.5083
  189SLPC   C2321813   5.948   2.523   6.843  0.0988  0.0868 -0.3424
  189SLPC   H3R21814   5.847   2.570   6.838 -0.2283 -0.4832  0.7071
  189SLPC   H3S21815   6.016   2.597   6.795 -0.4532  0.6632 -0.2607
  189SLPC   C2421816   6.005   2.497   6.988  1.0681 -0.3690  0.4266
  189SLPC   H4R21817   6.003   2.602   7.025 -0.6234 -0.1004 -0.3474
  189SLPC   H4S21818   6.107   2.454   6.988  0.7046 -2.1267 -5.8565
  189SLPC   C2521819   5.906   2.411   7.061 -0.5111 -1.1815  0.5019
  189SLPC   H5R21820   5.912   2.311   7.013  1.3838 -0.9036  0.0958
  189SLPC   H5S21821   5.806   2.461   7.064 -0.4892 -1.0101 -0.7770
  189SLPC   C2621822   5.948   2.382   7.207  0.1611  0.0051 -0.0904
  189SLPC   H6R21823   5.873   2.318   7.258 -0.3827  0.7864  0.1076
  189SLPC   H6S21824   5.949   2.474   7.270 -2.4850  0.6738 -0.8910
  189SLPC   C2721825   6.087   2.310   7.216  0.1345  0.4470 -0.2764
  189SLPC   H7R21826   6.166   2.380   7.181  2.9331 -2.6798 -0.6710
  189SLPC   H7S21827   6.088   2.226   7.143 -0.1532 -0.9026  1.2080
  189SLPC   C2821828   6.129   2.253   7.359  0.1310  0.0742  0.1412
  189SLPC   H8R21829   6.235   2.218   7.357 -0.3980 -1.8957  1.8829
  189SLPC   H8S21830   6.075   2.156   7.366  0.0063 -0.0433 -1.8446
  189SLPC   C2921831   6.076   2.336   7.474  0.0747  0.5358  0.3967
  189SLPC   H9R21832   5.967   2.354   7.473 -0.3110 -1.3868  1.5130
  189SLPC  C21021833   6.145   2.381   7.576  0.1148 -0.3138  0.6069
  189SLPC  H10R21834   6.081   2.429   7.653 -0.7796 -3.9600  2.3425
  189SLPC  C21121835   6.286   2.358   7.606  0.6025  0.0918  0.1587
  189SLPC  H11R21836   6.308   2.444   7.672 -2.7001  0.9909  0.2668
  189SLPC  H11S21837   6.359   2.350   7.523  0.8343  1.3448  0.2329
  189SLPC  C21221838   6.316   2.231   7.677  0.0140  0.0666 -0.5403
  189SLPC  H12R21839   6.275   2.135   7.644  1.1684 -0.9440  0.8025
  189SLPC  C21321840   6.393   2.229   7.791 -0.0096  0.3778 -0.0408
  189SLPC  H13R21841   6.422   2.131   7.832  1.4760  0.7508 -0.1592
  189SLPC  C21421842   6.458   2.344   7.858 -0.1800  0.0222  0.1438
  189SLPC  H14R21843   6.392   2.409   7.919 -0.5841 -0.3382  0.0986
  189SLPC  H14S21844   6.503   2.405   7.777  0.5242  0.2046  0.6607
  189SLPC  C21521845   6.556   2.306   7.961 -0.0867  0.4144  0.1377
  189SLPC  H15R21846   6.614   2.397   7.987 -0.3286  0.8527 -0.8332
  189SLPC  H15S21847   6.634   2.233   7.930  0.6194  0.2789  2.0787
  189SLPC  C21621848   6.492   2.241   8.089 -0.2742 -0.2024  0.0831
  189SLPC  H16R21849   6.459   2.136   8.070  0.1906 -0.0010 -2.1583
  189SLPC  H16S21850   6.411   2.311   8.118  0.3642  0.9000 -0.7403
  189SLPC  C21721851   6.579   2.233   8.218  0.8260  0.0336  0.0863
  189SLPC  H17R21852   6.519   2.180   8.295  1.2842 -0.0142  0.4211
  189SLPC  H17S21853   6.608   2.337   8.245  0.3037  0.4370 -0.8737
  189SLPC  C21821854   6.701   2.156   8.195 -0.6272  0.3947  0.0916
  189SLPC  H18R21855   6.693   2.055   8.150 -1.4543  0.1356  0.7892
  189SLPC  H18S21856   6.755   2.132   8.290  2.6313 -0.2032 -1.7551
  189SLPC  H18T21857   6.778   2.210   8.136  2.1876  0.2935  3.3119
  189SLPC   C3321858   5.633   2.171   6.732 -0.2317  0.1187  0.4025
  189SLPC   H3X21859   5.727   2.229   6.742  0.7523 -1.3565  0.0841
  189SLPC   H3Y21860   5.663   2.066   6.713 -0.8579  0.4524 -3.1880
  189SLPC   C3421861   5.560   2.194   6.868 -0.5020  0.4428 -0.1810
  189SLPC   H4X21862   5.452   2.167   6.864 -0.3380 -0.0966 -1.0992
  189SLPC   H4Y21863   5.574   2.300   6.899 -1.1907  0.9622 -1.5624
  189SLPC   C3521864   5.641   2.124   6.973  0.3957  0.4246  0.3554
  189SLPC   H5X21865   5.746   2.161   6.977  0.9076 -0.9387  0.0072
  189SLPC   H5Y21866   5.650   2.016   6.948 -1.6224  0.6006 -1.3831
  189SLPC   C3621867   5.580   2.151   7.110 -0.4533 -0.6340 -0.0435
  189SLPC   H6X21868   5.474   2.117   7.115 -0.9283  0.9263  1.5831
  189SLPC   H6Y21869   5.594   2.260   7.129  0.2051 -0.9454  1.4214
  189SLPC   C3721870   5.656   2.087   7.230  0.1943  0.3334  0.7652
  189SLPC   H7X21871   5.764   2.112   7.217  0.2396  0.3518  1.1521
  189SLPC   H7Y21872   5.636   1.978   7.226  1.3225  0.1100  0.7495
  189SLPC   C3821873   5.607   2.132   7.366  0.1174  0.8718  0.0236
  189SLPC   H8X21874   5.501   2.103   7.381  0.5617 -0.9336 -0.1181
  189SLPC   H8Y21875   5.624   2.241   7.376 -0.0618  0.9671 -0.6548
  189SLPC   C3921876   5.670   2.061   7.486 -0.1446 -0.3150  0.0947
  189SLPC   H9X21877   5.640   1.954   7.488  1.1452 -0.7269 -0.8032
  189SLPC   H9Y21878   5.626   2.114   7.573 -1.2125 -0.8155 -0.1238
  189SLPC  C31021879   5.820   2.081   7.497  0.3974  0.5496  0.6524
  189SLPC  H10X21880   5.838   2.191   7.488  0.9500  0.4908  0.9979
  189SLPC  H10Y21881   5.863   2.035   7.405  1.5046  1.1333  0.8551
  189SLPC  C31121882   5.895   2.034   7.623 -0.4265  0.7501 -0.8640
  189SLPC  H11X21883   6.002   2.055   7.600  0.1038  1.2474  1.7226
  189SLPC  H11Y21884   5.884   1.925   7.638 -0.7449  0.9886  0.9157
  189SLPC  C31221885   5.852   2.114   7.751 -0.3607  0.1101 -0.0646
  189SLPC  H12X21886   5.745   2.089   7.769  0.2336 -5.0641 -1.8812
  189SLPC  H12Y21887   5.869   2.222   7.734 -1.5382  0.3539  0.2179
  189SLPC  C31321888   5.918   2.058   7.880 -0.1998 -0.0734  0.4082
  189SLPC  H13X21889   5.902   1.948   7.889  0.3505 -0.0051  3.1675
  189SLPC  H13Y21890   5.882   2.103   7.975 -0.9668  2.2579 -0.9022
  189SLPC  C31421891   6.065   2.097   7.889  0.3926  0.1775 -0.0720
  189SLPC  H14X21892   6.078   2.203   7.856  0.6709  0.6232  1.3906
  189SLPC  H14Y21893   6.118   2.033   7.816 -1.7426 -2.3453  0.4553
  189SLPC  C31521894   6.128   2.072   8.026  0.5534 -0.1625  0.1183
  189SLPC  H15X21895   6.065   2.103   8.112 -1.2712 -1.8636 -0.5047
  189SLPC  H15Y21896   6.218   2.137   8.026  0.4877  0.1252  3.6766
  189SLPC  C31621897   6.186   1.931   8.047 -0.0927  0.1167  0.4065
  189SLPC  H16X21898   6.261   1.909   7.969 -1.4443  0.8706 -1.1752
  189SLPC  H16Y21899   6.095   1.869   8.036 -1.5319  1.7234  2.3664
  189SLPC  C31721900   6.236   1.903   8.186  0.2115  0.1314  0.5754
  189SLPC  H17X21901   6.165   1.935   8.265  0.3246 -0.2546  0.8379
  189SLPC  H17Y21902   6.316   1.979   8.203 -0.7303  1.1447  0.5534
  189SLPC  C31821903   6.296   1.764   8.214 -0.2332  0.6741  0.1126
  189SLPC  H18X21904   6.338   1.773   8.316  0.8554  0.1470 -0.2801
  189SLPC  H18Y21905   6.366   1.714   8.144 -2.0973  0.3620 -1.6276
  189SLPC  H18Z21906   6.209   1.694   8.222  0.4862 -0.2316  0.1485
  190SLPC     N21907   0.109   1.665   5.825  0.4029 -0.0458  0.4224
  190SLPC   C1321908   0.174   1.542   5.886  0.2694 -0.6349  0.2697
  190SLPC  H13A21909   0.126   1.445   5.876 -1.3652 -0.1081  2.3448
  190SLPC  H13B21910   0.272   1.533   5.840  1.4977  2.7229  1.9178
  190SLPC  H13C21911   0.198   1.565   5.989 -2.1908 -1.6090  1.1224
  190SLPC   C1421912   0.134   1.652   5.679 -0.4869 -1.0896 -0.3428
  190SLPC  H14A21913   0.073   1.570   5.642  0.4233 -1.1222 -1.8604
  190SLPC  H14B21914   0.111   1.742   5.624  1.1830  0.9931  2.1227
  190SLPC  H14C21915   0.240   1.639   5.664  0.0841  1.2599  1.2611
  190SLPC   C1521916   0.185   1.789   5.872 -0.1141  0.2170  0.2983
  190SLPC  H15A21917   0.292   1.781   5.856 -0.5730 -1.0887 -3.0608
  190SLPC  H15B21918   0.154   1.880   5.822  0.0691 -0.3791 -0.9581
  190SLPC  H15C21919   0.162   1.808   5.975 -1.8075  0.7534 -0.1507
  190SLPC   C1221920  -0.041   1.683   5.866 -0.1621 -0.4560 -0.3314
  190SLPC  H12A21921  -0.092   1.590   5.844 -2.0905  0.5036 -0.2039
  190SLPC  H12B21922  -0.084   1.752   5.795 -0.0041  1.7864  1.6609
  190SLPC   C1121923  -0.061   1.739   6.010 -0.4328 -0.0607  0.4983
  190SLPC  H11A21924  -0.162   1.767   6.049  1.0203 -0.0187  4.7963
  190SLPC  H11B21925  -0.014   1.840   6.016 -1.0194  0.1725  1.5071
  190SLPC     P21926   0.061   1.695   6.237 -0.3021 -0.5777 -0.0262
  190SLPC   O1321927   0.136   1.581   6.286  0.8261 -0.1193  0.2889
  190SLPC   O1421928   0.132   1.828   6.225 -0.1433  0.8141 -0.9466
  190SLPC   O1221929  -0.003   1.653   6.108  0.8501  0.6387 -0.3373
  190SLPC   O1121930  -0.066   1.720   6.330 -0.2157  0.7690 -0.1682
  190SLPC    C121931  -0.153   1.607   6.372 -0.3767 -0.1753 -0.3241
  190SLPC    HA21932  -0.252   1.644   6.407 -0.4247  0.8800 -1.5274
  190SLPC    HB21933  -0.173   1.535   6.290 -0.8665  0.9570 -1.2162
  190SLPC    C221934  -0.096   1.536   6.495  0.0868  0.7118  0.9548
  190SLPC    HS21935   0.008   1.497   6.485 -0.4237 -1.0227  2.0906
  190SLPC   O2121936  -0.194   1.437   6.549  0.7458 -0.5552  0.5140
  190SLPC   C2121937  -0.170   1.313   6.510 -0.9697  0.5280 -0.1555
  190SLPC   O2221938  -0.076   1.285   6.429  0.3725 -0.4668 -0.4198
  190SLPC   C2221939  -0.258   1.218   6.584  0.1569 -0.7165  0.1125
  190SLPC   H2R21940  -0.364   1.251   6.575  0.0544 -1.5928 -2.5433
  190SLPC   H2S21941  -0.240   1.115   6.546 -0.8296 -1.5120  1.6892
  190SLPC    C321942  -0.084   1.628   6.620  0.0759 -0.0759 -0.1313
  190SLPC    HX21943  -0.174   1.615   6.683  0.9273 -1.5227  0.8801
  190SLPC    HY21944  -0.068   1.729   6.576  0.0788 -0.3886 -0.8724
  190SLPC   O3121945   0.019   1.594   6.718  0.4445  0.0019 -0.1803
  190SLPC   C3121946   0.138   1.649   6.695  0.0108  0.4320  0.3751
  190SLPC   O3221947   0.169   1.716   6.593 -0.0841  0.2007  0.6740
  190SLPC   C3221948   0.223   1.629   6.817  0.0961  0.1089  1.0197
  190SLPC   H2X21949   0.306   1.562   6.785 -1.3799 -1.0593 -0.6036
  190SLPC   H2Y21950   0.163   1.571   6.891 -0.6321 -0.9446 -0.3321
  190SLPC   C2321951  -0.211   1.220   6.731 -0.2557  0.5737  0.1087
  190SLPC   H3R21952  -0.295   1.171   6.784 -1.2605  1.4014 -0.6769
  190SLPC   H3S21953  -0.218   1.322   6.774 -2.0636 -0.2069  1.7950
  190SLPC   C2421954  -0.075   1.140   6.748  0.9652  0.1199 -0.6951
  190SLPC   H4R21955  -0.007   1.186   6.673  2.8349 -0.7396  0.3793
  190SLPC   H4S21956  -0.098   1.032   6.732  1.0002  0.2862 -1.9211
  190SLPC   C2521957  -0.019   1.149   6.896  0.3739 -0.0872 -1.0505
  190SLPC   H5R21958  -0.066   1.229   6.957  1.0905 -0.7976  0.4557
  190SLPC   H5S21959   0.085   1.187   6.896  0.0424  1.0538  2.1746
  190SLPC   C2621960  -0.016   1.014   6.966 -0.8905  0.3103  0.4953
  190SLPC   H6R21961  -0.115   0.965   6.971 -0.3485 -1.0822 -1.3332
  190SLPC   H6S21962   0.018   1.046   7.067  2.3618  2.5408 -1.1114
  190SLPC   C2721963   0.088   0.926   6.905 -0.0318 -0.4322 -0.0960
  190SLPC   H7R21964   0.178   0.986   6.878  1.1639 -1.3094  1.7411
  190SLPC   H7S21965   0.032   0.889   6.817 -1.2845  0.7395  0.1639
  190SLPC   C2821966   0.127   0.806   6.992 -0.6337 -0.2848  0.0419
  190SLPC   H8R21967   0.165   0.728   6.922  2.0114  0.6014  0.4013
  190SLPC   H8S21968   0.039   0.755   7.038 -1.4249 -0.6461 -1.7782
  190SLPC   C2921969   0.247   0.849   7.076 -0.2825 -0.2795 -0.1402
  190SLPC   H9R21970   0.330   0.898   7.023 -0.3378  1.1455  1.0212
  190SLPC  C21021971   0.251   0.839   7.209  0.6076 -0.1472 -0.3655
  190SLPC  H10R21972   0.336   0.886   7.261  1.3639 -1.9628  0.1045
  190SLPC  C21121973   0.143   0.791   7.298  0.0976  0.2600 -0.5576
  190SLPC  H11R21974   0.191   0.734   7.381  0.2100  0.7870 -0.2527
  190SLPC  H11S21975   0.069   0.723   7.252 -1.6324  1.5190  0.2665
  190SLPC  C21221976   0.060   0.904   7.358  0.2230  0.4395 -0.1644
  190SLPC  H12R21977   0.032   0.987   7.292  1.7871  1.7667  0.7621
  190SLPC  C21321978   0.042   0.938   7.488  0.2003 -0.2459  0.7029
  190SLPC  H13R21979  -0.016   1.030   7.508  0.7560  0.6612 -1.5197
  190SLPC  C21421980   0.071   0.852   7.609  0.1098 -0.1335 -0.4903
  190SLPC  H14R21981   0.057   0.748   7.573 -1.7648 -0.1840  0.2594
  190SLPC  H14S21982   0.000   0.874   7.693  1.2111  2.6683 -0.1928
  190SLPC  C21521983   0.220   0.873   7.649 -0.0650 -0.0599 -0.1539
  190SLPC  H15R21984   0.244   0.978   7.680  0.3800  0.2317 -1.4289
  190SLPC  H15S21985   0.284   0.842   7.564 -0.0323 -1.2380  0.2842
  190SLPC  C21621986   0.252   0.778   7.773  0.3621  0.5600  0.3524
  190SLPC  H16R21987   0.362   0.767   7.783  0.2213 -0.2551  1.2260
  190SLPC  H16S21988   0.197   0.685   7.747 -4.2595  3.5603 -1.9785
  190SLPC  C21721989   0.201   0.833   7.909 -0.5969  0.2048 -0.4078
  190SLPC  H17R21990   0.091   0.844   7.898 -0.6703  2.8099  1.8943
  190SLPC  H17S21991   0.254   0.930   7.906 -1.3025  0.5792 -1.2430
  190SLPC  C21821992   0.231   0.773   8.045 -0.4844 -0.0841 -0.4533
  190SLPC  H18R21993   0.161   0.689   8.065  2.6974 -3.4194 -1.9906
  190SLPC  H18S21994   0.229   0.855   8.120  0.9741  0.6128 -1.1405
  190SLPC  H18T21995   0.334   0.730   8.051 -0.4623  0.1388  1.6266
  190SLPC   C3321996   0.245   1.773   6.875 -0.1189 -1.3074 -0.4061
  190SLPC   H3X21997   0.291   1.839   6.799  0.3430  0.8168  1.5960
  190SLPC   H3Y21998   0.320   1.757   6.955 -0.3418 -1.8792 -0.3073
  190SLPC   C3421999   0.130   1.847   6.946  0.2395  0.4019 -0.5327
  190SLPC   H4X22000   0.059   1.883   6.868 -0.3866  0.6356  0.1380
  190SLPC   H4Y22001   0.158   1.942   6.996 -0.7357  0.0245  0.7834
  190SLPC   C3522002   0.054   1.779   7.064 -0.0503  0.0951 -0.3380
  190SLPC   H5X22003   0.047   1.669   7.046 -1.3070  0.0987  0.0577
  190SLPC   H5Y22004  -0.044   1.830   7.075  0.3129  0.6699  0.2892
  190SLPC   C3622005   0.135   1.804   7.195 -0.1164  0.4307 -0.7653
  190SLPC   H6X22006   0.149   1.913   7.209 -1.5005  0.5397 -0.0873
  190SLPC   H6Y22007   0.235   1.755   7.197  0.4400  1.4577  2.3777
  190SLPC   C3722008   0.065   1.746   7.319 -0.1314 -0.1253  0.3073
  190SLPC   H7X22009   0.063   1.635   7.310  0.8400 -0.2586  1.4820
  190SLPC   H7Y22010  -0.035   1.791   7.334  0.7671  2.0044  0.2665
  190SLPC   C3822011   0.145   1.786   7.452 -0.3660 -1.0453  0.3621
  190SLPC   H8X22012   0.073   1.774   7.537 -0.0752  0.3070  0.8139
  190SLPC   H8Y22013   0.183   1.889   7.438 -0.7397 -1.0047 -0.3979
  190SLPC   C3922014   0.260   1.691   7.479 -0.5185  0.2375 -0.1101
  190SLPC   H9X22015   0.348   1.714   7.415 -2.7065 -1.6077 -4.1728
  190SLPC   H9Y22016   0.226   1.588   7.456  0.4309 -0.0682 -0.1854
  190SLPC  C31022017   0.309   1.702   7.626  0.4064  0.2175  0.2028
  190SLPC  H10X22018   0.372   1.615   7.652 -2.5660 -2.1318  0.1685
  190SLPC  H10Y22019   0.220   1.680   7.689  0.5948 -1.1824  0.0130
  190SLPC  C31122020   0.358   1.844   7.668  0.1535 -0.1322 -0.2090
  190SLPC  H11X22021   0.284   1.925   7.649  2.6163  1.4556 -4.1197
  190SLPC  H11Y22022   0.451   1.866   7.612  2.2173 -1.7646  2.3129
  190SLPC  C31222023   0.387   1.858   7.825  0.2320  0.1770  0.4001
  190SLPC  H12X22024   0.452   1.947   7.839 -1.7370  2.1265 -1.9352
  190SLPC  H12Y22025   0.440   1.768   7.862  0.4090 -0.3913 -1.1421
  190SLPC  C31322026   0.259   1.871   7.913 -0.1794 -0.0948  0.8474
  190SLPC  H13X22027   0.205   1.773   7.913 -0.0685 -0.2041 -1.2056
  190SLPC  H13Y22028   0.187   1.945   7.872  1.9862  1.2423 -0.7626
  190SLPC  C31422029   0.299   1.898   8.055 -1.0267  0.5191  0.1928
  190SLPC  H14X22030   0.336   2.001   8.074  2.5794 -0.5402 -0.1795
  190SLPC  H14Y22031   0.383   1.834   8.089 -0.4224  0.3825 -1.4782
  190SLPC  C31522032   0.192   1.864   8.156 -0.0823 -0.2452  0.3087
  190SLPC  H15X22033   0.194   1.760   8.195  0.7482 -0.1692  0.5012
  190SLPC  H15Y22034   0.089   1.885   8.122 -0.5983  0.6234  2.2297
  190SLPC  C31622035   0.194   1.965   8.272 -0.1883  0.1258  0.1486
  190SLPC  H16X22036   0.169   2.070   8.246  1.0582  0.4086  0.0208
  190SLPC  H16Y22037   0.296   1.981   8.312 -0.2914  1.7672 -0.1445
  190SLPC  C31722038   0.118   1.916   8.400  0.8465  0.4610 -0.4147
  190SLPC  H17X22039   0.164   1.818   8.427  0.5364  0.7183  1.1431
  190SLPC  H17Y22040   0.012   1.889   8.386  1.0217 -0.3724 -0.2450
  190SLPC  C31822041   0.135   2.020   8.510  0.6854 -0.4527 -0.5066
  190SLPC  H18X22042   0.241   2.022   8.542  0.1478  2.0623  1.4484
  190SLPC  H18Y22043   0.074   1.987   8.597 -0.9771  1.4101 -0.8848
  190SLPC  H18Z22044   0.106   2.122   8.475 -0.3355 -1.6606 -3.5168
  191SLPC     N22045   6.583   4.093   5.965  0.1567 -0.1233 -0.2541
  191SLPC   C1322046   6.550   4.074   6.110  0.1179  0.5789  0.2743
  191SLPC  H13A22047   6.445   4.099   6.125  0.1723  1.4190 -0.6514
  191SLPC  H13B22048   6.579   3.975   6.142  0.4959 -0.1206 -2.0145
  191SLPC  H13C22049   6.608   4.138   6.174  4.5783 -3.4430  0.8015
  191SLPC   C1422050   6.733   4.103   5.953 -0.4225  0.2463  0.3862
  191SLPC  H14A22051   6.766   4.195   6.000 -2.4549  1.0946  0.2727
  191SLPC  H14B22052   6.793   4.025   5.998 -0.5689 -0.3016 -0.3530
  191SLPC  H14C22053   6.763   4.101   5.850 -0.8620 -2.1879  0.2628
  191SLPC   C1522054   6.533   4.228   5.905  0.1528  0.5239  0.2611
  191SLPC  H15A22055   6.426   4.227   5.887  0.5399  1.2873 -2.4824
  191SLPC  H15B22056   6.556   4.318   5.961 -0.9103  0.2170  1.2328
  191SLPC  H15C22057   6.584   4.236   5.810  1.8272 -1.6466  0.9175
  191SLPC   C1222058   6.530   3.979   5.874 -0.3459  0.2146 -0.0647
  191SLPC  H12A22059   6.579   3.888   5.904 -2.0202 -0.4566  0.8108
  191SLPC  H12B22060   6.554   3.994   5.770 -0.5698  0.5760 -0.0664
  191SLPC   C1122061   6.379   3.950   5.885 -0.3130 -0.2097 -0.0751
  191SLPC  H11A22062   6.326   4.032   5.831  0.6396  0.5280  0.1025
  191SLPC  H11B22063   6.347   3.951   5.991 -0.3643 -2.8208 -0.0026
  191SLPC     P22064   6.240   3.728   5.883  0.3177 -0.0963  0.1644
  191SLPC   O1322065   6.110   3.784   5.841 -0.5829 -0.2545  0.4353
  191SLPC   O1422066   6.275   3.589   5.842  0.1206  0.1394  0.0683
  191SLPC   O1222067   6.348   3.833   5.828  0.6790  0.3418 -0.0204
  191SLPC   O1122068   6.250   3.740   6.040 -0.2244 -0.3556  0.1082
  191SLPC    C122069   6.363   3.707   6.119 -0.4428 -0.0113 -0.4193
  191SLPC    HA22070   6.394   3.600   6.112  2.6040  0.8515 -1.5733
  191SLPC    HB22071   6.449   3.771   6.092 -0.4227 -0.1615 -0.7148
  191SLPC    C222072   6.341   3.740   6.273  0.1598  0.4350 -0.3024
  191SLPC    HS22073   6.440   3.746   6.321 -0.0223  0.0598  0.1309
  191SLPC   O2122074   6.266   3.635   6.339 -0.4485  0.2130  0.0680
  191SLPC   C2122075   6.324   3.516   6.359 -0.4563 -0.3525 -0.1621
  191SLPC   O2222076   6.436   3.482   6.326  1.0224 -0.1483 -0.3998
  191SLPC   C2222077   6.231   3.429   6.434 -0.5652 -0.3086  0.1445
  191SLPC   H2R22078   6.154   3.488   6.489 -0.7945 -0.2080 -0.2786
  191SLPC   H2S22079   6.168   3.378   6.358 -2.7991  0.7133  1.1891
  191SLPC    C322080   6.265   3.874   6.298  0.1172  0.1160  0.2645
  191SLPC    HX22081   6.165   3.865   6.250  1.0924  0.7333 -2.0454
  191SLPC    HY22082   6.299   3.968   6.247 -2.8505  0.4095 -1.3868
  191SLPC   O3122083   6.265   3.900   6.440  0.1533  0.6608  0.0509
  191SLPC   C3122084   6.167   3.849   6.513  0.2518  0.5608 -0.2450
  191SLPC   O3222085   6.061   3.804   6.467  0.3652 -0.0905  0.2743
  191SLPC   C3222086   6.193   3.880   6.658  0.1151  0.5205 -0.6343
  191SLPC   H2X22087   6.100   3.927   6.697 -0.5669 -0.3354 -1.1752
  191SLPC   H2Y22088   6.272   3.958   6.669 -1.1887  1.5388  3.2872
  191SLPC   C2322089   6.288   3.324   6.529 -0.8905 -0.6222  0.4628
  191SLPC   H3R22090   6.347   3.258   6.463 -0.8141 -0.1944  0.1014
  191SLPC   H3S22091   6.200   3.264   6.558 -2.1157  0.5574 -0.6671
  191SLPC   C2422092   6.355   3.363   6.658  0.0534 -0.6363 -0.8171
  191SLPC   H4R22093   6.349   3.472   6.680  0.4843 -1.0412  1.6108
  191SLPC   H4S22094   6.463   3.338   6.647  0.5517  0.5993  0.8010
  191SLPC   C2522095   6.294   3.301   6.778 -0.3940 -0.4109  0.2825
  191SLPC   H5R22096   6.266   3.196   6.756 -1.7646  0.1590 -0.8828
  191SLPC   H5S22097   6.200   3.352   6.809  0.4356  1.2966  0.1363
  191SLPC   C2622098   6.386   3.291   6.901 -0.5486  0.6992 -0.4700
  191SLPC   H6R22099   6.417   3.391   6.937  0.7024  0.7243 -1.5289
  191SLPC   H6S22100   6.477   3.243   6.859 -0.5391  1.0468 -0.8534
  191SLPC   C2722101   6.331   3.207   7.017 -0.5375  0.1129 -0.1418
  191SLPC   H7R22102   6.412   3.220   7.092  3.0296 -0.5355 -3.5459
  191SLPC   H7S22103   6.313   3.103   6.983 -2.6015 -0.8002  3.2312
  191SLPC   C2822104   6.196   3.255   7.064  0.0024 -0.5025  0.2679
  191SLPC   H8R22105   6.125   3.264   6.980  0.9107  0.5087 -0.4188
  191SLPC   H8S22106   6.203   3.355   7.112 -0.0042 -0.3716 -0.0057
  191SLPC   C2922107   6.139   3.162   7.166 -0.5856  0.2479 -0.5525
  191SLPC   H9R22108   6.057   3.096   7.135 -0.4993  0.8049 -2.0576
  191SLPC  C21022109   6.158   3.162   7.303 -0.0621 -0.3203  0.4325
  191SLPC  H10R22110   6.092   3.094   7.359 -0.9004 -0.8033 -1.0895
  191SLPC  C21122111   6.245   3.264   7.383 -0.2045 -0.3541 -0.1285
  191SLPC  H11R22112   6.186   3.345   7.431  0.2488 -0.3320  0.3887
  191SLPC  H11S22113   6.314   3.321   7.317  0.6004 -2.7374 -1.4577
  191SLPC  C21222114   6.316   3.180   7.487  0.3638  0.1596  0.3966
  191SLPC  H12R22115   6.385   3.107   7.440  0.6640  1.5202 -1.3860
  191SLPC  C21322116   6.302   3.180   7.621 -0.2099 -0.5916  0.9129
  191SLPC  H13R22117   6.372   3.115   7.675  0.9573  0.0955  0.2547
  191SLPC  C21422118   6.204   3.260   7.704  0.0743 -0.0624  0.6104
  191SLPC  H14R22119   6.116   3.293   7.646  1.3985  0.9728 -0.8916
  191SLPC  H14S22120   6.252   3.357   7.729 -1.6073  1.1396 -0.6359
  191SLPC  C21522121   6.159   3.197   7.835 -0.0782 -0.0249 -0.0436
  191SLPC  H15R22122   6.245   3.192   7.905 -1.4851 -1.7513  1.6944
  191SLPC  H15S22123   6.120   3.094   7.820  2.5979 -1.4183  1.6604
  191SLPC  C21622124   6.062   3.275   7.916  0.5693  0.3224 -1.0007
  191SLPC  H16R22125   5.971   3.301   7.858 -1.1661  0.8900  1.7850
  191SLPC  H16S22126   6.124   3.361   7.946  1.9253 -0.6037 -1.0511
  191SLPC  C21722127   6.018   3.196   8.043  0.2191 -0.4361 -0.1491
  191SLPC  H17R22128   5.963   3.106   8.008 -1.5992  1.2239 -1.8694
  191SLPC  H17S22129   5.949   3.256   8.106  0.9783 -1.4190  1.6903
  191SLPC  C21822130   6.132   3.158   8.136  0.5085  0.1340 -0.0098
  191SLPC  H18R22131   6.204   3.241   8.155  0.4680 -0.3391  2.4384
  191SLPC  H18S22132   6.181   3.077   8.078 -0.0114  0.2407 -0.6227
  191SLPC  H18T22133   6.091   3.120   8.231  1.6733 -0.8051  0.1425
  191SLPC   C3322134   6.241   3.754   6.738 -0.3747  0.5468 -0.1746
  191SLPC   H3X22135   6.349   3.742   6.715 -0.4882  0.2959 -0.5804
  191SLPC   H3Y22136   6.197   3.656   6.712  0.2407 -0.1365  1.2532
  191SLPC   C3422137   6.224   3.769   6.892 -0.2952 -0.5082  0.0648
  191SLPC   H4X22138   6.117   3.785   6.920  0.1179 -1.5465  2.5299
  191SLPC   H4Y22139   6.280   3.858   6.927 -0.2908 -0.5693  0.2152
  191SLPC   C3522140   6.267   3.652   6.975 -0.2311  0.5421  0.7286
  191SLPC   H5X22141   6.373   3.626   6.953  0.1934  1.2694  1.8200
  191SLPC   H5Y22142   6.208   3.560   6.958 -0.3713  0.5398  1.2115
  191SLPC   C3622143   6.273   3.681   7.125 -0.7586  0.5843 -0.6224
  191SLPC   H6X22144   6.296   3.789   7.127 -1.3681  0.8628 -3.4006
  191SLPC   H6Y22145   6.349   3.615   7.173 -0.5982  1.0076 -0.2967
  191SLPC   C3722146   6.143   3.651   7.206 -0.3790 -0.1054  0.2135
  191SLPC   H7X22147   6.114   3.544   7.196  1.7606 -0.8173  1.1195
  191SLPC   H7Y22148   6.055   3.715   7.183  0.2163  0.4203 -0.6390
  191SLPC   C3822149   6.179   3.680   7.354 -0.2818  0.1960  0.5827
  191SLPC   H8X22150   6.235   3.775   7.368  1.5578 -0.2651 -2.5798
  191SLPC   H8Y22151   6.249   3.601   7.389  0.9954  1.7433  1.6444
  191SLPC   C3922152   6.052   3.688   7.442  0.1785  0.0430 -0.5292
  191SLPC   H9X22153   5.984   3.602   7.423 -0.6456  0.3038  1.0020
  191SLPC   H9Y22154   6.006   3.788   7.428  0.3693 -0.1681 -3.0485
  191SLPC  C31022155   6.107   3.680   7.592 -0.2324  0.4006 -0.5764
  191SLPC  H10X22156   6.199   3.741   7.597  0.4821 -0.6821 -0.1909
  191SLPC  H10Y22157   6.134   3.573   7.600  0.6976  0.7338  1.2063
  191SLPC  C31122158   6.014   3.728   7.698 -0.1275  0.6397  0.3829
  191SLPC  H11X22159   5.919   3.674   7.679 -0.1392  0.5815  0.6011
  191SLPC  H11Y22160   5.987   3.830   7.663  1.5652  0.8704 -0.3969
  191SLPC  C31222161   6.064   3.705   7.841 -0.5327  0.2357 -0.1817
  191SLPC  H12X22162   6.145   3.777   7.863 -2.5950  2.6832 -0.1411
  191SLPC  H12Y22163   6.099   3.600   7.843 -0.2311  0.2458 -2.5122
  191SLPC  C31322164   5.949   3.702   7.946 -0.3133  0.0895 -0.0812
  191SLPC  H13X22165   5.871   3.629   7.919  0.1396  0.0714 -1.4319
  191SLPC  H13Y22166   5.903   3.802   7.932  0.5122  0.3104 -1.5519
  191SLPC  C31422167   5.997   3.681   8.091  0.5040  0.7130 -0.3942
  191SLPC  H14X22168   6.093   3.738   8.097  0.6168  0.5175 -0.3544
  191SLPC  H14Y22169   6.006   3.573   8.114 -0.7432  0.7164  0.2137
  191SLPC  C31522170   5.888   3.729   8.189  0.2942 -0.6175 -0.2931
  191SLPC  H15X22171   5.789   3.690   8.158  0.1126 -2.5419  2.4300
  191SLPC  H15Y22172   5.872   3.839   8.175  1.6888 -0.0786  1.8707
  191SLPC  C31622173   5.908   3.708   8.342  0.1379  0.1685  0.0029
  191SLPC  H16X22174   5.828   3.735   8.414  0.3562 -0.4039  0.4636
  191SLPC  H16Y22175   5.990   3.777   8.372 -0.0299  0.7403 -0.7953
  191SLPC  C31722176   5.954   3.564   8.390  0.2017  0.4266  0.2674
  191SLPC  H17X22177   6.043   3.527   8.335  1.2293  2.0838  0.7600
  191SLPC  H17Y22178   5.872   3.495   8.359  0.4026  0.7653 -1.0804
  191SLPC  C31822179   5.992   3.559   8.539 -0.3464 -0.2289  0.1166
  191SLPC  H18X22180   6.021   3.461   8.581  1.2465  0.2808  0.2737
  191SLPC  H18Y22181   5.900   3.591   8.594 -0.0538 -0.1621  0.5735
  191SLPC  H18Z22182   6.075   3.632   8.552 -2.4588  2.5472 -0.8171
  192SLPC     N22183   6.682   5.585   6.850 -0.5722 -0.0344 -0.6924
  192SLPC   C1322184   6.820   5.526   6.841  0.1255  0.2300  0.4570
  192SLPC  H13A22185   6.851   5.470   6.928  0.5816  0.8612  0.7097
  192SLPC  H13B22186   6.828   5.470   6.748  3.3595  0.4985  0.4569
  192SLPC  H13C22187   6.895   5.603   6.843  0.6186 -0.1670 -1.0798
  192SLPC   C1422188   6.655   5.635   6.715  0.3538  0.3978 -0.1789
  192SLPC  H14A22189   6.729   5.706   6.682  2.1294 -1.2690  0.0649
  192SLPC  H14B22190   6.650   5.551   6.648  2.1701  0.3202 -0.2492
  192SLPC  H14C22191   6.557   5.681   6.715  1.5706  3.2206  0.4710
  192SLPC   C1522192   6.682   5.700   6.948 -0.4033 -0.2175 -0.0477
  192SLPC  H15A22193   6.719   5.676   7.046  2.7334  1.7963 -0.5787
  192SLPC  H15B22194   6.742   5.784   6.915  0.1624 -0.6873 -0.2423
  192SLPC  H15C22195   6.581   5.735   6.963  0.1519  0.4299  2.9049
  192SLPC   C1222196   6.585   5.476   6.889  0.3478  0.0432  0.0443
  192SLPC  H12A22197   6.486   5.507   6.861  0.5839 -1.4215 -2.8307
  192SLPC  H12B22198   6.589   5.461   6.996  1.4596  1.4387  0.2360
  192SLPC   C1122199   6.598   5.337   6.811 -0.4414 -0.5002 -0.1854
  192SLPC  H11A22200   6.523   5.265   6.849  0.3485 -1.6657 -0.7749
  192SLPC  H11B22201   6.703   5.307   6.832 -0.6021 -1.1449 -0.3029
  192SLPC     P22202   6.442   5.389   6.603 -0.0515 -0.0636  0.3271
  192SLPC   O1322203   6.427   5.527   6.562 -0.5006  0.3358  0.2897
  192SLPC   O1422204   6.430   5.289   6.499  0.0678  0.9686 -0.4047
  192SLPC   O1222205   6.587   5.363   6.668 -1.1897  0.2891  0.2837
  192SLPC   O1122206   6.341   5.358   6.723  0.0670 -0.1746  0.3638
  192SLPC    C122207   6.213   5.420   6.715  0.2054 -0.2823  0.1889
  192SLPC    HA22208   6.198   5.507   6.647 -4.4058  0.7487  2.0851
  192SLPC    HB22209   6.137   5.346   6.682 -1.5058  1.9961 -1.2549
  192SLPC    C222210   6.184   5.483   6.850  1.0894 -0.0914 -0.0646
  192SLPC    HS22211   6.267   5.554   6.867  1.4872 -1.0116  2.3080
  192SLPC   O2122212   6.187   5.379   6.957  0.3427 -0.2712  0.4235
  192SLPC   C2122213   6.265   5.415   7.060  0.0585  0.1144 -0.7647
  192SLPC   O2222214   6.340   5.515   7.065  0.4145  0.0697  0.0427
  192SLPC   C2222215   6.255   5.310   7.174  0.0016 -0.0351 -0.2225
  192SLPC   H2R22216   6.212   5.227   7.114 -0.4074  0.2913 -0.3879
  192SLPC   H2S22217   6.358   5.282   7.207 -0.5607 -1.2543  0.5778
  192SLPC    C322218   6.046   5.543   6.850  0.7049 -0.0495  0.1907
  192SLPC    HX22219   5.979   5.459   6.822 -0.6029  0.2934  2.1015
  192SLPC    HY22220   6.053   5.620   6.770  2.1594  2.3831  2.4894
  192SLPC   O3122221   6.007   5.588   6.982  0.0676  0.7927 -0.4451
  192SLPC   C3122222   6.048   5.707   7.007  0.3975  0.3167 -0.7998
  192SLPC   O3222223   6.105   5.781   6.925 -0.4858 -0.1475 -0.0163
  192SLPC   C3222224   6.030   5.744   7.155 -0.2358  0.0556 -0.3364
  192SLPC   H2X22225   6.037   5.652   7.216 -0.3497 -0.0241 -0.4440
  192SLPC   H2Y22226   5.936   5.803   7.165  1.1019  1.9742  2.1980
  192SLPC   C2322227   6.160   5.356   7.293  0.0126 -0.8003 -0.1332
  192SLPC   H3R22228   6.106   5.269   7.335 -0.2264 -0.5673  0.0501
  192SLPC   H3S22229   6.088   5.428   7.249  1.3888 -0.2883 -1.6439
  192SLPC   C2422230   6.237   5.421   7.409 -0.8374  0.4509  0.3706
  192SLPC   H4R22231   6.164   5.463   7.482  0.4247  1.2458  1.2081
  192SLPC   H4S22232   6.306   5.498   7.370 -0.6612  0.1361  0.0548
  192SLPC   C2522233   6.319   5.320   7.487  0.4311 -0.3225 -0.2135
  192SLPC   H5R22234   6.407   5.277   7.434  1.2070  1.2933 -0.3090
  192SLPC   H5S22235   6.265   5.227   7.514  0.2615 -0.0689  0.3237
  192SLPC   C2622236   6.368   5.394   7.614  0.2737  0.7420  0.0577
  192SLPC   H6R22237   6.306   5.484   7.630  0.1808  0.8364 -0.8069
  192SLPC   H6S22238   6.473   5.428   7.601 -0.0666  1.7784 -0.0946
  192SLPC   C2722239   6.351   5.304   7.737 -0.0367  0.4394 -1.1149
  192SLPC   H7R22240   6.413   5.213   7.721  0.6589  0.7835 -0.4567
  192SLPC   H7S22241   6.245   5.272   7.740 -0.6979  2.5726  0.5249
  192SLPC   C2822242   6.402   5.371   7.859 -0.2856  0.7232 -0.3557
  192SLPC   H8R22243   6.511   5.385   7.842 -0.2787 -0.4653 -1.4124
  192SLPC   H8S22244   6.403   5.306   7.949  2.1278  2.3301  0.8943
  192SLPC   C2922245   6.325   5.492   7.897 -0.1397 -0.6692  0.8698
  192SLPC   H9R22246   6.300   5.562   7.816  0.2351 -0.6853  0.7393
  192SLPC  C21022247   6.288   5.528   8.021  0.1857  0.2599 -0.1385
  192SLPC  H10R22248   6.235   5.625   8.022 -1.8543 -0.7853 -0.4542
  192SLPC  C21122249   6.312   5.455   8.151  0.2192 -0.1107 -0.7899
  192SLPC  H11R22250   6.383   5.517   8.209 -1.6346  0.8507  0.5374
  192SLPC  H11S22251   6.362   5.356   8.140  1.5073  0.6068 -1.6707
  192SLPC  C21222252   6.188   5.428   8.233 -0.1939  0.0042 -0.1047
  192SLPC  H12R22253   6.123   5.349   8.191 -0.3389 -1.3618  2.4899
  192SLPC  C21322254   6.140   5.498   8.341  0.1647  0.6364  0.6081
  192SLPC  H13R22255   6.051   5.459   8.393 -0.0012 -1.3616 -1.0668
  192SLPC  C21422256   6.203   5.608   8.421 -0.0118 -0.3487 -0.5001
  192SLPC  H14R22257   6.153   5.705   8.404  1.6955  0.4139 -1.3603
  192SLPC  H14S22258   6.308   5.624   8.390  0.4831 -1.9504  0.2286
  192SLPC  C21522259   6.201   5.571   8.567  0.4338 -0.4792  0.2042
  192SLPC  H15R22260   6.097   5.564   8.605  1.0458  1.8126  2.5464
  192SLPC  H15S22261   6.256   5.646   8.628 -0.7192 -0.0694  0.7767
  192SLPC  C21622262   6.272   5.446   8.609  0.3327 -0.5920  0.1114
  192SLPC  H16R22263   6.232   5.352   8.565  1.2801 -1.0053  0.1150
  192SLPC  H16S22264   6.238   5.436   8.714  0.5281  0.2186  0.2585
  192SLPC  C21722265   6.424   5.443   8.599 -0.0933 -0.5241  0.0403
  192SLPC  H17R22266   6.461   5.339   8.586  0.7992 -0.0865 -1.0759
  192SLPC  H17S22267   6.463   5.490   8.506 -2.0685  2.2977  0.4873
  192SLPC  C21822268   6.501   5.505   8.719  0.5016 -0.3275  0.7034
  192SLPC  H18R22269   6.608   5.492   8.692  0.0717 -3.7802  0.1369
  192SLPC  H18S22270   6.462   5.472   8.818 -0.4181 -2.2441 -0.2233
  192SLPC  H18T22271   6.479   5.613   8.724  2.2541  0.0475  0.9591
  192SLPC   C3322272   6.142   5.839   7.190  0.0079  0.2409 -0.5927
  192SLPC   H3X22273   6.115   5.936   7.144  0.4933  0.4530 -0.4298
  192SLPC   H3Y22274   6.244   5.817   7.154  0.2235 -1.2370  0.8353
  192SLPC   C3422275   6.136   5.841   7.344 -0.7777 -0.1456  0.4961
  192SLPC   H4X22276   6.169   5.744   7.389  0.2773  0.1049  0.3006
  192SLPC   H4Y22277   6.035   5.863   7.385 -1.2292 -2.4299  0.7752
  192SLPC   C3522278   6.219   5.957   7.406  0.1710  0.3346 -0.0603
  192SLPC   H5X22279   6.183   6.059   7.378 -0.5813  0.2806  0.6428
  192SLPC   H5Y22280   6.321   5.958   7.363  1.2497  0.2697  2.3512
  192SLPC   C3622281   6.224   5.945   7.560 -0.1109 -0.8325 -0.1424
  192SLPC   H6X22282   6.215   5.836   7.579  1.2653 -0.7636  1.1376
  192SLPC   H6Y22283   6.156   6.012   7.617 -0.0663 -2.6209  2.1643
  192SLPC   C3722284   6.366   5.985   7.613  0.2250 -0.1901  0.3923
  192SLPC   H7X22285   6.370   6.096   7.602 -1.6534 -0.0945  0.3122
  192SLPC   H7Y22286   6.436   5.941   7.539 -0.6973  0.8753 -1.1835
  192SLPC   C3822287   6.400   5.947   7.756  0.1227  1.1531 -0.2664
  192SLPC   H8X22288   6.502   5.981   7.785  0.8640 -0.7508 -0.4611
  192SLPC   H8Y22289   6.389   5.837   7.770 -0.1711  1.4118  2.0639
  192SLPC   C3922290   6.300   6.012   7.850 -0.9777 -0.1360  0.0610
  192SLPC   H9X22291   6.192   5.997   7.827 -1.2573 -0.6767  1.5914
  192SLPC   H9Y22292   6.331   6.117   7.833  0.3247 -0.3081  1.1812
  192SLPC  C31022293   6.321   5.971   8.003 -0.0611 -0.2124 -0.0022
  192SLPC  H10X22294   6.430   5.988   8.016 -0.3648  0.3143  2.2487
  192SLPC  H10Y22295   6.296   5.864   8.020  1.2656 -0.4973  0.2225
  192SLPC  C31122296   6.259   6.055   8.113  0.6189 -0.3855 -0.1641
  192SLPC  H11X22297   6.150   6.035   8.108  0.3151  1.3023 -0.7322
  192SLPC  H11Y22298   6.267   6.159   8.076 -1.8285 -1.4034 -4.1740
  192SLPC  C31222299   6.323   6.020   8.247  0.2151  0.7102  0.5199
  192SLPC  H12X22300   6.431   5.996   8.253  0.0120 -0.0489  1.4947
  192SLPC  H12Y22301   6.274   5.929   8.288  0.7504  0.1006 -0.1708
  192SLPC  C31322302   6.317   6.137   8.355 -0.1310 -0.0404  0.3711
  192SLPC  H13X22303   6.211   6.150   8.385 -0.2098  1.2780 -0.3938
  192SLPC  H13Y22304   6.364   6.231   8.318 -0.6814 -0.0067 -0.2661
  192SLPC  C31422305   6.396   6.089   8.479  0.3509 -0.6792 -0.4182
  192SLPC  H14X22306   6.500   6.070   8.444  0.3746  1.2932 -1.5335
  192SLPC  H14Y22307   6.359   5.997   8.530 -2.3183  1.5732  2.0534
  192SLPC  C31522308   6.393   6.194   8.594 -0.1304  0.3234  0.0275
  192SLPC  H15X22309   6.291   6.179   8.634  0.2971 -1.1666  0.6200
  192SLPC  H15Y22310   6.415   6.296   8.556 -1.5166 -0.0942 -2.0221
  192SLPC  C31622311   6.477   6.154   8.715 -0.1292  0.5131 -0.0125
  192SLPC  H16X22312   6.582   6.181   8.694 -0.3191  1.7130  0.5268
  192SLPC  H16Y22313   6.481   6.043   8.726  0.5742  0.5758  0.3680
  192SLPC  C31722314   6.447   6.219   8.850 -0.5883  0.2824 -0.8585
  192SLPC  H17X22315   6.343   6.189   8.878 -0.4351 -0.3803 -0.9864
  192SLPC  H17Y22316   6.461   6.329   8.839  3.6683 -0.1260 -1.1575
  192SLPC  C31822317   6.548   6.172   8.955 -0.6621 -0.1614  0.6603
  192SLPC  H18X22318   6.512   6.205   9.055 -1.8937 -0.5513  0.3621
  192SLPC  H18Y22319   6.652   6.204   8.930 -0.8362  0.7922  1.1469
  192SLPC  H18Z22320   6.549   6.061   8.958 -0.2377 -0.1440  1.7418
  193SOD    SOD22321   3.594   2.286  11.426  0.1308  0.0284  0.2962
  194SOD    SOD22322   6.167   6.331   6.411  0.2545  0.2236 -0.3160
  195SOD    SOD22323   4.612   2.310   5.423 -0.0656 -0.2288  0.2925
  196SOD    SOD22324   4.961   1.343   1.485 -0.0903 -0.0003 -0.1250
  197SOD    SOD22325   3.621   1.682  13.085 -0.2712  0.2885  0.0255
  198SOD    SOD22326   1.145   2.344   5.385 -0.0417  0.4334  0.0696
  199SOD    SOD22327   0.449   3.103   4.587  0.1538 -0.0986  0.3936
  200SOD    SOD22328   5.869   3.409   1.987  0.5363 -0.9218 -0.2362
  201SOD    SOD22329   2.393   4.924   6.230  0.0743  0.5708  0.3347
  202SOD    SOD22330   2.352   3.696  12.973 -0.0153 -0.0455 -0.0979
  203SOD    SOD22331   4.312   6.052   3.321 -0.2633 -0.7264 -0.5424
  204SOD    SOD22332   0.683   0.010   2.146 -0.2654  0.3578 -0.2041
  205SOD    SOD22333   2.203   1.384  15.594  0.0574 -0.4494  0.4717
  206SOD    SOD22334   1.622   6.817  11.104 -0.0756 -0.0344  0.1124
  207SOD    SOD22335   4.507   5.615   4.552 -0.2719 -0.3827 -0.4179
  208SOD    SOD22336   0.212   1.187   6.170  0.0569 -0.0923 -0.3146
  209SOD    SOD22337   5.836   0.698   5.631 -0.2823 -0.3315  0.1788
  210SOD    SOD22338   3.730   5.079   1.989  0.0838 -0.2077 -0.0129
  211SOD    SOD22339   6.621   5.244   3.289  0.1177  0.1684  0.3718
  212SOD    SOD22340   2.558   2.424  14.334 -0.1592 -0.0269 -0.1914
  213SOD    SOD22341   4.034   1.291   2.165 -0.0568  0.7325  0.1676
  214SOD    SOD22342   6.445   2.537  17.161  0.0084 -0.1600  0.3782
  215SOD    SOD22343   1.061   4.267   6.140  0.3734  0.6849  0.3980
  216SOD    SOD22344   5.194   4.804   2.434  0.1449 -0.2595 -0.4692
  217SOD    SOD22345   2.940   1.289   4.808 -0.2633  0.2738  0.0162
  218SOD    SOD22346   4.034   4.204  10.674  0.3264  0.3235 -0.0487
  219SOD    SOD22347   6.186   0.374   4.213 -0.3646 -0.2272  0.1046
  220SOD    SOD22348   1.613   2.065   5.779  0.0328 -0.4406 -0.3401
  221SOD    SOD22349   3.550   4.059   1.656 -0.1614 -0.1735  0.1641
  222SOD    SOD22350   3.650   0.067   3.771 -0.3367 -0.7546 -0.1297
  223SOD    SOD22351   5.835   1.358  10.550  0.0988  0.2085 -0.1897
  224SOD    SOD22352   3.052   5.992   3.991  0.2022  0.0149 -0.0255
  225SOD    SOD22353   3.787   4.531   5.187  0.2694  0.1346  0.0036
  226SOD    SOD22354   1.012   3.414  10.973 -0.5285  0.0058  0.3051
  227SOD    SOD22355   1.617   4.775  11.322  0.0845 -0.1797  0.0286
  228SOD    SOD22356   5.695   1.368  15.431 -0.1216 -0.0228 -0.2625
  229SOD    SOD22357   6.832   3.381   5.162 -0.3605  0.3402 -0.4615
  230SOD    SOD22358   4.114   0.032  13.390  0.3770 -0.2631  0.1226
  231SOD    SOD22359   2.624   1.534  12.823  0.5160 -0.1324 -0.3244
  232SOD    SOD22360   2.831   3.967   6.262 -0.4851  0.1119 -0.7135
  233SOD    SOD22361   6.251   4.796  16.335  0.5887 -0.2574 -0.3420
  234SOD    SOD22362   2.125   1.777  11.489  0.0514 -0.2149 -0.2863
  235SOD    SOD22363   5.545   2.624  13.337 -0.9602  0.0397  0.0669
  236SOD    SOD22364   5.383   4.302   5.679 -0.6669 -0.2585  0.4112
  237SOD    SOD22365   6.385   3.423  10.728  0.7067  0.1362  0.2994
  238SOD    SOD22366   1.419   0.208   5.832 -0.4341 -0.3224 -0.1296
  239SOD    SOD22367   1.691   3.804   2.983  0.1117  0.3182  0.0619
  240SOD    SOD22368   6.589   5.492   5.536  0.0042  0.1629  0.3799
  241SOD    SOD22369   4.856   4.057  11.533  0.3219 -0.4189 -0.2904
  242SOD    SOD22370   5.630   1.306   2.578 -0.4256  0.0072 -0.8084
  243SOD    SOD22371   3.297   6.472   1.295 -0.0937 -0.0150  0.0649
  244SOD    SOD22372   1.501   2.435  11.885 -0.4017 -0.4430  0.0785
  245SOD    SOD22373   5.161   6.032  16.268  0.1666  0.5829 -0.1656
  246SOD    SOD22374   3.093   1.276  10.495 -0.0995 -0.1820  0.7489
  247SOD    SOD22375   3.387   4.092   3.886 -0.3322 -0.2856 -0.2795
  248SOD    SOD22376   6.515   0.043   3.345  0.1079  0.1219 -0.4101
  249SOD    SOD22377   6.755   4.741   6.465 -0.4689  0.4089  0.2224
  250SOD    SOD22378   3.581   3.412  15.377  0.4900 -0.1643  0.0029
  251SOD    SOD22379   2.372   1.278   3.652 -0.1658 -0.1770  0.5059
  252SOD    SOD22380   3.118   0.584   2.965  0.0228  0.2221  0.2241
  253SOD    SOD22381   2.922   6.795  11.703  0.1383 -0.2577  0.2442
  254SOD    SOD22382   4.942   2.305  10.456  0.2122  0.1898  0.0464
  255SOD    SOD22383   4.718   1.703  15.258  0.5491 -0.2454  0.3450
  256SOD    SOD22384   4.304   5.673   5.419 -0.2663 -0.1873  0.0274
  257SOD    SOD22385   6.368   0.331   2.029  0.2003 -0.1907  0.0099
  258SOD    SOD22386   1.699   0.813   0.770  0.0992 -0.3237 -0.0918
  259SOD    SOD22387   5.495   3.298   2.755 -0.3152  0.0376  0.3882
  260SOD    SOD22388   1.141   5.432  11.528  0.0539  0.7638  0.2967
  261SOD    SOD22389   5.570   3.976   1.203  0.2756 -0.5643  0.5404
  262SOD    SOD22390   3.823   0.252   1.245 -0.4531 -0.3713  0.2735
  263SOD    SOD22391   0.431   3.349  14.937 -0.2419  0.0893 -0.0664
  264SOD    SOD22392   5.399   4.446  13.335  0.3814 -0.0862  0.2468
  265SOD    SOD22393   4.691   6.367  11.644  0.3923 -0.5470  0.0778
  266CLA    CLA22394   1.948   4.007   5.884 -0.0270  0.2854 -0.0743
  267CLA    CLA22395   0.862   0.607   3.885  0.4045 -0.3879  0.1757
  268CLA    CLA22396   3.629   1.046  12.227  0.1721 -0.0904 -0.4634
  269CLA    CLA22397   0.629   0.553   1.949 -0.1655  0.4749 -0.2964
  270CLA    CLA22398   5.242   6.117  15.710 -0.0996  0.1557  0.1856
  271CLA    CLA22399   0.436   5.785  15.911 -0.2919  0.0736  0.4954
  272CLA    CLA22400   6.117   0.628   4.256 -0.6172 -0.1651 -0.2549
  273CLA    CLA22401   4.636   0.192   0.855 -0.3170  0.2701  0.2281
  274CLA    CLA22402   0.113   6.071  11.926 -0.2451 -0.5310  0.2466
  275CLA    CLA22403   3.148   4.767  12.157 -0.1722  0.3505  0.1824
  276CLA    CLA22404   5.227   3.185  17.094 -0.2077 -0.5472 -0.1309
  277CLA    CLA22405   3.127   3.531  12.572 -0.1261  0.3040  0.1004
  278CLA    CLA22406   5.492   0.865   1.968 -0.3863  0.0571 -0.0310
  279CLA    CLA22407   1.105   3.620   5.174 -0.0638  0.0810 -0.3300
  280CLA    CLA22408   4.346   5.829   4.930  0.0083 -0.1070 -0.2821
  281CLA    CLA22409   0.041   4.815   5.486  0.0107 -0.0218  0.0659
  282CLA    CLA22410   3.862   1.661  14.544  0.2305 -0.1754 -0.1836
  283CLA    CLA22411   2.878   5.080  11.850  0.1634  0.1396 -0.2738
  284CLA    CLA22412   6.184   0.036   2.619 -0.2986  0.5089 -0.5281
  285CLA    CLA22413   1.799   4.150  12.003 -0.2092  0.0441 -0.2615
  286CLA    CLA22414   6.080   2.981   0.756  0.2040 -0.6389  0.4609
  287CLA    CLA22415   2.452   4.772   0.997 -0.2718  0.0210  0.1273
  288CLA    CLA22416   4.810   2.354   3.852 -0.0565  0.0390  0.3931
  289CLA    CLA22417   4.581   3.594   2.838  0.3572 -0.4618 -0.2933
  290CLA    CLA22418   3.205   1.244  14.366  0.0842 -0.8582 -0.1009
  291CLA    CLA22419   0.027   2.389   3.258 -0.3224  0.0954 -0.1053
  292CLA    CLA22420   6.238   1.275   0.905  0.4275 -0.6900 -0.2125
  293CLA    CLA22421   3.597   1.161  15.337 -0.5810 -0.1125  0.2253
  294CLA    CLA22422   6.314   4.444   3.969 -0.1522 -0.1775  0.3737
  295CLA    CLA22423   4.720   0.569   3.135 -0.1294 -0.5160 -0.1473
  296CLA    CLA22424   6.221   6.780   4.291 -0.0427 -0.2611 -0.0954
  297CLA    CLA22425   3.439   0.371   4.086 -0.1669 -0.3704  0.0060
  298CLA    CLA22426   4.904   4.116   4.993 -0.0123  0.3049  0.6019
  299CLA    CLA22427   3.286   3.685  15.540 -0.1939 -0.3862 -0.0106
  300CLA    CLA22428   5.339   3.919  11.423  0.3052  0.3509  0.3858
  301CLA    CLA22429   1.074   3.579   2.128 -0.2662  0.3065  0.2850
  302CLA    CLA22430   2.185   5.063  14.161 -0.7073  0.4986 -0.7213
  303CLA    CLA22431   3.544   6.488   3.680  0.0420 -0.4105 -0.1302
  304CLA    CLA22432   3.317   3.892   5.590 -0.1404 -0.1678  0.0905
  305CLA    CLA22433   0.509   6.825   0.419  0.0689  0.0185 -0.5044
  306CLA    CLA22434   4.773   4.951   4.890  0.0483  0.3440 -0.1291
  307CLA    CLA22435   4.993   2.107   1.998  0.0120  0.3620 -0.2548
  308CLA    CLA22436   3.684   6.483   0.051  0.4103  0.2383  0.1558
  309CLA    CLA22437   1.537   0.213  16.741  0.0930 -0.0073 -0.6671
  310CLA    CLA22438   2.834   1.414   4.117  0.0284 -0.1699  0.4243
  311CLA    CLA22439   0.906   2.935  14.937  0.0819 -0.0962 -0.1919
  312CLA    CLA22440   2.599   2.402   4.730  0.1720 -0.0418  0.3962
  313CLA    CLA22441   0.924   0.268  14.724  0.1272 -0.3300 -0.0471
  314CLA    CLA22442   4.541   1.211  13.222  0.1469  0.2088 -0.4734
  315CLA    CLA22443   6.066   0.454  15.385  0.5323  0.1123 -0.1232
  316CLA    CLA22444   4.184   1.175   0.640 -0.2849  0.1419  0.0258
  317CLA    CLA22445   5.378   4.021   2.831  0.1030  0.0309  0.0029
  318CLA    CLA22446   0.116   0.783   2.315 -0.1218 -0.2102 -0.0876
  319TIP3   OH222447   5.938   4.167   3.523  0.7413  0.5370  0.1151
  319TIP3    H122448   6.011   4.229   3.529  0.8454  0.9389 -3.2420
  319TIP3    H222449   5.963   4.108   3.452 -2.3485  1.0276 -1.5522
  320TIP3   OH222450   6.332   4.640  11.794 -0.3569  0.0674 -0.1184
  320TIP3    H122451   6.330   4.722  11.844 -0.9662  0.1684 -0.2939
  320TIP3    H222452   6.425   4.622  11.781 -0.1813  0.0132  1.0879
  321TIP3   OH222453   1.398   4.113  10.988  0.4615 -0.8557  0.2851
  321TIP3    H122454   1.323   4.172  10.987  0.6364 -0.6085  0.9076
  321TIP3    H222455   1.470   4.163  10.949 -0.3691 -2.1057 -3.2173
  322TIP3   OH222456   4.906   2.345   0.434  0.5868 -0.6464  0.3213
  322TIP3    H122457   4.901   2.380   0.523 -0.5226  0.4750 -0.1616
  322TIP3    H222458   4.863   2.260   0.439 -1.1858  0.2076  0.5087
  323TIP3   OH222459   2.245   5.916  15.078 -0.1512 -0.1704  0.5417
  323TIP3    H122460   2.168   5.868  15.049 -0.5335  0.3732  0.6550
  323TIP3    H222461   2.256   5.985  15.012 -1.3711  1.4434  1.9620
  324TIP3   OH222462   5.686   3.630  10.293 -0.7044 -0.1197  0.0214
  324TIP3    H122463   5.604   3.659  10.254 -0.4218  0.4723 -0.1346
  324TIP3    H222464   5.713   3.702  10.350  0.0435 -0.0306 -0.4293
  325TIP3   OH222465   6.557   3.250  16.001  0.0014  0.5289  0.0539
  325TIP3    H122466   6.492   3.184  16.023  0.1583  0.6329  0.8939
  325TIP3    H222467   6.641   3.210  16.023  0.0736  1.1272  0.9668
  326TIP3   OH222468   4.535   2.297   3.496  0.9211  0.1284  0.7418
  326TIP3    H122469   4.450   2.337   3.477  0.0963 -1.1526  1.5942
  326TIP3    H222470   4.599   2.363   3.469 -0.2329  0.1389 -2.2705
  327TIP3   OH222471   4.336   1.033   4.756 -0.3404 -0.3751 -0.1630
  327TIP3    H122472   4.421   1.076   4.764 -0.1238 -1.0123  1.2436
  327TIP3    H222473   4.290   1.083   4.689  0.3851  1.2090  0.4693
  328TIP3   OH222474   2.474   2.843  13.239 -0.3709 -0.4227  0.1539
  328TIP3    H122475   2.389   2.871  13.271 -0.4181  0.5610 -0.7494
  328TIP3    H222476   2.529   2.922  13.245  0.4433 -1.0187  0.6341
  329TIP3   OH222477   4.771   3.216  12.555  0.4467  0.0917 -0.1516
  329TIP3    H122478   4.800   3.296  12.598 -1.1538  0.6604 -0.0805
  329TIP3    H222479   4.682   3.202  12.587  0.7320 -1.7990 -0.0594
  330TIP3   OH222480   3.134   0.166   2.636 -0.3257  0.3464 -0.2277
  330TIP3    H122481   3.154   0.099   2.702 -0.8481  0.5230  0.1197
  330TIP3    H222482   3.216   0.214   2.625 -0.0171 -0.1862 -0.2904
  331TIP3   OH222483   1.490   5.906  13.515 -0.0760  0.7410  0.1467
  331TIP3    H122484   1.496   5.996  13.483  0.9556  0.9460  0.8465
  331TIP3    H222485   1.571   5.893  13.564  0.4729 -1.0528 -1.1308
  332TIP3   OH222486   1.818   3.756   4.070  0.1747  0.1408  0.4716
  332TIP3    H122487   1.903   3.795   4.050  0.0291  0.6967  0.8925
  332TIP3    H222488   1.768   3.827   4.111 -0.6117 -0.0820 -0.0709
  333TIP3   OH222489   4.645   0.926  12.125  0.3938 -0.3411 -0.2115
  333TIP3    H122490   4.647   0.894  12.035 -0.6595 -3.2045  0.6968
  333TIP3    H222491   4.612   1.016  12.117 -1.1356 -1.0106 -2.5775
  334TIP3   OH222492   4.630   3.680   6.536  0.1643  0.7742  0.1773
  334TIP3    H122493   4.550   3.635   6.560  1.0005 -1.0524 -0.2733
  334TIP3    H222494   4.613   3.772   6.555 -1.7185  0.3207  0.8652
  335TIP3   OH222495   4.616   2.625  16.525  0.6116  0.1014  0.3700
  335TIP3    H122496   4.657   2.695  16.474 -0.5185  0.7847  0.3681
  335TIP3    H222497   4.687   2.592  16.580  1.9508 -0.8479 -1.7743
  336TIP3   OH222498   5.263   4.016   1.878 -0.0747 -0.1719 -0.4029
  336TIP3    H122499   5.279   3.929   1.915  2.0102  1.4895  3.2627
  336TIP3    H222500   5.340   4.034   1.825 -0.2276 -0.3334 -0.6806
  337TIP3   OH222501   0.151   5.071  16.675 -0.0872  0.2031  0.2526
  337TIP3    H122502   0.098   5.008  16.626  1.5661 -0.7055 -0.4417
  337TIP3    H222503   0.225   5.089  16.618 -0.1692  2.2960  0.7252
  338TIP3   OH222504   2.047   2.524  13.671 -0.6030  0.5523 -0.3587
  338TIP3    H122505   2.059   2.617  13.651 -0.7445  0.6638  0.0565
  338TIP3    H222506   2.004   2.524  13.756 -2.0417  0.1255 -1.0581
  339TIP3   OH222507   3.663   0.536  14.531 -0.2230 -0.0903  0.0346
  339TIP3    H122508   3.637   0.601  14.596 -1.5056  0.9363 -1.4382
  339TIP3    H222509   3.615   0.560  14.452 -1.7113 -3.4766 -0.2909
  340TIP3   OH222510   6.766   1.902   4.384 -0.6058 -0.0394  0.1324
  340TIP3    H122511   6.671   1.905   4.376 -0.6409  0.8923  0.7888
  340TIP3    H222512   6.797   1.888   4.295 -1.3733 -1.1821  0.0163
  341TIP3   OH222513   3.855   4.203   2.964  0.1202 -0.1047 -0.3302
  341TIP3    H122514   3.940   4.225   2.926  0.1810 -0.6752 -0.5304
  341TIP3    H222515   3.860   4.236   3.053 -0.1465  1.5640 -0.8965
  342TIP3   OH222516   1.201   4.149   5.150 -0.6939 -0.2749  0.7154
  342TIP3    H122517   1.285   4.175   5.111 -1.6032  0.7698 -0.6438
  342TIP3    H222518   1.199   4.054   5.143 -0.1311 -0.2206 -0.3164
  343TIP3   OH222519   3.066   3.494  16.876  0.1511  0.4749  0.2758
  343TIP3    H122520   2.986   3.513  16.828  0.3261  0.6176  0.0374
  343TIP3    H222521   3.093   3.408  16.846  0.5066  0.7532 -0.2296
  344TIP3   OH222522   1.429   5.324   3.153  0.6135 -0.1163 -0.1249
  344TIP3    H122523   1.376   5.275   3.217 -1.4199  1.8460 -0.2118
  344TIP3    H222524   1.488   5.377   3.207  0.4420 -0.1140  0.0632
  345TIP3   OH222525   3.778   1.968   5.662  0.2471 -0.0776 -0.2836
  345TIP3    H122526   3.772   2.062   5.645  0.7075  0.0091  0.0259
  345TIP3    H222527   3.703   1.949   5.719  1.6065  0.6054  1.8377
  346TIP3   OH222528   3.479   5.229  12.697  0.0266 -0.0282 -0.0642
  346TIP3    H122529   3.421   5.181  12.755  1.1378 -0.6177  0.5723
  346TIP3    H222530   3.492   5.171  12.622 -0.1972  0.1071 -0.2107
  347TIP3   OH222531   5.767   1.855   2.040  0.0076 -0.2014 -0.2943
  347TIP3    H122532   5.744   1.945   2.065 -1.6228 -0.1037 -1.8567
  347TIP3    H222533   5.800   1.815   2.120  0.4942  1.7062  0.5140
  348TIP3   OH222534   2.075   3.051  14.029 -0.6380  0.5928  0.0649
  348TIP3    H122535   2.060   2.956  14.037 -0.1511  0.6686  2.5387
  348TIP3    H222536   2.090   3.064  13.935 -1.1193 -1.7127 -0.4082
  349TIP3   OH222537   4.397   0.923  11.653 -0.2435  0.0226 -0.2029
  349TIP3    H122538   4.382   1.001  11.600 -0.3086  0.9269  1.1092
  349TIP3    H222539   4.309   0.886  11.666 -0.4313  0.7234  0.6200
  350TIP3   OH222540   1.118   0.265  16.465  0.0355  0.1975 -0.2775
  350TIP3    H122541   1.142   0.190  16.410  0.9748  0.3605 -0.1138
  350TIP3    H222542   1.138   0.237  16.554 -1.4617 -0.0562 -0.0086
  351TIP3   OH222543   3.971   3.752   3.534 -0.1485 -0.6724  0.4730
  351TIP3    H122544   4.033   3.824   3.521  0.1339 -1.1330 -0.8586
  351TIP3    H222545   4.016   3.692   3.594  0.6496 -0.9122 -0.3406
  352TIP3   OH222546   6.168   1.319   1.440 -0.2840 -0.6574  0.1880
  352TIP3    H122547   6.258   1.335   1.466 -0.4706  1.5765 -0.3809
  352TIP3    H222548   6.157   1.224   1.452  1.7912 -0.8345  1.2315
  353TIP3   OH222549   6.811   1.523   2.963  0.3924  0.0726 -0.0192
  353TIP3    H122550   6.823   1.534   2.869  3.1071  1.1264  0.3558
  353TIP3    H222551   6.897   1.498   2.996 -0.3804  0.1066  2.2513
  354TIP3   OH222552   3.480   0.006  11.684 -0.0853 -0.3059  0.2283
  354TIP3    H122553   3.575  -0.001  11.687 -0.1673 -1.5230  2.3775
  354TIP3    H222554   3.450  -0.032  11.767 -2.4507  0.1015 -0.3397
  355TIP3   OH222555   1.872   3.793  15.198 -0.1053 -0.1578 -0.1863
  355TIP3    H122556   1.960   3.830  15.209 -0.9030  1.3794  1.6280
  355TIP3    H222557   1.875   3.710  15.246  0.8291 -1.0383 -1.6809
  356TIP3   OH222558   1.567   4.123  13.967  0.2932 -0.6104  0.2127
  356TIP3    H122559   1.550   4.074  13.887  1.0896 -0.2835 -0.1718
  356TIP3    H222560   1.481   4.138  14.005 -0.2887  0.8295 -1.5559
  357TIP3   OH222561   1.414   5.062   2.873  0.7023 -0.3392 -0.0041
  357TIP3    H122562   1.485   5.095   2.817  0.0329  0.4506 -0.4094
  357TIP3    H222563   1.367   5.141   2.901 -0.1014 -0.8596  0.1439
  358TIP3   OH222564   0.816   6.636  14.602 -0.2818 -0.1500 -0.0193
  358TIP3    H122565   0.831   6.705  14.668 -1.6112  0.0558  0.0822
  358TIP3    H222566   0.817   6.683  14.519 -1.7074  0.0884  0.0864
  359TIP3   OH222567   4.366   0.144  10.426 -0.1976 -0.2464 -0.1422
  359TIP3    H122568   4.287   0.093  10.440 -0.4681  0.3786  0.6883
  359TIP3    H222569   4.339   0.216  10.369 -0.4260  0.4321  0.8133
  360TIP3   OH222570   6.124   2.403  13.083  0.0833 -0.2728 -0.0493
  360TIP3    H122571   6.153   2.335  13.023 -1.5942 -1.7074  0.6879
  360TIP3    H222572   6.168   2.383  13.166 -0.1407 -0.2639  0.0738
  361TIP3   OH222573   1.484   1.487   0.088  0.2525 -0.0891  0.5170
  361TIP3    H122574   1.495   1.577   0.121  0.6685  0.8922 -2.0570
  361TIP3    H222575   1.391   1.469   0.099  0.3433  0.2159  2.0391
  362TIP3   OH222576   4.300   4.938   1.172  0.3324  0.5979  0.1474
  362TIP3    H122577   4.277   4.915   1.082  1.7520 -0.8542  0.1163
  362TIP3    H222578   4.394   4.956   1.169  0.2317  1.3839  1.1905
  363TIP3   OH222579   1.082   4.298  14.614  0.8493  0.2607 -0.7835
  363TIP3    H122580   1.029   4.306  14.535  0.0178 -0.7726 -0.3660
  363TIP3    H222581   1.076   4.205  14.638  2.2999  0.2534 -0.3280
  364TIP3   OH222582   5.841   1.756  14.661  0.2856 -0.0128  0.1270
  364TIP3    H122583   5.834   1.702  14.740 -0.2847 -1.7922 -1.1072
  364TIP3    H222584   5.778   1.827  14.676  1.4348  0.6856  2.0041
  365TIP3   OH222585   2.164   5.036   1.941  0.3314  0.3480 -0.0049
  365TIP3    H122586   2.159   5.032   2.037  0.0090  1.8052  0.0575
  365TIP3    H222587   2.137   4.948   1.912  3.7193 -1.3250  1.3091
  366TIP3   OH222588   3.246   6.358   3.344 -0.1748 -0.4422  0.5691
  366TIP3    H122589   3.188   6.434   3.340 -1.1250 -1.1784 -0.5400
  366TIP3    H222590   3.205   6.301   3.410 -1.7286 -1.6819 -1.3353
  367TIP3   OH222591   1.455   1.564  16.915  0.0677  0.0294  0.3143
  367TIP3    H122592   1.495   1.478  16.902  1.7109  0.7054  0.7102
  367TIP3    H222593   1.509   1.607  16.980 -1.0111  1.2075  0.4814
  368TIP3   OH222594   4.134   4.089   6.343  0.3608 -0.2185  0.6850
  368TIP3    H122595   4.069   4.096   6.413  1.0680  2.0498  1.2148
  368TIP3    H222596   4.207   4.145   6.372  1.3991 -0.5695 -1.0901
  369TIP3   OH222597   3.294   2.391  17.088 -0.3198 -0.5212 -0.1035
  369TIP3    H122598   3.381   2.395  17.049  0.2128 -0.3375  1.0641
  369TIP3    H222599   3.239   2.349  17.022  0.8399 -1.3928 -0.5309
  370TIP3   OH222600   6.129   4.030   2.428 -0.1549  0.1988 -0.0385
  370TIP3    H122601   6.154   3.942   2.398 -1.8641 -0.5676  0.6400
  370TIP3    H222602   6.062   4.058   2.365 -1.7439 -0.2665  1.3517
  371TIP3   OH222603   4.743   5.368   5.190 -0.3568  0.2371  0.1172
  371TIP3    H122604   4.788   5.290   5.158 -0.8092  0.0976 -0.1884
  371TIP3    H222605   4.770   5.438   5.129 -2.2734 -0.3063 -1.4312
  372TIP3   OH222606   3.212   0.659  17.056  0.1392  0.1743 -0.5480
  372TIP3    H122607   3.129   0.621  17.085  0.3835 -1.5658 -1.9372
  372TIP3    H222608   3.271   0.647  17.130 -0.6991  0.9505  0.2613
  373TIP3   OH222609   1.694   4.635   3.638  0.2344 -0.8084 -0.0717
  373TIP3    H122610   1.770   4.646   3.695  0.2629  0.2647 -0.3029
  373TIP3    H222611   1.626   4.599   3.696  0.2898  0.1737  0.6342
  374TIP3   OH222612   6.057   3.979  15.185 -0.5265  0.0033  0.3093
  374TIP3    H122613   6.081   3.900  15.235  1.7729 -0.9567 -2.0584
  374TIP3    H222614   6.042   3.947  15.096 -0.1188  2.1539 -0.5918
  375TIP3   OH222615   4.039   0.481   0.075 -0.1598  0.1126 -0.2792
  375TIP3    H122616   3.946   0.507   0.078 -0.1924 -0.0816  0.5699
  375TIP3    H222617   4.041   0.407   0.014 -0.8250 -0.9037  0.8896
  376TIP3   OH222618   3.712   5.951  16.314 -0.1006 -0.4195 -0.1462
  376TIP3    H122619   3.740   5.892  16.244 -0.2646  0.9264 -1.4028
  376TIP3    H222620   3.705   6.037  16.272 -0.6318  0.3613  1.4337
  377TIP3   OH222621   2.775   3.306  10.897  0.1416  0.1346  0.2942
  377TIP3    H122622   2.807   3.299  10.808 -0.8536 -2.3671  0.0467
  377TIP3    H222623   2.821   3.382  10.934  2.4223 -0.2461 -1.5584
  378TIP3   OH222624   6.193   5.142   0.962  0.1402 -0.1427 -0.2700
  378TIP3    H122625   6.115   5.142   0.906 -0.4281  0.3395  0.5081
  378TIP3    H222626   6.163   5.108   1.046  1.0418 -1.0826 -0.3087
  379TIP3   OH222627   2.107   3.289   1.758 -0.0598 -0.3250 -0.6264
  379TIP3    H122628   2.167   3.335   1.698 -0.0566  0.6653  0.1198
  379TIP3    H222629   2.165   3.248   1.822 -0.1343 -0.2061 -0.4838
  380TIP3   OH222630   1.474   4.716   3.963  0.7767  0.2822  0.7817
  380TIP3    H122631   1.475   4.783   3.894 -3.1327 -0.7895 -0.5816
  380TIP3    H222632   1.533   4.648   3.930  1.0433  0.9460 -0.1836
  381TIP3   OH222633   4.675   6.305   5.682  0.0098 -0.4017 -0.4395
  381TIP3    H122634   4.629   6.349   5.610  0.7805  0.8405 -0.1856
  381TIP3    H222635   4.708   6.376   5.737 -0.6493 -1.3224  1.2198
  382TIP3   OH222636   5.086   0.057  14.899  0.1331 -0.2640  0.1031
  382TIP3    H122637   5.033   0.001  14.843  1.5314  0.5232 -2.1436
  382TIP3    H222638   5.161   0.002  14.924 -0.4429 -0.5854  1.2130
  383TIP3   OH222639   0.258   4.030   4.761  0.5746  0.0776 -0.2765
  383TIP3    H122640   0.172   4.068   4.780  0.6609  0.9094 -1.4691
  383TIP3    H222641   0.314   4.059   4.833 -0.3255 -1.2243  1.0084
  384TIP3   OH222642   4.676   4.106   4.072  0.1647 -0.1428  0.0131
  384TIP3    H122643   4.747   4.169   4.065 -0.5323  0.6265 -0.3672
  384TIP3    H222644   4.715   4.022   4.049  1.4618 -0.1309  1.9263
  385TIP3   OH222645   1.515   3.324   0.844 -0.3303 -0.2239 -0.2730
  385TIP3    H122646   1.529   3.387   0.773 -0.0132 -1.1609 -1.0620
  385TIP3    H222647   1.421   3.304   0.839 -0.5278  0.5257  0.2832
  386TIP3   OH222648   1.776   0.733   2.934 -0.8783  0.5726 -0.5186
  386TIP3    H122649   1.801   0.644   2.910 -1.4107 -0.3621  2.0609
  386TIP3    H222650   1.682   0.736   2.920 -1.1474  0.1096  1.0055
  387TIP3   OH222651   1.033   4.880   5.363  0.1545  0.3023  0.5236
  387TIP3    H122652   0.973   4.952   5.340  1.0204  1.4427  1.6941
  387TIP3    H222653   1.032   4.877   5.459  0.4419 -1.0028  0.5028
  388TIP3   OH222654   5.383   3.928   3.111  0.0911 -0.2294  0.1447
  388TIP3    H122655   5.376   3.943   3.017 -1.3080 -2.3233 -0.1627
  388TIP3    H222656   5.379   4.015   3.150  3.6937  1.0172 -1.7629
  389TIP3   OH222657   2.890   3.768  16.052  0.0714  0.0343 -0.0912
  389TIP3    H122658   2.870   3.751  15.960  1.9372  1.0308 -0.7296
  389TIP3    H222659   2.979   3.735  16.064  0.4621  1.3388  0.9190
  390TIP3   OH222660   5.416   1.794  15.525 -0.1328 -0.4510 -0.6383
  390TIP3    H122661   5.385   1.846  15.451 -1.3258  0.1507  0.2550
  390TIP3    H222662   5.441   1.710  15.486 -1.8122 -0.5607 -1.5842
  391TIP3   OH222663   3.960   0.317   0.276  0.6952 -0.2028  0.5407
  391TIP3    H122664   3.995   0.399   0.242 -0.4977  0.4892  0.9475
  391TIP3    H222665   3.954   0.260   0.199 -0.0200  0.6508 -0.0474
  392TIP3   OH222666   2.795   3.653   3.209  0.3563  0.1709  0.0617
  392TIP3    H122667   2.818   3.728   3.155  2.3657 -0.0982  0.4355
  392TIP3    H222668   2.825   3.677   3.297 -0.5390 -0.3941  0.5346
  393TIP3   OH222669   4.093   2.769  14.336  0.1272 -0.7136  0.1919
  393TIP3    H122670   4.029   2.705  14.367 -0.4876 -0.1084  0.1742
  393TIP3    H222671   4.042   2.831  14.284  0.7255 -0.2246  0.1810
  394TIP3   OH222672   2.170   1.443   2.217 -0.7198  0.9527  0.0688
  394TIP3    H122673   2.216   1.388   2.280 -1.1008  1.6303  0.9532
  394TIP3    H222674   2.081   1.450   2.251 -0.8250  1.6554 -0.3286
  395TIP3   OH222675   6.427   3.674  17.035  0.5051  0.2113 -0.2927
  395TIP3    H122676   6.459   3.687  16.946  1.2612 -2.0676 -0.4388
  395TIP3    H222677   6.342   3.718  17.037  0.2588 -0.0718 -2.2883
  396TIP3   OH222678   2.961   4.624  11.302  0.0785  0.5501  0.1678
  396TIP3    H122679   3.045   4.580  11.293 -0.6200 -0.4801 -2.2063
  396TIP3    H222680   2.914   4.574  11.368  0.5993 -0.1246  0.0348
  397TIP3   OH222681   2.547   2.626  12.163 -0.5039 -0.5979  0.2894
  397TIP3    H122682   2.641   2.622  12.148 -0.6145 -1.5264 -0.2664
  397TIP3    H222683   2.526   2.719  12.162  0.6140 -0.2985  1.8876
  398TIP3   OH222684   0.730   2.324  13.817 -0.2999  0.7112  0.4262
  398TIP3    H122685   0.680   2.244  13.829  0.7582 -0.5380 -2.5119
  398TIP3    H222686   0.674   2.379  13.762 -0.1660  1.1199  0.6954
  399TIP3   OH222687   0.612   2.239  15.878  0.1194 -0.4267 -0.5375
  399TIP3    H122688   0.550   2.229  15.951 -1.2588 -1.5833 -1.8202
  399TIP3    H222689   0.689   2.190  15.906  0.4340  0.8150  0.9734
  400TIP3   OH222690   4.196   5.016  12.221 -0.4383  0.2729  0.2858
  400TIP3    H122691   4.285   5.025  12.184 -0.3074  2.1751  0.9433
  400TIP3    H222692   4.139   5.053  12.153 -0.4313  1.5567  0.9510
  401TIP3   OH222693   1.363   4.780   1.276  0.1885 -0.0722 -0.0176
  401TIP3    H122694   1.347   4.817   1.363 -0.2412  0.2715 -0.2393
  401TIP3    H222695   1.305   4.705   1.271 -1.2729  1.0576 -0.7450
  402TIP3   OH222696   0.192   4.054  15.863 -0.5595 -0.1061 -0.2675
  402TIP3    H122697   0.128   4.121  15.838  0.8038  0.9770 -0.9712
  402TIP3    H222698   0.208   4.004  15.783 -0.1414 -0.0393 -0.2289
  403TIP3   OH222699   6.658   1.929  16.177 -0.1630  0.4267 -0.3715
  403TIP3    H122700   6.725   1.863  16.193  0.2042  0.1525 -2.7392
  403TIP3    H222701   6.595   1.917  16.249  1.0453 -0.9477  0.5161
  404TIP3   OH222702   4.590   5.334  16.998  0.0912  0.1409  0.3809
  404TIP3    H122703   4.538   5.333  16.918  1.4487 -0.5029 -0.5353
  404TIP3    H222704   4.538   5.384  17.061 -0.4439  1.7541 -1.2869
  405TIP3   OH222705   0.061   1.554   4.230  0.7235  0.0302  0.7739
  405TIP3    H122706   0.007   1.574   4.306 -0.4812  3.0696 -0.7522
  405TIP3    H222707   0.036   1.465   4.206 -0.7745 -0.0250  2.3357
  406TIP3   OH222708   1.759   0.484   2.452 -0.1443  0.1437 -0.0602
  406TIP3    H122709   1.743   0.486   2.358 -2.1701 -1.9266  0.1300
  406TIP3    H222710   1.707   0.557   2.487 -2.2001 -1.1173 -0.3125
  407TIP3   OH222711   3.314   4.639  16.854  0.1290  0.9184 -0.0061
  407TIP3    H122712   3.346   4.711  16.800  0.1117  0.5326 -0.5401
  407TIP3    H222713   3.268   4.682  16.926 -0.1317  1.4410 -0.4700
  408TIP3   OH222714   5.434   6.576  13.488 -0.2412 -0.4808 -0.6546
  408TIP3    H122715   5.387   6.659  13.476 -1.1055 -0.8828 -0.1177
  408TIP3    H222716   5.475   6.559  13.403  0.2369  0.6630 -0.6830
  409TIP3   OH222717   3.206   2.595  12.420 -0.9455  0.0072 -0.1238
  409TIP3    H122718   3.118   2.560  12.410 -1.5753  1.4197  0.2088
  409TIP3    H222719   3.225   2.586  12.513 -0.4423 -0.9209 -0.3014
  410TIP3   OH222720   1.948   2.533   3.207  0.4444  0.0470 -0.4085
  410TIP3    H122721   2.036   2.538   3.243 -0.2908 -3.1389  2.2783
  410TIP3    H222722   1.949   2.457   3.149 -0.7539 -0.7505  0.5585
  411TIP3   OH222723   6.382   6.333   0.919 -0.3587 -0.1607  0.2933
  411TIP3    H122724   6.473   6.317   0.895 -0.5521 -1.0344  0.1177
  411TIP3    H222725   6.384   6.414   0.970  0.3388  0.5822 -0.8672
  412TIP3   OH222726   4.235   4.942  14.385  0.2778  0.1682 -0.2595
  412TIP3    H122727   4.162   4.913  14.331  0.2226 -0.6566  0.2407
  412TIP3    H222728   4.312   4.903  14.345  0.5670  1.6269 -1.2173
  413TIP3   OH222729   1.590   5.684   1.704  0.2619 -0.1661  0.0295
  413TIP3    H122730   1.535   5.622   1.752  0.1043  1.3553  1.9138
  413TIP3    H222731   1.640   5.629   1.643 -1.4932 -1.8562  0.0266
  414TIP3   OH222732   6.308   3.214   4.503  0.1133 -0.1674 -0.3079
  414TIP3    H122733   6.299   3.121   4.483 -0.1205 -0.1849 -0.1275
  414TIP3    H222734   6.399   3.235   4.480 -0.5035  0.1630 -2.8247
  415TIP3   OH222735   5.326   4.536   3.702  0.3013  0.4629 -0.1196
  415TIP3    H122736   5.417   4.523   3.674 -0.1624  0.3758 -1.6585
  415TIP3    H222737   5.329   4.526   3.797  2.3807  3.2247  0.2459
  416TIP3   OH222738   4.095   2.386  11.145 -0.3233 -0.0544 -0.1422
  416TIP3    H122739   4.129   2.374  11.056 -0.1415  1.9084 -0.3797
  416TIP3    H222740   4.003   2.412  11.132  0.2405  2.2929  0.0712
  417TIP3   OH222741   2.428   4.490   4.621 -0.9038 -0.1905 -0.5695
  417TIP3    H122742   2.335   4.509   4.608 -0.9563 -0.0942 -0.0768
  417TIP3    H222743   2.438   4.482   4.716 -0.0725  1.5582 -0.4791
  418TIP3   OH222744   6.439   2.692  11.465  0.1233  0.0089 -0.0150
  418TIP3    H122745   6.396   2.606  11.463  0.6685 -0.2624 -1.7291
  418TIP3    H222746   6.528   2.675  11.436  0.2743  1.1308 -0.2484
  419TIP3   OH222747   1.111   5.033  15.257 -0.2021  0.6274 -0.7704
  419TIP3    H122748   1.093   4.941  15.278 -0.0624  0.5163 -1.1191
  419TIP3    H222749   1.190   5.054  15.307  0.4398  0.2047 -1.5727
  420TIP3   OH222750   1.793   1.836   2.638 -0.0380 -0.3870  0.0569
  420TIP3    H122751   1.809   1.920   2.681  1.0476  0.6011 -2.1368
  420TIP3    H222752   1.756   1.781   2.707 -0.4913  1.7660  1.6478
  421TIP3   OH222753   2.050   0.000   2.120  0.6916  0.1552 -0.3265
  421TIP3    H122754   2.039   0.065   2.051 -2.2520  0.1593  0.0277
  421TIP3    H222755   2.025  -0.083   2.080  3.6372 -0.7259 -0.5443
  422TIP3   OH222756   4.538   5.035   0.370  0.2064 -0.1276 -1.4221
  422TIP3    H122757   4.553   5.096   0.298 -0.0852  1.2377 -0.3650
  422TIP3    H222758   4.625   5.003   0.392  0.4184  0.2217 -1.7344
  423TIP3   OH222759   2.821   3.081  14.796 -0.2202 -0.1108 -0.0055
  423TIP3    H122760   2.834   3.158  14.852  1.0598 -0.5870  0.3844
  423TIP3    H222761   2.869   3.101  14.716  0.1272 -0.4981  0.1009
  424TIP3   OH222762   0.174   1.392   4.475 -0.3670 -0.1099 -0.0589
  424TIP3    H122763   0.231   1.448   4.422 -0.0522  0.6183  1.0175
  424TIP3    H222764   0.087   1.432   4.467 -0.2962  0.0704  0.0643
  425TIP3   OH222765   2.966   0.712  13.079 -0.2094  0.4770  0.2123
  425TIP3    H122766   2.937   0.803  13.075 -0.8816  0.2219 -1.3041
  425TIP3    H222767   2.934   0.673  12.998 -1.7785 -1.6675  1.7468
  426TIP3   OH222768   4.355   4.055   1.849 -0.5408  0.2017  0.2378
  426TIP3    H122769   4.403   3.977   1.821 -4.4142 -1.6121 -2.4201
  426TIP3    H222770   4.393   4.126   1.799 -1.1070 -1.3502 -2.6600
  427TIP3   OH222771   3.170   4.778  13.498  0.0568 -0.0476 -0.2770
  427TIP3    H122772   3.219   4.709  13.453  2.3663 -0.8758  3.1260
  427TIP3    H222773   3.086   4.737  13.518  0.1096 -0.6710 -1.2644
  428TIP3   OH222774   4.970   6.478  14.156 -0.4072 -0.1651  0.0416
  428TIP3    H122775   4.884   6.501  14.192 -0.7525 -0.1754 -0.7565
  428TIP3    H222776   4.996   6.555  14.106 -0.0551 -0.2518  0.0914
  429TIP3   OH222777   2.486   2.618  14.199 -0.1784 -0.2257 -0.4817
  429TIP3    H122778   2.483   2.586  14.109 -1.9073 -1.3050 -0.0994
  429TIP3    H222779   2.541   2.696  14.196  0.6456 -0.8346 -2.2651
  430TIP3   OH222780   1.134   5.767  16.121  0.4450  0.0063  0.2526
  430TIP3    H122781   1.153   5.856  16.151  2.9781 -0.3187 -0.1856
  430TIP3    H222782   1.108   5.778  16.030  0.9344  0.3003  0.1416
  431TIP3   OH222783   0.518   0.693   5.870  0.3630 -0.0085  0.3026
  431TIP3    H122784   0.558   0.740   5.944 -0.1062  2.5834 -0.9483
  431TIP3    H222785   0.431   0.670   5.902  0.5122  0.1986  0.8868
  432TIP3   OH222786   6.136   1.435   4.723 -0.3218 -0.4112  0.4957
  432TIP3    H122787   6.119   1.529   4.721 -0.8721 -0.5122 -0.5237
  432TIP3    H222788   6.081   1.402   4.794 -1.5168 -0.1928 -0.2947
  433TIP3   OH222789   3.979   0.179  16.412 -0.0990 -0.2280  0.5797
  433TIP3    H122790   3.998   0.094  16.451  1.5652 -0.6281 -0.9641
  433TIP3    H222791   4.065   0.218  16.397 -0.7442  0.7044 -0.8809
  434TIP3   OH222792   0.877   1.424   0.395 -0.5454 -0.2543  0.0232
  434TIP3    H122793   0.874   1.507   0.442  0.5869 -1.1359  1.7902
  434TIP3    H222794   0.799   1.377   0.424 -1.5952  0.4483 -1.5658
  435TIP3   OH222795   0.200   6.433   1.962 -0.4727  0.0614  0.0203
  435TIP3    H122796   0.186   6.338   1.970  2.1109 -0.4317 -0.3313
  435TIP3    H222797   0.217   6.447   1.869  2.3872  0.2401  0.4710
  436TIP3   OH222798   3.195   1.752   1.019 -0.8607 -0.1462  0.1175
  436TIP3    H122799   3.282   1.792   1.028 -1.2862  0.7604  0.2243
  436TIP3    H222800   3.213   1.667   0.978 -0.1427  1.0535 -2.2208
  437TIP3   OH222801   6.000   3.896  12.175  0.5055  0.4148 -0.3642
  437TIP3    H122802   5.935   3.935  12.118 -0.4723  1.4151  1.3473
  437TIP3    H222803   6.084   3.924  12.139  0.0010 -0.1207 -2.0553
  438TIP3   OH222804   2.130   1.136  16.289  0.1619 -0.0882 -0.8171
  438TIP3    H122805   2.161   1.048  16.310 -0.5336 -0.1694 -0.1176
  438TIP3    H222806   2.190   1.194  16.336 -0.0301 -0.2187 -0.4066
  439TIP3   OH222807   0.173   0.365   4.127 -0.0623 -0.1417  0.2213
  439TIP3    H122808   0.172   0.283   4.175 -1.2539  0.7841  1.8913
  439TIP3    H222809   0.194   0.432   4.193 -1.5673  1.1498 -0.5259
  440TIP3   OH222810   6.548   2.814  11.751  0.5879 -0.1579 -0.0673
  440TIP3    H122811   6.581   2.745  11.808  0.3452 -0.4622 -0.2937
  440TIP3    H222812   6.482   2.771  11.697  1.1406  0.0092 -0.8983
  441TIP3   OH222813   3.121   6.590   1.758 -0.0832  0.5301 -0.0064
  441TIP3    H122814   3.146   6.509   1.715  0.3353  0.1656  0.8958
  441TIP3    H222815   3.145   6.577   1.850 -1.5432  1.0171  0.4793
  442TIP3   OH222816   0.925   4.977   0.643 -0.2487  0.5936 -0.0644
  442TIP3    H122817   1.007   4.929   0.631  0.3117  1.2768  0.9052
  442TIP3    H222818   0.858   4.920   0.605  0.4495 -0.7621  0.6576
  443TIP3   OH222819   2.023   3.016   4.340  1.2069  0.5372 -0.3108
  443TIP3    H122820   2.109   3.023   4.381  1.5213 -0.8546 -0.6556
  443TIP3    H222821   2.024   2.930   4.297 -0.0889  0.8067 -0.9413
  444TIP3   OH222822   0.567   0.250   3.623  0.1460 -0.4010 -0.2702
  444TIP3    H122823   0.493   0.294   3.664  1.0759  2.4199 -1.3670
  444TIP3    H222824   0.632   0.242   3.692  0.9062  2.3937 -0.5505
  445TIP3   OH222825   1.431   1.538   2.863 -0.0039 -0.0684  0.0356
  445TIP3    H122826   1.355   1.592   2.887  0.1746 -0.1511  0.8448
  445TIP3    H222827   1.457   1.497   2.946 -0.6756 -2.1158 -0.7165
  446TIP3   OH222828   3.367   4.832   0.377  0.5146  0.2553 -0.0312
  446TIP3    H122829   3.454   4.814   0.341  0.2232 -1.3554  0.0089
  446TIP3    H222830   3.371   4.924   0.403  2.9648 -0.2738  1.9541
  447TIP3   OH222831   4.757   6.695  15.293  0.2483  0.2912 -0.0870
  447TIP3    H122832   4.769   6.789  15.302  1.4039  0.3233 -1.5613
  447TIP3    H222833   4.743   6.664  15.382  2.4615  1.5351  0.7865
  448TIP3   OH222834   0.193   2.512   2.387  0.4354 -0.2164  0.5307
  448TIP3    H122835   0.222   2.580   2.448 -1.2495 -0.2919  1.4877
  448TIP3    H222836   0.200   2.431   2.438 -2.3526 -0.1206  1.2336
  449TIP3   OH222837   2.049   2.741  11.836  0.3554 -0.5573 -0.4194
  449TIP3    H122838   2.139   2.721  11.861  0.9446  1.7163 -0.4514
  449TIP3    H222839   2.017   2.801  11.904 -0.2621  0.5616 -1.6265
  450TIP3   OH222840   4.641   5.807   5.098 -0.1011  0.5319  0.3155
  450TIP3    H122841   4.601   5.821   5.012 -0.5003  1.6547  0.6745
  450TIP3    H222842   4.734   5.789   5.079  0.0824  2.0135 -0.2899
  451TIP3   OH222843   4.689   5.471   2.979  0.1207  0.4025  1.1864
  451TIP3    H122844   4.671   5.389   3.025  1.8102 -0.0644  1.0534
  451TIP3    H222845   4.697   5.446   2.887  0.6407  0.7202  1.1416
  452TIP3   OH222846   2.430   3.990  11.203  0.1177 -0.4345 -0.0585
  452TIP3    H122847   2.474   3.971  11.286  2.3579 -0.3760 -1.1700
  452TIP3    H222848   2.375   4.066  11.222 -0.4676 -1.2565  1.6913
  453TIP3   OH222849   3.585   0.398  16.112  0.2620 -0.1014 -0.6049
  453TIP3    H122850   3.600   0.491  16.124 -0.3211  0.2085 -2.0666
  453TIP3    H222851   3.646   0.355  16.172  1.1512  1.1957 -0.5598
  454TIP3   OH222852   5.384   2.883  10.226  0.8747 -0.2113 -0.4162
  454TIP3    H122853   5.436   2.822  10.279 -0.6177  0.5684  2.1459
  454TIP3    H222854   5.343   2.941  10.290 -2.3180 -0.1307 -2.3441
  455TIP3   OH222855   0.328   0.111  17.048  0.4337 -0.1085  0.2987
  455TIP3    H122856   0.260   0.178  17.043  0.9642  0.4549  0.3817
  455TIP3    H222857   0.364   0.121  17.136 -0.6363 -1.6816  0.9492
  456TIP3   OH222858   2.844   4.424  16.783 -0.2885 -0.4702 -0.1118
  456TIP3    H122859   2.854   4.339  16.826 -1.0474 -0.7007 -0.3768
  456TIP3    H222860   2.907   4.481  16.827  0.5341 -1.2748 -0.2082
  457TIP3   OH222861   0.086   4.455  10.957 -0.6266  0.4557  0.4196
  457TIP3    H122862  -0.006   4.467  10.936 -0.1910  0.5298 -1.5711
  457TIP3    H222863   0.085   4.405  11.039 -2.4569 -2.2437 -1.1114
  458TIP3   OH222864   3.285   3.923   2.762 -0.2387 -0.2017 -0.0810
  458TIP3    H122865   3.284   4.019   2.761  0.2522 -0.1647  1.0041
  458TIP3    H222866   3.232   3.899   2.839  0.1915 -0.7680  0.0473
  459TIP3   OH222867   5.149   2.711   4.006  0.2951  0.4347 -0.3601
  459TIP3    H122868   5.190   2.788   3.966 -1.3311  0.2572 -2.5448
  459TIP3    H222869   5.222   2.653   4.027  1.6783  2.8505  2.2454
  460TIP3   OH222870   6.736   0.770   3.124 -0.0605  0.0891 -0.0975
  460TIP3    H122871   6.820   0.725   3.131  1.2061  2.2039 -0.5840
  460TIP3    H222872   6.671   0.700   3.122  1.8135 -1.7711 -1.7732
  461TIP3   OH222873   4.889   5.339   2.238  0.7364  0.0109 -0.0716
  461TIP3    H122874   4.953   5.410   2.234 -1.0816  2.0599  2.5927
  461TIP3    H222875   4.813   5.373   2.191  0.3567 -0.8550 -0.1008
  462TIP3   OH222876   1.606   5.438   1.872  0.3904  0.3480  0.3384
  462TIP3    H122877   1.626   5.392   1.790 -0.3108  0.8492 -0.1249
  462TIP3    H222878   1.658   5.393   1.938  2.0690  0.8149 -0.6010
  463TIP3   OH222879   1.194   2.214  15.474  0.9556 -0.0717 -0.6160
  463TIP3    H122880   1.114   2.264  15.495  1.3476 -0.1103  1.1209
  463TIP3    H222881   1.191   2.139  15.533  2.4965  0.1606 -0.2065
  464TIP3   OH222882   5.878   3.892   3.109  0.0948 -0.3016  0.8466
  464TIP3    H122883   5.784   3.885   3.093 -0.4454  2.9722  1.8643
  464TIP3    H222884   5.912   3.804   3.090 -2.9940 -1.3819 -0.3714
  465TIP3   OH222885   0.200   3.859  15.642  0.0179 -0.1492  0.0072
  465TIP3    H122886   0.283   3.818  15.617 -0.7635 -1.2893 -0.8410
  465TIP3    H222887   0.154   3.792  15.691 -0.5542  0.3486  0.1662
  466TIP3   OH222888   4.819   2.720   0.505  0.2123  0.5209 -0.2633
  466TIP3    H122889   4.793   2.710   0.414 -0.8247  1.2015 -0.0644
  466TIP3    H222890   4.789   2.639   0.547 -0.2559  0.6503 -0.3371
  467TIP3   OH222891   0.513   0.917   6.451  0.1060 -0.5927  0.0544
  467TIP3    H122892   0.506   0.826   6.420  3.2447 -1.3116  1.0781
  467TIP3    H222893   0.606   0.929   6.468 -0.6025  1.7548  3.1665
  468TIP3   OH222894   1.181   3.490   0.823  0.0654 -0.1729  0.5013
  468TIP3    H122895   1.123   3.565   0.808  0.3239  0.0489  0.6053
  468TIP3    H222896   1.145   3.421   0.767  0.1185  0.1779  0.0281
  469TIP3   OH222897   6.775   3.763   4.906  0.2319  0.2019 -0.3231
  469TIP3    H122898   6.744   3.784   4.993  0.1026 -1.2519  0.0074
  469TIP3    H222899   6.732   3.827   4.849 -1.1358  0.0225  0.4582
  470TIP3   OH222900   1.783   2.733  11.296 -0.5974  0.1408  0.1674
  470TIP3    H122901   1.858   2.784  11.328 -1.3362 -0.1153  2.4664
  470TIP3    H222902   1.746   2.786  11.226  0.3539  1.3767  0.5634
  471TIP3   OH222903   1.235   3.318   2.107  0.2327 -0.1277  0.8947
  471TIP3    H122904   1.285   3.358   2.036 -0.6321 -0.1055  0.2782
  471TIP3    H222905   1.172   3.385   2.132  0.4844 -0.1609  1.6529
  472TIP3   OH222906   0.458   2.440   1.951  0.1507  0.2350 -0.0720
  472TIP3    H122907   0.458   2.424   2.045  1.2288 -1.0901 -0.2586
  472TIP3    H222908   0.398   2.374   1.915 -0.5210  0.9531 -0.2923
  473TIP3   OH222909   3.409   6.082   0.092 -0.3467  0.2943  0.5981
  473TIP3    H122910   3.474   6.028   0.046  0.0633  0.8656  0.4974
  473TIP3    H222911   3.401   6.042   0.178 -1.2079 -0.8615  0.0065
  474TIP3   OH222912   2.940   2.781  15.068 -0.5804  0.1150  0.4010
  474TIP3    H122913   2.854   2.808  15.037 -0.1946 -1.1736 -2.0934
  474TIP3    H222914   2.969   2.852  15.125 -2.8528  1.0304  0.5134
  475TIP3   OH222915   3.509   3.557  11.531 -0.8246 -0.3599  1.0491
  475TIP3    H122916   3.586   3.590  11.576 -0.8823 -0.9083  1.5597
  475TIP3    H222917   3.438   3.614  11.559 -0.3731  1.1253 -0.6005
  476TIP3   OH222918   2.093   1.606  14.639 -0.2495 -0.9161  0.1318
  476TIP3    H122919   2.172   1.660  14.634 -0.7357 -0.2760 -0.9240
  476TIP3    H222920   2.126   1.516  14.638  0.4399 -0.6756 -1.4257
  477TIP3   OH222921   0.106   5.634  15.008  0.2749  0.1107 -0.0887
  477TIP3    H122922   0.117   5.591  14.923 -4.1181  0.3724 -1.0528
  477TIP3    H222923   0.068   5.566  15.064  0.2293  0.7649  0.6881
  478TIP3   OH222924   4.149   5.475   3.203  0.0439 -0.3795  0.1449
  478TIP3    H122925   4.238   5.469   3.167 -0.9309 -0.7282 -2.3865
  478TIP3    H222926   4.140   5.397   3.258  1.5060  0.0426  1.0537
  479TIP3   OH222927   3.638   5.214   1.764 -0.0726 -0.0835  0.5450
  479TIP3    H122928   3.643   5.303   1.731 -0.6776  0.1772  1.1379
  479TIP3    H222929   3.554   5.181   1.731  0.0660 -0.3759  0.4785
  480TIP3   OH222930   2.210   1.550  12.221 -0.0448  0.2130  0.6163
  480TIP3    H122931   2.210   1.566  12.127  1.4585 -0.3819  0.4776
  480TIP3    H222932   2.216   1.455  12.229  0.2990  0.2828  1.3081
  481TIP3   OH222933   6.093   5.777   5.529 -0.3956  0.1620  0.2199
  481TIP3    H122934   6.032   5.850   5.527 -1.2138 -0.4539  1.3336
  481TIP3    H222935   6.062   5.718   5.460  0.2273  0.8036 -0.6356
  482TIP3   OH222936   3.850   6.587   0.289  0.0551 -0.5439 -0.3462
  482TIP3    H122937   3.817   6.554   0.206  1.2445  0.9803 -1.4790
  482TIP3    H222938   3.797   6.664   0.308 -0.3588 -1.0090  0.4533
  483TIP3   OH222939   6.065   4.184  14.710 -0.7541 -0.1641 -0.7601
  483TIP3    H122940   5.986   4.135  14.733 -2.0715  1.8148 -0.7992
  483TIP3    H222941   6.034   4.273  14.693  1.5300  0.7338 -0.5942
  484TIP3   OH222942   2.456   5.994  17.107 -0.4023 -0.2845  0.5898
  484TIP3    H122943   2.456   5.959  17.196  3.2703  0.3445  0.9938
  484TIP3    H222944   2.518   5.938  17.060  1.3607  2.1792 -0.2099
  485TIP3   OH222945   3.025   3.172  15.131  0.0513  0.0881 -0.5719
  485TIP3    H122946   3.014   3.257  15.089 -2.4886  0.1243  0.0118
  485TIP3    H222947   2.936   3.146  15.156  0.9620 -1.9663  0.7705
  486TIP3   OH222948   5.807   1.639   4.912  0.0544 -0.2475 -0.8313
  486TIP3    H122949   5.821   1.554   4.955 -0.5137 -0.5573 -1.2523
  486TIP3    H222950   5.893   1.663   4.879  0.5955  0.1593  0.7467
  487TIP3   OH222951   2.245   4.400  12.297 -0.7739 -0.5084 -0.1963
  487TIP3    H122952   2.160   4.428  12.330 -0.8243 -0.4115 -0.4088
  487TIP3    H222953   2.235   4.396  12.202 -1.0766 -2.2607 -0.1200
  488TIP3   OH222954   1.593   3.967  12.729  0.5021  0.3172 -0.5269
  488TIP3    H122955   1.507   3.928  12.742  0.4464  0.4880 -0.3802
  488TIP3    H222956   1.622   3.932  12.645  1.4130 -1.7810  0.5908
  489TIP3   OH222957   3.943   0.276   5.901 -0.1232  0.4270 -0.0779
  489TIP3    H122958   3.977   0.264   5.812 -0.2879  0.1611 -0.1057
  489TIP3    H222959   3.878   0.345   5.893  0.5392  1.0790  0.0091
  490TIP3   OH222960   6.486   2.470   4.891 -0.5264  0.3317 -0.2459
  490TIP3    H122961   6.543   2.543   4.915 -1.1936  0.5773  0.6691
  490TIP3    H222962   6.425   2.463   4.965 -0.0026 -1.6455  0.0575
  491TIP3   OH222963   0.941   5.819   3.586 -0.5418 -0.3464  0.4571
  491TIP3    H122964   0.960   5.736   3.543  0.4236 -0.0417  0.2679
  491TIP3    H222965   1.022   5.869   3.578 -0.2888 -0.2984  2.6907
  492TIP3   OH222966   6.124   2.864   3.361 -0.0482  0.1702  0.0388
  492TIP3    H122967   6.033   2.840   3.377  0.4457 -0.9047  1.4899
  492TIP3    H222968   6.148   2.816   3.282 -0.8531  0.8496 -0.6433
  493TIP3   OH222969   4.570   4.980  16.409  0.2980 -0.2134  0.0837
  493TIP3    H122970   4.605   4.908  16.461  0.9771 -0.3138 -0.4966
  493TIP3    H222971   4.506   4.938  16.351  0.7943 -0.3810 -0.3507
  494TIP3   OH222972   6.445   6.729   1.123 -0.3568  0.7232  0.1418
  494TIP3    H122973   6.458   6.680   1.041 -0.3049  2.6739 -1.0724
  494TIP3    H222974   6.527   6.718   1.170  0.5075  1.4099 -1.1295
  495TIP3   OH222975   5.069   0.869   5.816 -0.3417  0.3775 -0.1067
  495TIP3    H122976   5.097   0.820   5.738 -0.8039 -1.1540  0.6641
  495TIP3    H222977   5.061   0.803   5.884 -0.1912  1.6644  1.1994
  496TIP3   OH222978   1.940   1.809   4.277  0.3131  0.2812  0.0427
  496TIP3    H122979   1.892   1.749   4.334  1.4311 -0.0389  0.6767
  496TIP3    H222980   2.030   1.777   4.278  0.4817  0.6314 -1.4373
  497TIP3   OH222981   5.484   5.723   1.168  0.2951 -0.1370  0.2129
  497TIP3    H122982   5.426   5.674   1.109 -1.4641  0.8113  1.0717
  497TIP3    H222983   5.425   5.757   1.236  2.0033  0.2160  1.5731
  498TIP3   OH222984   5.790   6.456  16.939  0.0177 -0.7405  0.1712
  498TIP3    H122985   5.833   6.436  17.022 -1.3952 -1.4207  0.7764
  498TIP3    H222986   5.728   6.526  16.960 -0.6581 -1.2163 -0.2117
  499TIP3   OH222987   2.420   1.499   2.461 -0.9574  0.0461  0.1542
  499TIP3    H122988   2.439   1.406   2.470 -2.2282 -0.3784 -1.2400
  499TIP3    H222989   2.467   1.526   2.383  0.3969  0.8958  1.2197
  500TIP3   OH222990   1.704   2.737  13.158 -0.0044  0.2479  0.6059
  500TIP3    H122991   1.762   2.689  13.099 -1.3904 -0.1503 -0.4912
  500TIP3    H222992   1.730   2.828  13.149  0.9765 -0.0115  0.7528
  501TIP3   OH222993   1.342   6.128  14.065 -0.8968 -0.6415 -0.0904
  501TIP3    H122994   1.383   6.045  14.090 -0.0980 -0.5363 -0.9731
  501TIP3    H222995   1.384   6.151  13.982 -2.4438 -0.2895 -0.8168
  502TIP3   OH222996   3.426   0.362   3.007  0.1241 -0.2450  0.3602
  502TIP3    H122997   3.438   0.267   3.004  0.5171 -0.1750 -1.1464
  502TIP3    H222998   3.495   0.396   2.951 -0.2278  0.9256  0.6117
  503TIP3   OH222999   4.076   4.996   1.829  0.2673  0.7523 -0.3714
  503TIP3    H123000   4.116   4.971   1.912  2.2447  0.3613 -1.3855
  503TIP3    H223001   3.982   4.990   1.846  0.6056 -1.3662  1.2411
  504TIP3   OH223002   4.731   5.681   0.774  0.0579  0.0821  0.0331
  504TIP3    H123003   4.662   5.615   0.781 -0.9958  1.2825  1.6133
  504TIP3    H223004   4.812   5.631   0.767 -0.7811 -1.3600  0.2971
  505TIP3   OH223005   2.306   0.860  14.877 -0.1627  0.1473 -0.5008
  505TIP3    H123006   2.219   0.899  14.877 -0.1436  0.1875 -0.3641
  505TIP3    H223007   2.362   0.924  14.920 -0.4749 -0.8177  1.4294
  506TIP3   OH223008   5.580   6.246  13.987 -0.5497 -0.4291  0.0212
  506TIP3    H123009   5.521   6.301  14.038  0.0623 -0.1927  0.4926
  506TIP3    H223010   5.541   6.159  13.989  0.0865 -0.7095  1.9479
  507TIP3   OH223011   4.439   6.668  15.882  0.2086  0.3586 -0.3795
  507TIP3    H123012   4.532   6.678  15.863  0.1470 -0.7419 -1.3482
  507TIP3    H223013   4.396   6.733  15.827  0.3589  0.4617 -0.3764
  508TIP3   OH223014   3.013   4.505  13.330  0.2704 -0.3160  0.1311
  508TIP3    H123015   2.980   4.549  13.409  0.3253 -0.6720  0.3559
  508TIP3    H223016   2.972   4.552  13.258  1.5172  1.1197  0.2972
  509TIP3   OH223017   2.030   6.221  17.031  0.0116  0.4800  0.3487
  509TIP3    H123018   2.041   6.302  16.981 -2.2183  0.1275 -0.8272
  509TIP3    H223019   2.052   6.245  17.121  2.0721  1.6652 -0.3943
  510TIP3   OH223020   4.475   6.538  16.947 -0.0522  0.3429  0.0495
  510TIP3    H123021   4.482   6.586  17.029  0.1043 -1.0432  0.8788
  510TIP3    H223022   4.555   6.486  16.942 -0.8988 -1.0269  0.0020
  511TIP3   OH223023   0.021   2.353   3.874  0.4341 -0.0197  0.2888
  511TIP3    H123024   0.043   2.432   3.923  1.6756  0.1727 -0.5651
  511TIP3    H223025   0.032   2.282   3.938 -0.6272  0.4590  1.0413
  512TIP3   OH223026   2.888   3.088  17.098  0.7316 -0.2357  0.4274
  512TIP3    H123027   2.816   3.148  17.120  0.9880  0.3043 -0.1762
  512TIP3    H223028   2.855   3.038  17.023  1.2655  0.5542 -0.3500
  513TIP3   OH223029   3.644   6.140   5.201 -0.1407  0.2383 -0.6430
  513TIP3    H123030   3.614   6.208   5.141  0.2014  0.6536 -0.3553
  513TIP3    H223031   3.569   6.120   5.256 -0.3474  0.1207 -0.9669
  514TIP3   OH223032   1.835   0.826  17.073  0.0878 -0.4564 -0.4409
  514TIP3    H123033   1.877   0.912  17.083  0.6551 -0.4449 -2.4307
  514TIP3    H223034   1.750   0.846  17.033  0.0348 -0.7727 -0.4867
  515TIP3   OH223035   0.021   4.965   0.702  0.0901  0.3391 -0.0993
  515TIP3    H123036   0.087   5.014   0.752  1.4465 -1.4645 -0.0337
  515TIP3    H223037   0.040   4.985   0.611  1.2714 -0.7662 -0.1209
  516TIP3   OH223038   2.363   2.810  15.789 -0.6082  0.1459  0.2905
  516TIP3    H123039   2.355   2.767  15.874 -3.1429  1.3670  0.7822
  516TIP3    H223040   2.432   2.875  15.801  0.1823 -0.7708  0.8715
  517TIP3   OH223041   6.841   2.601  15.916  0.1163 -0.0582  0.7116
  517TIP3    H123042   6.792   2.518  15.914 -0.2864  0.1769  0.8073
  517TIP3    H223043   6.910   2.589  15.851 -0.1837 -0.3198  0.4390
  518TIP3   OH223044   5.295   3.625  14.611  0.5384  0.1110  0.4715
  518TIP3    H123045   5.239   3.549  14.596  0.9431 -0.2328  0.6938
  518TIP3    H223046   5.368   3.614  14.550  1.4820 -0.5781  1.6772
  519TIP3   OH223047   2.593   0.442   2.462 -0.5215 -0.0908 -0.5321
  519TIP3    H123048   2.540   0.502   2.514 -0.3493  0.7912 -1.3374
  519TIP3    H223049   2.629   0.380   2.525 -0.7407  0.6323  0.3155
  520TIP3   OH223050   1.219   0.750   4.326  0.2720  0.3722 -0.1115
  520TIP3    H123051   1.147   0.759   4.264  1.0686  1.4735 -0.9156
  520TIP3    H223052   1.237   0.655   4.328  0.4351  0.3328 -1.8408
  521TIP3   OH223053   3.646   2.683   1.758 -0.1663 -0.0035 -0.0989
  521TIP3    H123054   3.738   2.662   1.739  0.3645 -0.3015  2.4265
  521TIP3    H223055   3.621   2.745   1.689  2.0365  0.3706 -0.6462
  522TIP3   OH223056   3.175   3.738  14.150 -0.3151  0.1293 -0.1545
  522TIP3    H123057   3.248   3.679  14.133 -1.2221 -1.4344  1.1246
  522TIP3    H223058   3.198   3.781  14.232 -1.2499 -1.1537  0.8229
  523TIP3   OH223059   2.001   2.487   5.196 -0.0854 -0.8966  0.5446
  523TIP3    H123060   1.969   2.490   5.105 -0.1443 -1.4282  0.5465
  523TIP3    H223061   2.089   2.449   5.190  0.6987  0.8298  0.5093
  524TIP3   OH223062   6.338   4.190   2.767 -0.0661  0.0845  0.2647
  524TIP3    H123063   6.409   4.131   2.790  0.3452  0.5926  0.3212
  524TIP3    H223064   6.264   4.160   2.819  0.6429  0.7649  1.7417
  525TIP3   OH223065   2.139   0.024   1.775 -0.2022 -0.3475 -0.0932
  525TIP3    H123066   2.168   0.111   1.802  0.4806 -0.6709  0.2305
  525TIP3    H223067   2.043   0.026   1.786  0.0025 -0.3807  2.1270
  526TIP3   OH223068   6.609   4.107  11.587  0.5126  0.0940  0.4653
  526TIP3    H123069   6.635   4.016  11.577  0.1114  0.1395 -1.2585
  526TIP3    H223070   6.652   4.153  11.515 -1.0765  0.8631 -0.0453
  527TIP3   OH223071   3.889   5.597   3.233  0.2522  0.0468 -0.6768
  527TIP3    H123072   3.874   5.606   3.327 -0.3605 -0.4910 -0.7116
  527TIP3    H223073   3.983   5.578   3.225  0.3046  0.0759 -0.1735
  528TIP3   OH223074   4.630   1.253  10.685  0.3983 -0.1892  0.4267
  528TIP3    H123075   4.691   1.180  10.695 -0.5549 -1.3284 -1.2949
  528TIP3    H223076   4.667   1.306  10.615  1.2781  1.2533  1.9263
  529TIP3   OH223077   1.948   5.243  15.395  0.3938  0.4086 -0.4351
  529TIP3    H123078   1.900   5.301  15.336 -2.3838 -0.2780  1.0017
  529TIP3    H223079   1.936   5.155  15.357  0.0520  0.1703  0.2101
  530TIP3   OH223080   6.597   4.480   0.556 -0.0534 -0.4626 -0.1166
  530TIP3    H123081   6.526   4.469   0.620 -0.1941  0.7275 -0.0389
  530TIP3    H223082   6.597   4.574   0.537  0.8741 -0.6001 -0.8541
  531TIP3   OH223083   0.982   3.098   3.311  0.4218  0.4742  0.1635
  531TIP3    H123084   1.013   3.168   3.254 -1.8401 -0.4469 -2.4079
  531TIP3    H223085   0.991   3.019   3.258  1.0619 -0.9546  2.2757
  532TIP3   OH223086   3.712   6.523   0.552  0.0825 -0.1228 -0.1803
  532TIP3    H123087   3.691   6.556   0.464  0.2642 -1.5768 -0.8125
  532TIP3    H223088   3.803   6.549   0.567  0.2602 -0.4283 -0.7074
  533TIP3   OH223089   1.377   2.798   1.753 -0.1969 -0.1698 -0.0846
  533TIP3    H123090   1.335   2.776   1.836  0.0885  0.8214  0.3424
  533TIP3    H223091   1.334   2.743   1.689 -2.1410  0.7534  0.3481
  534TIP3   OH223092   2.997   4.362  12.474  0.2421 -0.3525 -0.0290
  534TIP3    H123093   3.039   4.417  12.408 -0.5761  1.3204  0.7774
  534TIP3    H223094   3.010   4.410  12.556  0.3091 -1.8525  0.8725
  535TIP3   OH223095   0.437   5.471   1.603  0.1446 -0.4438  0.5089
  535TIP3    H123096   0.391   5.511   1.529 -0.6633 -1.8948  0.1982
  535TIP3    H223097   0.416   5.528   1.677 -1.0943 -0.3441  0.1043
  536TIP3   OH223098   5.086   5.261   3.363 -0.5125  0.1772 -0.3354
  536TIP3    H123099   5.008   5.296   3.319  0.3137  1.7098 -0.6724
  536TIP3    H223100   5.084   5.168   3.345 -3.4166 -0.2549  1.4437
  537TIP3   OH223101   2.040   3.920   5.088  0.7684 -0.0584  0.0516
  537TIP3    H123102   2.107   3.857   5.064  0.5055 -0.4699  0.3934
  537TIP3    H223103   2.055   3.937   5.181 -0.3437 -1.0814  0.4458
  538TIP3   OH223104   6.054   4.814   5.774 -0.2610 -0.0367 -0.0836
  538TIP3    H123105   6.075   4.832   5.865 -3.7457 -2.0414  1.3019
  538TIP3    H223106   5.993   4.883   5.749  0.8606  0.6460 -1.0613
  539TIP3   OH223107   6.362   5.538  14.883  0.0949  0.3214 -0.2323
  539TIP3    H123108   6.349   5.514  14.791  1.0108 -1.9164  0.1523
  539TIP3    H223109   6.455   5.521  14.899 -0.5085 -1.7413  1.6886
  540TIP3   OH223110   4.721   6.646  15.563 -0.3030  0.0307  0.7586
  540TIP3    H123111   4.801   6.632  15.614 -0.4177  0.9681  1.2134
  540TIP3    H223112   4.677   6.719  15.606 -1.5317 -0.6115  0.6370
  541TIP3   OH223113   0.997   0.221   2.785  0.3300 -0.3332 -0.1403
  541TIP3    H123114   1.085   0.251   2.760 -0.5296  2.1909 -0.3765
  541TIP3    H223115   0.957   0.194   2.702  1.3922 -3.3075  0.1656
  542TIP3   OH223116   5.526   0.063  11.632 -0.3258 -0.3283 -0.6059
  542TIP3    H123117   5.608   0.031  11.594  0.2824 -1.7532  1.6915
  542TIP3    H223118   5.547   0.079  11.724 -3.1396 -3.1272  0.7130
  543TIP3   OH223119   4.659   6.372   6.681 -0.3906  0.7031 -0.0915
  543TIP3    H123120   4.690   6.434   6.616 -0.3015  1.1622  0.3839
  543TIP3    H223121   4.579   6.411   6.715 -0.6681  0.2616 -0.2195
  544TIP3   OH223122   2.261   0.211   5.680 -0.6105 -0.2544  0.1225
  544TIP3    H123123   2.356   0.214   5.670 -0.5603 -1.4983  0.0013
  544TIP3    H223124   2.240   0.282   5.740  0.4290 -0.1080  0.3210
  545TIP3   OH223125   2.976   4.393   3.887 -0.3116  0.1507 -0.0981
  545TIP3    H123126   3.006   4.345   3.964  1.4839 -0.6572 -1.2372
  545TIP3    H223127   3.006   4.483   3.902  2.9805 -0.6275 -1.2134
  546TIP3   OH223128   3.022   2.199   6.296 -0.6384  0.0256 -0.9866
  546TIP3    H123129   2.953   2.214   6.231  0.7754  2.4960 -2.1068
  546TIP3    H223130   3.097   2.248   6.261  1.0984 -1.0276  1.0844
  547TIP3   OH223131   1.884   3.955  17.034  0.0150 -0.8126 -0.6586
  547TIP3    H123132   1.794   3.952  17.002 -0.5926 -1.1670  0.9812
  547TIP3    H223133   1.893   4.041  17.074 -0.8489 -1.9979  2.3995
  548TIP3   OH223134   5.012   3.590  16.278  0.1800 -0.3962 -0.1734
  548TIP3    H123135   5.073   3.652  16.239  0.4297  0.2212  1.1544
  548TIP3    H223136   5.003   3.618  16.369 -1.9006 -0.6208 -0.2514
  549TIP3   OH223137   3.021   6.086   1.602  0.0025  0.2403 -0.3857
  549TIP3    H123138   3.065   6.065   1.684 -0.3474  1.5679  0.1746
  549TIP3    H223139   3.083   6.061   1.534  1.7290  2.2031  0.3734
  550TIP3   OH223140   0.513   4.605  14.349  0.4561  0.1658  0.0173
  550TIP3    H123141   0.480   4.673  14.290 -1.3575  1.1383  1.9876
  550TIP3    H223142   0.448   4.535  14.343  0.2013  0.3139  0.8755
  551TIP3   OH223143   5.708   3.809  11.275  0.0940  0.6818 -0.0678
  551TIP3    H123144   5.678   3.846  11.358  0.3296 -0.8912  0.7535
  551TIP3    H223145   5.780   3.751  11.299  0.7224  0.8475 -1.4804
  552TIP3   OH223146   4.670   0.205  14.742 -0.5659 -0.4853 -0.3435
  552TIP3    H123147   4.658   0.146  14.668 -1.5126  3.0304 -3.3240
  552TIP3    H223148   4.581   0.232  14.766 -0.1494  0.1604  0.5466
  553TIP3   OH223149   2.894   3.445  16.502 -0.5138  0.1833 -0.0236
  553TIP3    H123150   2.923   3.536  16.506  0.2834  0.0446 -1.7286
  553TIP3    H223151   2.891   3.417  16.593  2.7314  0.8458  0.3978
  554TIP3   OH223152   0.573   5.280   2.920  0.0516 -0.5143  0.0952
  554TIP3    H123153   0.612   5.205   2.875 -0.4549 -0.1659 -0.9516
  554TIP3    H223154   0.621   5.356   2.886  1.7127 -0.4366  2.3706
  555TIP3   OH223155   4.698   1.841  13.033 -0.2194 -1.1530  0.3741
  555TIP3    H123156   4.629   1.774  13.033 -0.5712 -0.8034 -0.2816
  555TIP3    H223157   4.778   1.794  13.055 -1.2286 -0.9135  5.9554
  556TIP3   OH223158   5.851   1.004  15.290 -0.4012 -0.5967 -0.0221
  556TIP3    H123159   5.866   0.954  15.210  0.4470  1.9386 -1.5658
  556TIP3    H223160   5.915   1.075  15.286  0.2873 -0.8794  3.4062
  557TIP3   OH223161   6.182   3.106   5.588 -0.1804 -0.6164 -0.2896
  557TIP3    H123162   6.234   3.036   5.550  0.7515  2.2453 -5.0540
  557TIP3    H223163   6.229   3.129   5.669  1.1781 -3.3801 -0.1862
  558TIP3   OH223164   3.428   3.903   3.299 -0.3268  0.0790 -0.0597
  558TIP3    H123165   3.495   3.875   3.361  0.4120  0.9383 -0.4450
  558TIP3    H223166   3.414   3.996   3.319 -1.0808  0.0174 -0.2756
  559TIP3   OH223167   6.551   0.270  10.731 -0.2747  0.3146 -0.5608
  559TIP3    H123168   6.472   0.308  10.770  0.1420  0.3498  0.2731
  559TIP3    H223169   6.593   0.343  10.685  0.5710  0.9543  1.1119
  560TIP3   OH223170   2.712   0.703   2.896  0.0826 -0.2322  0.0317
  560TIP3    H123171   2.787   0.657   2.935 -0.4746 -0.3567  1.0002
  560TIP3    H223172   2.639   0.642   2.904 -0.4312  0.4074  0.3871
  561TIP3   OH223173   3.529   4.900   1.680  0.1251  0.2273  1.0476
  561TIP3    H123174   3.511   4.966   1.612  1.9490 -0.3783 -0.1242
  561TIP3    H223175   3.610   4.857   1.650  1.1666  0.0933  3.7586
  562TIP3   OH223176   3.230   4.556   6.135  0.3790  0.2766 -0.2670
  562TIP3    H123177   3.162   4.592   6.192  2.1723  2.3305  0.6955
  562TIP3    H223178   3.285   4.503   6.193  1.1611  0.8720 -0.4575
  563TIP3   OH223179   2.907   4.593   1.825 -0.7480  0.0513 -0.0233
  563TIP3    H123180   2.879   4.635   1.743 -0.2516 -1.2452 -0.8875
  563TIP3    H223181   2.984   4.542   1.800 -1.0129 -0.9304  1.1037
  564TIP3   OH223182   0.655   2.922  12.904  0.2147  0.0064 -0.3409
  564TIP3    H123183   0.656   2.828  12.887 -0.4068 -0.0673  0.0180
  564TIP3    H223184   0.733   2.937  12.957  0.3777 -0.2864 -0.4959
  565TIP3   OH223185   5.171   3.719  12.815  0.1348 -0.2835  0.1826
  565TIP3    H123186   5.149   3.806  12.846 -0.2728 -0.5882  0.7652
  565TIP3    H223187   5.124   3.660  12.874 -1.5840 -0.8712 -1.6895
  566TIP3   OH223188   2.231   4.214  10.846 -0.0999  0.3796 -0.4207
  566TIP3    H123189   2.154   4.160  10.862  0.5000 -0.5264 -0.5375
  566TIP3    H223190   2.305   4.155  10.857  0.7014  1.6304  1.5633
  567TIP3   OH223191   3.536   3.051  15.108 -0.1652 -0.1219  0.3947
  567TIP3    H123192   3.590   3.020  15.180  0.7339 -0.2713 -0.3201
  567TIP3    H223193   3.581   3.019  15.029 -0.7388  0.6289 -0.2530
  568TIP3   OH223194   4.060   0.118  12.180  0.5491  0.0178  0.1633
  568TIP3    H123195   4.056   0.033  12.225 -0.7756  0.5716  1.1676
  568TIP3    H223196   4.016   0.103  12.097 -2.2218  0.3289  1.4734
  569TIP3   OH223197   5.451   5.500   5.869 -0.1313 -0.0866  0.6388
  569TIP3    H123198   5.527   5.487   5.927 -0.0854  0.4671  0.7056
  569TIP3    H223199   5.482   5.470   5.783 -0.1956 -0.9040  0.8903
  570TIP3   OH223200   1.506   4.789  11.883  0.6450 -0.3678  0.0498
  570TIP3    H123201   1.538   4.880  11.883 -0.1454 -0.0745  0.7327
  570TIP3    H223202   1.434   4.790  11.946 -0.9594 -0.9321 -1.7199
  571TIP3   OH223203   0.552   0.173  15.017  0.1438  0.2982 -0.2423
  571TIP3    H123204   0.642   0.153  15.043 -0.5253 -0.6634  1.4504
  571TIP3    H223205   0.547   0.147  14.925  1.5155  0.1120 -0.2788
  572TIP3   OH223206   5.127   4.028   0.892  0.3042 -0.0072 -0.2654
  572TIP3    H123207   5.088   4.106   0.853  1.4757  0.6443 -0.1814
  572TIP3    H223208   5.093   3.955   0.840 -0.4266  0.5935 -0.6494
  573TIP3   OH223209   2.801   4.911   0.155  0.3732 -0.7054  0.0595
  573TIP3    H123210   2.810   4.823   0.118 -0.3990  0.4104 -3.1255
  573TIP3    H223211   2.824   4.970   0.084 -0.7103  1.7155  1.5652
  574TIP3   OH223212   3.915   0.269  16.046  0.0901 -0.3837 -0.2602
  574TIP3    H123213   3.915   0.338  16.112 -0.6169 -0.7889  0.1750
  574TIP3    H223214   3.892   0.313  15.964  0.0303 -0.0397 -0.0595
  575TIP3   OH223215   6.386   1.386   2.286 -0.1077 -0.5122  0.4244
  575TIP3    H123216   6.315   1.395   2.223  0.6605  0.8527 -0.3115
  575TIP3    H223217   6.400   1.292   2.295 -0.5780 -0.7362 -1.0534
  576TIP3   OH223218   2.162   6.537  11.505 -0.0102 -0.4921 -0.1850
  576TIP3    H123219   2.225   6.518  11.435 -0.0701 -1.4734  0.0191
  576TIP3    H223220   2.149   6.632  11.500 -0.4634 -0.5995 -1.9032
  577TIP3   OH223221   0.204   2.479  16.553 -0.2633 -0.3844  0.3758
  577TIP3    H123222   0.249   2.463  16.636 -0.4442  0.1429  0.5769
  577TIP3    H223223   0.118   2.514  16.578  0.3629  1.5308 -0.0636
  578TIP3   OH223224   2.930   1.916  11.815  0.2311  0.0814 -0.3516
  578TIP3    H123225   2.851   1.968  11.832  1.1003  1.5473 -0.6667
  578TIP3    H223226   2.929   1.848  11.883 -1.2106  0.1664 -0.2580
  579TIP3   OH223227   5.101   4.184   4.763 -0.2085 -0.3229  0.3492
  579TIP3    H123228   5.033   4.147   4.820 -2.1375 -0.2811 -1.7507
  579TIP3    H223229   5.078   4.153   4.675  2.3087  0.0398 -0.5283
  580TIP3   OH223230   1.273   5.184   3.954 -0.0995  0.2056  0.0595
  580TIP3    H123231   1.202   5.248   3.957 -0.0458  0.4661 -2.3700
  580TIP3    H223232   1.326   5.203   4.031 -0.9415  2.0672  0.2318
  581TIP3   OH223233   1.957   1.546   3.098 -0.1831 -0.2263  0.3552
  581TIP3    H123234   1.906   1.625   3.114 -0.3114 -0.1308 -0.4623
  581TIP3    H223235   1.901   1.493   3.040  0.3655 -0.4216  0.0032
  582TIP3   OH223236   2.581   4.072  17.120  0.1387  0.2925  0.1470
  582TIP3    H123237   2.556   4.061  17.212  0.8255 -1.2490  0.1726
  582TIP3    H223238   2.618   4.160  17.116 -1.1350  0.9050  1.0367
  583TIP3   OH223239   2.975   2.025   1.609  0.2549 -0.0665 -0.2958
  583TIP3    H123240   2.994   1.994   1.698 -1.9649  0.7117  0.5373
  583TIP3    H223241   2.977   1.946   1.555 -0.7878 -0.9671  0.9239
  584TIP3   OH223242   2.704   1.897   2.244  0.2761  0.0418  0.1453
  584TIP3    H123243   2.747   1.936   2.320  0.6565 -0.4916  0.2152
  584TIP3    H223244   2.751   1.934   2.169  0.9288 -0.5897  0.2236
  585TIP3   OH223245   1.039   2.449   6.535  0.8059  0.1873  0.1551
  585TIP3    H123246   0.958   2.447   6.485  1.8708  1.8496 -1.8062
  585TIP3    H223247   1.066   2.357   6.540 -1.7111 -0.5410  1.8945
  586TIP3   OH223248   4.381   5.951  11.318  0.7560 -0.5453  0.2888
  586TIP3    H123249   4.320   5.939  11.245  0.3200  0.6502  0.4423
  586TIP3    H223250   4.328   5.938  11.396  0.0801  2.6969  0.5003
  587TIP3   OH223251   1.529   5.948   3.230 -0.1641 -0.0970 -0.1275
  587TIP3    H123252   1.489   5.916   3.311  0.5759  1.5986  0.9687
  587TIP3    H223253   1.623   5.940   3.245 -0.0076  0.7803 -0.5593
  588TIP3   OH223254   1.594   6.098  10.703 -0.9155  0.1549 -0.1658
  588TIP3    H123255   1.676   6.053  10.721 -0.7812  0.8905  1.1523
  588TIP3    H223256   1.599   6.120  10.610  0.1763 -0.2092 -0.2057
  589TIP3   OH223257   2.459   3.203   3.592  0.5647 -0.2508 -0.7754
  589TIP3    H123258   2.496   3.285   3.626  0.6154  0.9289 -3.4132
  589TIP3    H223259   2.529   3.139   3.604  0.5317  0.0564  1.3298
  590TIP3   OH223260   0.188   3.936   4.381  0.2464  0.2021 -0.5986
  590TIP3    H123261   0.214   3.953   4.291 -1.6864 -0.0873 -1.2517
  590TIP3    H223262   0.092   3.929   4.378  0.0831  0.7789  1.5754
  591TIP3   OH223263   1.255   5.578  14.537 -0.0093 -0.0107 -0.0534
  591TIP3    H123264   1.335   5.609  14.578  1.1301 -0.3792 -1.8775
  591TIP3    H223265   1.255   5.483  14.552  0.5726 -0.1951 -1.0632
  592TIP3   OH223266   4.215   1.861   3.114  0.2230 -0.2875 -0.2747
  592TIP3    H123267   4.213   1.879   3.020  0.0437  0.9240 -0.0531
  592TIP3    H223268   4.206   1.766   3.120  0.2115 -0.3834 -1.4759
  593TIP3   OH223269   1.503   6.469  16.658  0.3214 -0.0569  0.3305
  593TIP3    H123270   1.527   6.552  16.700 -1.4652  0.3765  0.5570
  593TIP3    H223271   1.563   6.463  16.583  2.1223  0.2056  1.6790
  594TIP3   OH223272   0.459   1.303  13.176  0.8708  0.0177 -0.3403
  594TIP3    H123273   0.542   1.317  13.220  0.4214  0.1584  0.4884
  594TIP3    H223274   0.393   1.329  13.241  0.2085  1.0320 -1.3727
  595TIP3   OH223275   2.824   3.449  15.453 -0.1475  0.4375  0.0581
  595TIP3    H123276   2.770   3.510  15.504 -0.4650  0.3658 -0.1897
  595TIP3    H223277   2.904   3.440  15.504 -0.3110  0.6570  0.3583
  596TIP3   OH223278   1.760   0.282   5.134  0.0834  0.1781 -0.0863
  596TIP3    H123279   1.812   0.212   5.095  0.3444  1.4035 -2.0787
  596TIP3    H223280   1.785   0.282   5.226  4.6837  1.4969 -1.0731
  597TIP3   OH223281   4.971   1.707  13.060  0.1416  0.3366 -0.2134
  597TIP3    H123282   5.033   1.743  13.123  1.2598 -0.9860 -0.5027
  597TIP3    H223283   5.025   1.670  12.990 -0.9106 -1.4398 -0.1752
  598TIP3   OH223284   0.804   2.937   3.794  0.2094  0.0792 -0.3757
  598TIP3    H123285   0.741   3.007   3.809 -2.0012 -2.2809  2.3900
  598TIP3    H223286   0.801   2.922   3.700  0.1388  3.0144 -0.9527
  599TIP3   OH223287   4.369   5.527   1.266 -0.5074 -0.0074 -0.0778
  599TIP3    H123288   4.293   5.545   1.322 -0.9555  0.8406 -0.9257
  599TIP3    H223289   4.440   5.578   1.306 -0.7193  0.2616 -0.0380
  600TIP3   OH223290   5.738   5.357  10.561 -0.5484  0.9637  0.1959
  600TIP3    H123291   5.740   5.453  10.563  0.5581  0.9387  2.0079
  600TIP3    H223292   5.830   5.331  10.558 -0.7955 -0.0488  1.0756
  601TIP3   OH223293   3.474   4.148   5.644  0.9254  0.0509 -0.5075
  601TIP3    H123294   3.405   4.093   5.607  1.1270 -0.3606 -0.2774
  601TIP3    H223295   3.478   4.123   5.736  1.7161 -0.2800 -0.6263
  602TIP3   OH223296   2.372   2.843   3.502  0.8606 -0.0262 -0.1716
  602TIP3    H123297   2.466   2.823   3.495  0.7259 -1.2630  1.1391
  602TIP3    H223298   2.329   2.761   3.476  0.1113  0.6569 -1.1398
  603TIP3   OH223299   0.989   6.442   2.359 -0.1242 -0.5731 -0.0924
  603TIP3    H123300   1.079   6.413   2.371 -0.4549 -1.1477  1.1086
  603TIP3    H223301   0.948   6.374   2.305  0.4013  0.1918 -1.5089
  604TIP3   OH223302   2.829   0.799  17.012 -0.1676  0.3835 -0.2928
  604TIP3    H123303   2.908   0.852  17.008  0.3289 -0.3841 -0.9017
  604TIP3    H223304   2.851   0.727  17.071 -0.5511  0.3852 -0.1441
  605TIP3   OH223305   1.164   0.671  17.105 -0.2792 -0.3941 -0.0588
  605TIP3    H123306   1.093   0.607  17.103 -0.1788 -0.5052 -0.0681
  605TIP3    H223307   1.229   0.637  17.044 -0.1085 -0.4197  0.1356
  606TIP3   OH223308   6.288   4.792   1.843  0.2984  0.0889  0.1996
  606TIP3    H123309   6.361   4.733   1.828  0.5500  0.0530  1.4461
  606TIP3    H223310   6.280   4.798   1.938 -0.5323  1.0644  0.0990
  607TIP3   OH223311   4.974   6.737  13.474 -0.8076 -0.2075  0.2205
  607TIP3    H123312   4.960   6.795  13.549 -3.0389 -0.1093 -0.2132
  607TIP3    H223313   4.967   6.794  13.397  2.1921 -0.1715 -0.1271
  608TIP3   OH223314   1.613   2.164   5.553 -0.4187 -0.3263 -0.3331
  608TIP3    H123315   1.625   2.259   5.553 -0.9248 -0.2468 -1.3287
  608TIP3    H223316   1.670   2.133   5.482  1.0641 -0.9788  1.0700
  609TIP3   OH223317   6.248   2.405   5.514  0.1136  0.3341  0.3659
  609TIP3    H123318   6.206   2.454   5.443 -0.0879 -2.0342 -1.2999
  609TIP3    H223319   6.178   2.351   5.551  0.5332  0.4810  1.4040
  610TIP3   OH223320   5.069   1.572   6.348  0.4938  0.0534 -0.5974
  610TIP3    H123321   4.995   1.523   6.384  0.2377  1.7917  1.4316
  610TIP3    H223322   5.137   1.506   6.336 -1.2288 -1.5476 -2.2701
  611TIP3   OH223323   4.734   1.462  15.234 -0.3519  0.1728  0.2113
  611TIP3    H123324   4.731   1.401  15.160 -1.9079  0.4274  0.0270
  611TIP3    H223325   4.779   1.414  15.304  0.4674 -0.3393 -0.6447
  612TIP3   OH223326   2.221   5.186  13.317 -0.1641  0.1807  0.2076
  612TIP3    H123327   2.242   5.107  13.267  0.4460 -0.0505  0.8149
  612TIP3    H223328   2.159   5.156  13.384 -0.1142  0.2575  0.2883
  613TIP3   OH223329   5.356   6.755   3.079  0.7278 -0.1775 -0.3574
  613TIP3    H123330   5.313   6.827   3.125 -0.2922 -0.0738 -1.4262
  613TIP3    H223331   5.327   6.676   3.125  0.1306 -0.0425 -0.4943
  614TIP3   OH223332   0.973   0.664   2.446 -0.6854  0.1022 -0.1054
  614TIP3    H123333   0.882   0.637   2.433 -0.6127 -0.8116  1.1253
  614TIP3    H223334   1.021   0.621   2.375 -0.6451 -2.8264  1.5439
  615TIP3   OH223335   5.606   4.052  15.531  0.7688 -0.0577  0.1669
  615TIP3    H123336   5.567   4.041  15.444  1.0289 -1.0589  0.1589
  615TIP3    H223337   5.679   3.990  15.532  1.0910  0.3286  0.9149
  616TIP3   OH223338   5.741   5.523   1.146  0.0183 -0.2197 -0.7674
  616TIP3    H123339   5.731   5.469   1.068 -1.3715 -0.1209 -0.6954
  616TIP3    H223340   5.670   5.587   1.139  0.8659  0.8100 -0.2293
  617TIP3   OH223341   0.111   0.854   0.071  0.4295 -0.0151 -0.2197
  617TIP3    H123342   0.129   0.867  -0.023  3.0806  1.0135  0.3367
  617TIP3    H223343   0.103   0.759   0.080  0.0397 -0.1209 -1.5171
  618TIP3   OH223344   0.030   5.575   2.769 -0.6262 -0.6828 -0.1588
  618TIP3    H123345   0.077   5.494   2.747 -1.4363 -1.2536  0.1694
  618TIP3    H223346   0.082   5.614   2.839  0.1727 -0.5288 -0.8173
  619TIP3   OH223347   6.558   5.624  13.091  0.4100  0.0082 -0.0405
  619TIP3    H123348   6.620   5.678  13.141 -2.0696  0.4515  2.8631
  619TIP3    H223349   6.508   5.686  13.040 -0.2767  0.1593  0.7845
  620TIP3   OH223350   1.648   6.384  11.303  0.0287 -0.4412  0.0393
  620TIP3    H123351   1.555   6.392  11.283 -0.0453 -0.1551  0.4783
  620TIP3    H223352   1.681   6.322  11.238 -0.5434 -0.8437  0.1184
  621TIP3   OH223353   5.972   3.046   4.129  0.3373 -0.6559 -0.0155
  621TIP3    H123354   6.012   3.022   4.046 -1.6530 -0.5976 -1.0516
  621TIP3    H223355   5.936   2.964   4.163 -0.2137 -0.4006  0.0142
  622TIP3   OH223356   4.556   3.083  16.568  0.8569  0.1278  0.3354
  622TIP3    H123357   4.505   3.099  16.489  2.0626 -0.0981 -0.5211
  622TIP3    H223358   4.636   3.135  16.555  1.3550 -0.4323  1.1060
  623TIP3   OH223359   5.976   3.374   4.266 -0.4563 -0.5253 -0.1939
  623TIP3    H123360   6.057   3.412   4.301 -1.5044  0.5458  1.1487
  623TIP3    H223361   5.941   3.441   4.208  0.0179 -1.3276 -1.4535
  624TIP3   OH223362   2.565   6.026   0.887  0.0349 -0.4191  0.1722
  624TIP3    H123363   2.602   6.040   0.800 -2.0593  0.0252 -0.7020
  624TIP3    H223364   2.630   6.064   0.946  0.1008  2.2274 -1.4135
  625TIP3   OH223365   2.726   3.535  13.892  0.4355  0.1128 -0.0994
  625TIP3    H123366   2.775   3.617  13.900  0.4447  0.0025  1.0787
  625TIP3    H223367   2.639   3.556  13.926  1.0120 -0.8474  2.1624
  626TIP3   OH223368   0.790   2.202  12.142 -0.2491  0.5324 -0.1811
  626TIP3    H123369   0.773   2.267  12.210  0.2485  1.1548 -0.6410
  626TIP3    H223370   0.703   2.176  12.110 -0.5346 -0.4158  1.2760
  627TIP3   OH223371   3.297   3.999  15.471 -0.0160  0.1410 -0.2156
  627TIP3    H123372   3.288   4.024  15.378  1.3889 -0.1757 -0.4642
  627TIP3    H223373   3.306   3.904  15.469 -0.8736  0.0490  0.3321
  628TIP3   OH223374   1.455   4.244   3.001 -0.0302  0.0873 -0.3629
  628TIP3    H123375   1.411   4.323   2.969 -1.0825 -1.1030 -2.0041
  628TIP3    H223376   1.384   4.187   3.029  0.5405 -1.1697 -1.3790
  629TIP3   OH223377   4.289   5.068   1.439  0.2965 -0.3702 -0.2171
  629TIP3    H123378   4.309   5.044   1.349  0.5032  0.2813 -0.3538
  629TIP3    H223379   4.210   5.019   1.460  0.3535 -0.6707 -0.6912
  630TIP3   OH223380   1.487   2.325  11.673  0.2797 -0.4817 -0.1189
  630TIP3    H123381   1.456   2.246  11.627  0.6734 -0.3840 -0.5508
  630TIP3    H223382   1.448   2.397  11.624 -0.0655 -0.4004  0.2674
  631TIP3   OH223383   5.573   4.092   5.014  0.0426  0.0992 -0.4839
  631TIP3    H123384   5.668   4.077   5.005  0.2858 -0.8215  2.5730
  631TIP3    H223385   5.534   4.009   4.987  0.3015 -0.3549  0.4896
  632TIP3   OH223386   4.490   4.741   4.093  0.4736 -0.8660  0.2907
  632TIP3    H123387   4.540   4.783   4.164 -0.4936  0.8568  0.0096
  632TIP3    H223388   4.405   4.720   4.133 -0.1546  0.3060 -0.3725
  633TIP3   OH223389   4.548   6.431   0.850 -0.3715  0.1073  0.1976
  633TIP3    H123390   4.580   6.435   0.941 -0.6166  2.1640  0.2567
  633TIP3    H223391   4.520   6.341   0.838 -0.6934 -0.1319  2.3133
  634TIP3   OH223392   4.732   4.272   5.202  0.5168 -0.2318 -0.2285
  634TIP3    H123393   4.741   4.202   5.267 -0.4389 -0.7347 -0.6218
  634TIP3    H223394   4.798   4.251   5.136 -1.2482 -2.1060 -1.5063
  635TIP3   OH223395   1.276   2.012  16.581  0.7003  0.5936  0.4721
  635TIP3    H123396   1.231   2.015  16.497 -0.9720  1.2046  1.3565
  635TIP3    H223397   1.271   1.920  16.607  0.5961  0.5355  0.2468
  636TIP3   OH223398   6.797   1.081  12.191  0.0362 -0.3457 -0.4553
  636TIP3    H123399   6.711   1.042  12.203 -1.2638  1.9635 -1.5693
  636TIP3    H223400   6.807   1.141  12.266  0.8381 -0.8104 -0.1722
  637TIP3   OH223401   0.948   0.151   0.378 -0.0161  0.0998  0.1845
  637TIP3    H123402   1.035   0.133   0.343 -0.5361 -1.5621 -0.3498
  637TIP3    H223403   0.963   0.168   0.471  0.9058  0.1017  0.0424
  638TIP3   OH223404   1.492   2.599   3.563  0.3876 -0.0507  0.0077
  638TIP3    H123405   1.573   2.579   3.517  0.1032  0.9502 -0.9590
  638TIP3    H223406   1.430   2.623   3.494 -0.9309 -1.3717  0.6694
  639TIP3   OH223407   0.296   1.731   3.966 -0.1482  0.4523 -0.3863
  639TIP3    H123408   0.387   1.706   3.948 -0.2267 -1.1926  1.1037
  639TIP3    H223409   0.249   1.648   3.966 -1.0221  0.8632  2.0174
  640TIP3   OH223410   6.757   5.268  11.295  0.1738  0.1537 -0.4611
  640TIP3    H123411   6.702   5.222  11.358 -0.0095  0.2141 -0.5745
  640TIP3    H223412   6.829   5.304  11.347  0.0937  0.0927 -0.3073
  641TIP3   OH223413   5.186   5.429  12.827  0.4922 -0.0613 -0.2853
  641TIP3    H123414   5.139   5.373  12.890  0.9159  0.0704  0.1532
  641TIP3    H223415   5.169   5.388  12.742 -1.5299  0.7331 -0.3214
  642TIP3   OH223416   3.979   3.815   3.951 -0.2823 -0.2862  0.6626
  642TIP3    H123417   3.940   3.847   4.032 -0.7418 -0.7756  0.6391
  642TIP3    H223418   3.993   3.722   3.966 -0.4034 -0.3880  0.1679
  643TIP3   OH223419   4.983   0.185  16.743 -0.2876 -0.1930 -0.1920
  643TIP3    H123420   4.963   0.206  16.652 -3.2987  1.8104  0.7776
  643TIP3    H223421   4.900   0.152  16.779 -0.2171  2.2505  2.5953
  644TIP3   OH223422   1.404   5.969  12.229  0.4866 -0.6514  0.0740
  644TIP3    H123423   1.377   5.877  12.222 -1.7721 -0.0132 -0.4677
  644TIP3    H223424   1.325   6.014  12.257  1.7943  1.0401  1.2320
  645TIP3   OH223425   3.365   0.853  15.813 -1.0825  0.2697 -0.2054
  645TIP3    H123426   3.309   0.780  15.785 -0.5289 -0.5341  0.6718
  645TIP3    H223427   3.454   0.816  15.812 -0.9734  0.2735  2.0817
  646TIP3   OH223428   0.649   2.604  13.392 -0.3434 -0.3392  0.6405
  646TIP3    H123429   0.603   2.687  13.398 -0.5587 -0.3158 -1.0301
  646TIP3    H223430   0.597   2.544  13.446 -1.3411  0.1178  0.2031
  647TIP3   OH223431   2.779   5.472   0.412 -0.3086 -0.7943  0.1108
  647TIP3    H123432   2.707   5.521   0.451  0.6869  0.1813  0.7757
  647TIP3    H223433   2.738   5.392   0.379 -1.8318  0.0910 -0.2548
  648TIP3   OH223434   4.892   4.446  11.355 -0.0549 -0.3474  0.6200
  648TIP3    H123435   4.880   4.536  11.324  1.5785 -0.3319 -0.0667
  648TIP3    H223436   4.884   4.392  11.275 -1.4983 -0.8970  1.0914
  649TIP3   OH223437   4.521   1.121  16.137 -0.1196 -0.1118 -0.3131
  649TIP3    H123438   4.446   1.158  16.091  0.3197 -0.8251 -1.6470
  649TIP3    H223439   4.488   1.038  16.173 -0.6368  0.7293  1.2547
  650TIP3   OH223440   2.980   6.134   1.294 -0.3402 -0.1692 -0.2906
  650TIP3    H123441   2.899   6.171   1.259 -1.2704 -1.1208  0.7858
  650TIP3    H223442   2.957   6.045   1.318  1.1358 -0.5715 -0.2728
  651TIP3   OH223443   0.962   5.754   1.031 -0.1297  0.1975  0.0291
  651TIP3    H123444   0.873   5.734   0.999 -0.4750  1.1043  0.3971
  651TIP3    H223445   1.005   5.669   1.035 -1.8150 -0.6608  2.3944
  652TIP3   OH223446   1.155   3.313  13.104 -0.4328 -0.1586 -0.1067
  652TIP3    H123447   1.192   3.387  13.057  0.8591 -0.6836  0.0561
  652TIP3    H223448   1.205   3.237  13.075 -0.4205 -0.6804  1.1732
  653TIP3   OH223449   1.156   1.894   1.523  0.8011 -0.0305 -0.0098
  653TIP3    H123450   1.085   1.859   1.469  1.2583  0.3174 -0.8682
  653TIP3    H223451   1.179   1.822   1.581  2.5497 -1.6990 -2.5430
  654TIP3   OH223452   4.514   1.794  16.626  0.4022 -0.2068 -0.2859
  654TIP3    H123453   4.508   1.873  16.680  1.6581 -0.0566 -0.3323
  654TIP3    H223454   4.451   1.734  16.665 -0.0196  0.5471  0.2303
  655TIP3   OH223455   0.577   4.674  14.944 -0.0680 -0.2433  0.6250
  655TIP3    H123456   0.525   4.639  15.017 -0.4525  1.1125  1.0218
  655TIP3    H223457   0.665   4.684  14.981 -0.0230 -0.5199  0.5945
  656TIP3   OH223458   5.979   5.001  15.116  0.4914 -0.7842 -0.2950
  656TIP3    H123459   5.904   4.944  15.103 -1.3754  1.5264 -0.3237
  656TIP3    H223460   5.995   5.040  15.030  1.0246 -0.4592 -0.0563
  657TIP3   OH223461   6.701   6.424  13.684  0.8382 -0.3714  0.2243
  657TIP3    H123462   6.664   6.427  13.773 -1.6421  0.5309 -0.7289
  657TIP3    H223463   6.670   6.341  13.648 -0.1254  0.2786 -0.5058
  658TIP3   OH223464   3.524   0.568   6.050 -0.4995 -1.0114  0.0689
  658TIP3    H123465   3.497   0.587   6.139 -0.6203 -3.0080  0.5109
  658TIP3    H223466   3.610   0.527   6.058  0.8188  1.3552 -0.9952
  659TIP3   OH223467   4.493   3.165   4.027  0.7785 -0.0043  0.1735
  659TIP3    H123468   4.444   3.175   3.945  1.7028 -1.2309 -0.5596
  659TIP3    H223469   4.426   3.146   4.093  0.2012 -1.2938 -0.7407
  660TIP3   OH223470   0.178   1.163   2.849 -0.1116  0.4661 -0.5585
  660TIP3    H123471   0.232   1.242   2.856  0.4061  0.0326  0.6352
  660TIP3    H223472   0.169   1.132   2.939 -3.1879  1.0409 -0.5600
  661TIP3   OH223473   2.231   2.406   5.766 -0.2341 -0.1087 -0.5280
  661TIP3    H123474   2.306   2.467   5.762 -0.8625  0.7755  0.6384
  661TIP3    H223475   2.196   2.407   5.677  1.2446 -0.7032 -1.1566
  662TIP3   OH223476   0.081   3.830  12.906 -0.2387  0.5487  0.1099
  662TIP3    H123477   0.137   3.830  12.828 -0.1819 -0.2071  0.1474
  662TIP3    H223478   0.034   3.747  12.902 -1.7481  1.3758 -0.1865
  663TIP3   OH223479   1.319   0.546   3.614 -0.0675  0.0246  0.0188
  663TIP3    H123480   1.405   0.587   3.614  0.3428 -0.7796  1.1577
  663TIP3    H223481   1.275   0.581   3.691  0.3578 -1.7466  1.1184
  664TIP3   OH223482   2.340   2.148  15.418 -0.4924  0.3157  0.1198
  664TIP3    H123483   2.355   2.235  15.456 -0.8038 -0.8225  3.0554
  664TIP3    H223484   2.288   2.102  15.483 -0.3671 -2.1011 -1.3789
  665TIP3   OH223485   5.228   5.482  12.276 -0.2937  0.2950  0.8230
  665TIP3    H123486   5.136   5.466  12.254  0.4494  0.1374 -2.8028
  665TIP3    H223487   5.256   5.551  12.216  2.4605 -1.0354  0.3991
  666TIP3   OH223488   2.381   6.135   1.178 -0.5435 -0.7881 -0.4586
  666TIP3    H123489   2.312   6.185   1.221 -0.3015 -0.6757 -0.1949
  666TIP3    H223490   2.340   6.100   1.099 -1.3924 -2.0901  0.5050
  667TIP3   OH223491   4.076   3.960  12.425 -0.1106 -0.1353  0.5764
  667TIP3    H123492   3.984   3.984  12.408  0.5954  2.0906 -0.4966
  667TIP3    H223493   4.111   4.033  12.475  1.8856  0.7192 -1.8440
  668TIP3   OH223494   0.805   6.511  12.228  0.1322 -0.0764 -0.0588
  668TIP3    H123495   0.829   6.459  12.304  0.2246  1.3934  0.9729
  668TIP3    H223496   0.886   6.523  12.179  0.5711  0.8763  0.8644
  669TIP3   OH223497   4.496   2.254   1.771 -0.5369  0.6188  0.0801
  669TIP3    H123498   4.421   2.195   1.765 -0.0658 -0.1994  1.6797
  669TIP3    H223499   4.545   2.239   1.690 -0.5987 -0.9693  0.3091
  670TIP3   OH223500   2.737   4.052  16.397 -0.3814  0.2503 -0.3321
  670TIP3    H123501   2.697   3.969  16.425  0.0781 -1.1578 -3.3998
  670TIP3    H223502   2.717   4.113  16.468 -2.4839 -1.9550  1.1681
  671TIP3   OH223503   3.438   2.505   6.343  0.3503  0.1878 -0.3403
  671TIP3    H123504   3.466   2.430   6.290  0.6047 -0.1937  0.3121
  671TIP3    H223505   3.515   2.526   6.397  0.4084  1.1706 -0.7953
  672TIP3   OH223506   3.248   0.775  14.808 -0.6691 -0.0364  0.4720
  672TIP3    H123507   3.237   0.866  14.782 -0.1962  0.0200  0.4661
  672TIP3    H223508   3.288   0.780  14.895 -0.5463 -0.2360  0.4286
  673TIP3   OH223509   0.766   6.842  11.428  0.1433  0.0897  0.8890
  673TIP3    H123510   0.769   6.901  11.353  0.7213 -0.7728  0.2222
  673TIP3    H223511   0.673   6.830  11.445 -0.0209  2.4723  2.0847
  674TIP3   OH223512   4.488   2.502   1.116  0.1959 -0.4077 -0.2603
  674TIP3    H123513   4.433   2.561   1.065  0.1095 -0.3741 -0.1301
  674TIP3    H223514   4.524   2.441   1.052 -0.6037 -0.9103 -0.2399
  675TIP3   OH223515   1.692   3.799   6.691  0.3832 -0.4844  0.0350
  675TIP3    H123516   1.614   3.821   6.741  0.1324  1.0976 -0.9824
  675TIP3    H223517   1.765   3.823   6.749  0.1306 -1.1655  0.6529
  676TIP3   OH223518   6.670   2.488  17.120 -0.0501 -0.2670  0.0368
  676TIP3    H123519   6.746   2.546  17.111  0.6893 -1.4706 -2.3045
  676TIP3    H223520   6.707   2.400  17.127 -1.2066 -0.7021  0.9689
  677TIP3   OH223521   2.544   0.467  11.715 -0.3003 -0.0586  0.5767
  677TIP3    H123522   2.487   0.522  11.662  0.0844  0.1584  0.3860
  677TIP3    H223523   2.571   0.396  11.657  0.3409  0.3295  0.3986
  678TIP3   OH223524   3.228   3.486   2.831 -0.0851  0.6316  0.6653
  678TIP3    H123525   3.297   3.545   2.861  0.2020 -0.0469  1.3545
  678TIP3    H223526   3.168   3.479   2.905 -1.2289  1.6612 -0.1104
  679TIP3   OH223527   1.745   5.260   0.592 -0.3079  1.0237 -0.2611
  679TIP3    H123528   1.691   5.285   0.517 -0.4607  0.1037 -0.4669
  679TIP3    H223529   1.777   5.173   0.570  0.0493  0.9534  0.5269
  680TIP3   OH223530   1.850   4.931   2.162 -0.0844  0.2352  0.0671
  680TIP3    H123531   1.779   4.925   2.225  0.1156  1.1749  0.4098
  680TIP3    H223532   1.815   4.893   2.081 -0.6119 -0.2504  0.5248
  681TIP3   OH223533   1.499   4.488  16.580  0.4751 -0.2291  0.3414
  681TIP3    H123534   1.425   4.500  16.640 -0.2477  0.7921 -0.7045
  681TIP3    H223535   1.554   4.565  16.593 -0.3275  0.6428 -1.1308
  682TIP3   OH223536   5.128   0.365  14.403  0.2516 -0.3389 -0.1089
  682TIP3    H123537   5.206   0.414  14.429  0.3162 -1.2320  1.5092
  682TIP3    H223538   5.073   0.365  14.482 -1.3342  0.1415 -1.1663
  683TIP3   OH223539   2.307   3.926   0.863 -0.2643  0.4180 -0.6201
  683TIP3    H123540   2.329   3.857   0.800 -1.2078 -0.0547 -0.4517
  683TIP3    H223541   2.390   3.969   0.880  0.4123 -0.8490 -0.5367
  684TIP3   OH223542   5.916   2.031   0.544  0.0094  0.3308  0.1198
  684TIP3    H123543   5.914   1.955   0.487  0.2675 -0.9585  1.7510
  684TIP3    H223544   5.994   2.018   0.599 -1.0158  0.7372  1.7512
  685TIP3   OH223545   1.237   0.137  16.205  0.3329 -0.3420 -0.0215
  685TIP3    H123546   1.288   0.208  16.167 -0.2701  0.1753  0.1330
  685TIP3    H223547   1.301   0.087  16.257  0.4770  0.9731  1.1200
  686TIP3   OH223548   2.152   4.456   4.539 -0.0683  0.0239  0.0291
  686TIP3    H123549   2.134   4.365   4.563 -0.6551  0.5220  1.5719
  686TIP3    H223550   2.092   4.508   4.593  1.1910  1.3925  0.1789
  687TIP3   OH223551   2.423   2.204  11.311 -0.7138 -0.6641  0.4094
  687TIP3    H123552   2.513   2.239  11.308 -1.3970  1.2254  0.8865
  687TIP3    H223553   2.409   2.180  11.402 -1.0126 -0.0462  0.5301
  688TIP3   OH223554   0.557   5.518  15.954 -0.2527  0.1168 -0.3767
  688TIP3    H123555   0.472   5.476  15.940 -0.8589  0.4184  2.0289
  688TIP3    H223556   0.537   5.612  15.959  0.3983  0.2906 -0.8903
  689TIP3   OH223557   2.094   4.059  14.091 -0.0606  0.6741 -0.1615
  689TIP3    H123558   2.066   4.119  14.021 -0.3384  1.1358  0.3374
  689TIP3    H223559   2.101   4.115  14.168  3.3844  0.8763 -0.4485
  690TIP3   OH223560   3.147   3.960   3.314  0.1217  0.5453  0.3590
  690TIP3    H123561   3.225   3.913   3.341 -0.3015  0.2874  1.1682
  690TIP3    H223562   3.109   3.906   3.244  0.0338  0.0561  0.7781
  691TIP3   OH223563   1.986   2.308   4.421  0.3051  0.3580  0.1334
  691TIP3    H123564   1.980   2.368   4.347  0.4754 -1.0796 -1.1000
  691TIP3    H223565   2.062   2.253   4.402 -1.3958 -2.0437 -0.2240
  692TIP3   OH223566   3.419   0.363  10.707  0.0841 -0.0051  0.4708
  692TIP3    H123567   3.460   0.384  10.790  1.0068 -0.3765  0.1301
  692TIP3    H223568   3.459   0.280  10.681 -2.3509 -1.4726  1.0777
  693TIP3   OH223569   3.534   4.939   1.968 -0.3552 -0.3740 -0.1187
  693TIP3    H123570   3.496   4.926   1.881  0.0497 -1.3407 -0.1569
  693TIP3    H223571   3.475   5.001   2.010 -0.2058  0.6184 -1.3043
  694TIP3   OH223572   4.349   3.100  10.956  0.4022 -0.5820 -0.3320
  694TIP3    H123573   4.423   3.098  11.016  1.0008  1.3301 -0.9201
  694TIP3    H223574   4.280   3.146  11.004  0.1265 -0.9696 -0.3475
  695TIP3   OH223575   6.551   1.386   0.273  0.0123  0.5267  0.5266
  695TIP3    H123576   6.646   1.386   0.259  0.0471  0.1164  0.7719
  695TIP3    H223577   6.537   1.457   0.336 -0.0131  1.5689 -0.6220
  696TIP3   OH223578   3.204   6.238  12.086  0.0127 -0.5692 -0.0325
  696TIP3    H123579   3.215   6.144  12.073  0.5507 -0.7215  1.4060
  696TIP3    H223580   3.178   6.247  12.177 -0.1859  0.6671 -0.1987
  697TIP3   OH223581   0.968   2.933   6.312  0.0754  0.9505 -0.3243
  697TIP3    H123582   0.961   2.955   6.405 -1.0687 -0.8227  0.0582
  697TIP3    H223583   0.887   2.966   6.273 -0.0991  0.4340 -0.4043
  698TIP3   OH223584   2.194   6.383  16.291 -0.1760 -0.3006  0.3211
  698TIP3    H123585   2.259   6.322  16.325  0.6437 -0.4143 -1.3268
  698TIP3    H223586   2.228   6.469  16.314  0.7567 -0.3456 -0.7938
  699TIP3   OH223587   2.055   1.987   3.959 -0.1023  0.5179  0.1768
  699TIP3    H123588   1.997   1.943   3.897 -1.2326  1.8372  0.2825
  699TIP3    H223589   2.142   1.981   3.918 -0.5195 -0.2638 -0.6318
  700TIP3   OH223590   2.729   0.575  14.301  0.7779 -0.3799 -0.3841
  700TIP3    H123591   2.640   0.544  14.314  0.7704  0.4429  2.2901
  700TIP3    H223592   2.784   0.497  14.315  0.5382 -0.3810  0.6833
  701TIP3   OH223593   3.301   3.189  14.322  0.1421 -0.1311  0.1508
  701TIP3    H123594   3.381   3.145  14.350  1.9481  2.8569  0.0961
  701TIP3    H223595   3.261   3.129  14.259  1.2433 -2.5700  1.6320
  702TIP3   OH223596   3.867   5.339   0.999  0.4860 -0.1744 -0.6299
  702TIP3    H123597   3.837   5.260   1.044  1.9536 -0.4051 -0.0157
  702TIP3    H223598   3.833   5.329   0.910 -0.8816 -0.5989 -0.0935
  703TIP3   OH223599   4.994   6.262  15.413 -0.2657  0.6536 -0.2035
  703TIP3    H123600   4.968   6.281  15.504 -0.3915  2.8747 -0.6434
  703TIP3    H223601   5.088   6.250  15.417 -0.4392 -0.6578  0.4047
  704TIP3   OH223602   0.152   3.843  16.064  0.1237 -0.2523  0.1030
  704TIP3    H123603   0.062   3.823  16.088  0.6532  0.3265  2.9079
  704TIP3    H223604   0.161   3.811  15.974 -2.3910 -1.7211  0.2950
  705TIP3   OH223605   2.178   3.898  16.109 -0.1827 -0.1281 -0.0239
  705TIP3    H123606   2.260   3.923  16.067 -1.7279  0.0504 -3.2314
  705TIP3    H223607   2.205   3.846  16.185  2.8634  0.2476 -0.7246
  706TIP3   OH223608   2.525   3.456   3.655  0.4125  0.4497 -0.2335
  706TIP3    H123609   2.611   3.471   3.695 -0.0858  0.5080  0.8468
  706TIP3    H223610   2.480   3.540   3.662  0.0201  0.2344 -0.1669
  707TIP3   OH223611   1.313   0.763  15.067  0.0030  0.0235 -0.0866
  707TIP3    H123612   1.237   0.716  15.033 -0.3401 -0.1745  0.9235
  707TIP3    H223613   1.277   0.830  15.124  0.5403  0.8643 -0.7005
  708TIP3   OH223614   6.009   2.050  10.387 -0.5633  0.2566 -0.2538
  708TIP3    H123615   6.053   2.105  10.452  0.8265 -1.0155 -0.0631
  708TIP3    H223616   6.080   2.018  10.331 -1.2160 -1.8318  0.0299
  709TIP3   OH223617   6.095   4.366   4.622 -0.0649 -0.2808 -0.8202
  709TIP3    H123618   6.008   4.375   4.583 -0.6802 -1.5828  0.1997
  709TIP3    H223619   6.091   4.286   4.673  1.5295  0.0092 -0.1742
  710TIP3   OH223620   2.280   5.012  15.834 -0.0204  0.3760  0.1092
  710TIP3    H123621   2.252   4.977  15.749 -0.9270 -0.4228  0.7122
  710TIP3    H223622   2.300   5.104  15.818  1.6499 -0.1884 -1.3695
  711TIP3   OH223623   2.295   5.907   5.245 -0.4470  0.7106 -0.4861
  711TIP3    H123624   2.288   5.986   5.191 -0.0281  1.5285  0.6277
  711TIP3    H223625   2.307   5.939   5.334 -1.3748 -0.6129  0.1561
  712TIP3   OH223626   1.380   6.806   1.175  0.2351 -0.3923 -0.3000
  712TIP3    H123627   1.364   6.857   1.096  1.5234 -1.7922 -1.5227
  712TIP3    H223628   1.468   6.831   1.203  0.2292 -0.7312  0.0430
  713TIP3   OH223629   3.526   1.748  15.957 -0.4279  0.1841  0.0416
  713TIP3    H123630   3.585   1.806  15.910  0.0252 -0.5489 -0.3145
  713TIP3    H223631   3.483   1.697  15.888 -1.3516  0.5863  0.3050
  714TIP3   OH223632   5.168   4.666  13.936  0.1289 -0.1597  0.1149
  714TIP3    H123633   5.158   4.707  14.022  1.1024 -0.4197  0.3647
  714TIP3    H223634   5.129   4.579  13.947  1.8059 -0.8527  0.8259
  715TIP3   OH223635   6.798   4.731   3.890  0.6439 -0.2230  0.5503
  715TIP3    H123636   6.705   4.709   3.897  0.4898  0.3525  0.3996
  715TIP3    H223637   6.833   4.670   3.825  0.2043  0.0518  0.0478
  716TIP3   OH223638   5.809   3.620  15.325  0.2650 -0.3958  0.1036
  716TIP3    H123639   5.784   3.529  15.340  2.0505 -0.8557  0.5559
  716TIP3    H223640   5.903   3.616  15.306  0.1373  1.2346 -1.1445
  717TIP3   OH223641   3.630   0.290   3.801 -0.5456  0.4019  0.1727
  717TIP3    H123642   3.607   0.350   3.731  1.0062  0.1713 -0.5907
  717TIP3    H223643   3.650   0.346   3.876  1.3228  0.9392 -0.6577
  718TIP3   OH223644   3.670   4.066   6.660  0.0736 -0.3250 -0.1351
  718TIP3    H123645   3.611   4.047   6.588 -0.4863 -2.0296  0.7292
  718TIP3    H223646   3.752   4.091   6.618 -1.7685  4.8617 -1.4903
  719TIP3   OH223647   2.095   2.465  15.319 -0.0728 -0.5286 -0.0946
  719TIP3    H123648   2.115   2.524  15.247 -2.8021  0.4074 -0.1930
  719TIP3    H223649   2.051   2.390  15.278 -0.5679 -0.5540  0.4730
  720TIP3   OH223650   0.483   5.036  15.158  0.2337  0.1070 -0.1312
  720TIP3    H123651   0.557   5.040  15.218  0.6914 -1.9921 -0.4786
  720TIP3    H223652   0.432   4.961  15.187 -0.4266  0.0316 -1.3860
  721TIP3   OH223653   5.764   1.599  15.031 -0.4954 -0.2272 -0.0097
  721TIP3    H123654   5.844   1.579  14.982 -0.3453  1.4884 -0.5189
  721TIP3    H223655   5.787   1.579  15.122  1.2514  2.0835  0.1597
  722TIP3   OH223656   1.237   0.040   0.350 -0.0552 -0.8463 -0.5052
  722TIP3    H123657   1.194   0.051   0.435 -1.5758 -1.2848 -1.1828
  722TIP3    H223658   1.198  -0.040   0.314 -0.2717 -0.0519 -2.0916
  723TIP3   OH223659   1.184   1.887   4.762 -0.5312 -0.1712 -0.3027
  723TIP3    H123660   1.091   1.891   4.737 -1.6710 -1.1430  3.2207
  723TIP3    H223661   1.192   1.805   4.810  1.7910  0.6385  0.8072
  724TIP3   OH223662   6.414   2.881  13.583  0.7128 -0.3122 -0.1040
  724TIP3    H123663   6.493   2.882  13.529  1.5911 -1.0985  1.1147
  724TIP3    H223664   6.423   2.957  13.640  1.1616 -1.0189  0.7930
  725TIP3   OH223665   0.060   3.679   5.244  0.4213  0.2796 -0.7695
  725TIP3    H123666   0.079   3.727   5.324 -0.8006  1.1839 -0.9769
  725TIP3    H223667   0.130   3.703   5.184  1.6984 -0.8949  0.1866
  726TIP3   OH223668   0.921   1.812   5.921 -0.7855  0.5123 -0.1732
  726TIP3    H123669   0.985   1.741   5.927 -1.6418 -0.4510 -1.8917
  726TIP3    H223670   0.870   1.803   6.001 -2.0716 -2.0651 -1.1621
  727TIP3   OH223671   3.086   1.307   4.630  0.3826 -0.4777  0.1645
  727TIP3    H123672   3.074   1.326   4.537  1.6634  0.3553  0.1405
  727TIP3    H223673   3.143   1.230   4.631 -2.8076 -3.0872  0.2911
  728TIP3   OH223674   0.277   5.530   0.406 -0.1845  0.5137  0.3262
  728TIP3    H123675   0.315   5.507   0.491 -0.8286  1.0705  0.7781
  728TIP3    H223676   0.183   5.517   0.418 -0.4814  2.4829  0.3126
  729TIP3   OH223677   4.575   2.923   0.552  0.3954 -0.4083  0.1639
  729TIP3    H123678   4.531   3.003   0.525  0.3972  0.0920  1.5616
  729TIP3    H223679   4.664   2.950   0.574  0.0895 -0.5377  1.7243
  730TIP3   OH223680   5.902   1.909  15.914  0.4587 -0.4670 -0.0483
  730TIP3    H123681   5.867   1.822  15.896  0.3747 -0.2104 -1.1869
  730TIP3    H223682   5.927   1.943  15.828 -0.7944  1.1775  0.1755
  731TIP3   OH223683   5.774   0.822  13.019 -0.1718 -0.2206 -0.0121
  731TIP3    H123684   5.845   0.808  12.956  0.3458 -1.0170  0.7256
  731TIP3    H223685   5.731   0.736  13.024 -1.1729  0.2404 -0.4151
  732TIP3   OH223686   1.047   1.578   2.340 -0.1650  0.2871  0.0037
  732TIP3    H123687   0.965   1.594   2.387 -0.3430 -0.9947  0.1477
  732TIP3    H223688   1.091   1.510   2.391  0.2475 -0.1847 -0.9635
  733TIP3   OH223689   1.363   6.073  14.378  0.0388  0.9311 -0.1320
  733TIP3    H123690   1.268   6.067  14.387 -0.1439  2.4615 -0.7731
  733TIP3    H223691   1.385   6.011  14.308 -0.4102  0.2454  0.3201
  734TIP3   OH223692   3.545   6.451   1.854 -0.7538  0.1416 -0.0596
  734TIP3    H123693   3.587   6.440   1.769 -3.0327 -0.6952 -1.1570
  734TIP3    H223694   3.522   6.544   1.857 -1.1495  0.0699 -0.6227
  735TIP3   OH223695   1.685   4.119   4.439 -0.3675 -0.3481  0.3663
  735TIP3    H123696   1.721   4.208   4.436  2.4733 -1.3542  0.9859
  735TIP3    H223697   1.714   4.085   4.524 -2.8415 -1.3580  0.8628
  736TIP3   OH223698   1.044   0.096   2.167 -0.4604  0.5277  0.5903
  736TIP3    H123699   0.962   0.144   2.154 -1.3710 -1.2380 -0.6910
  736TIP3    H223700   1.052   0.088   2.262 -0.3381  3.0031  0.8444
  737TIP3   OH223701   2.065   3.452   3.725 -0.0900  0.1441 -0.3507
  737TIP3    H123702   2.093   3.529   3.675 -1.0868  0.0003 -1.1672
  737TIP3    H223703   2.117   3.455   3.806  1.3454  0.5338 -1.2678
  738TIP3   OH223704   2.874   5.522  14.550 -0.6895  0.0507  0.0182
  738TIP3    H123705   2.943   5.588  14.542 -0.8539  0.4537  1.6403
  738TIP3    H223706   2.911   5.444  14.509  0.1972  0.6310 -0.3236
  739TIP3   OH223707   2.091   6.491   6.188  0.3026  0.1432 -0.6216
  739TIP3    H123708   2.017   6.434   6.209  1.0172 -0.8203 -0.6681
  739TIP3    H223709   2.058   6.549   6.119  0.2042 -1.7024 -2.2137
  740TIP3   OH223710   3.967   2.859  16.651  0.1476  0.6579  0.4030
  740TIP3    H123711   4.002   2.781  16.608  1.8915  1.7804 -0.3486
  740TIP3    H223712   3.917   2.825  16.725  1.2254 -1.1761  0.3576
  741TIP3   OH223713   3.964   5.401   3.811  0.1834 -0.7069  0.4093
  741TIP3    H123714   4.046   5.422   3.856  0.1053 -0.9382  0.6565
  741TIP3    H223715   3.908   5.477   3.828 -0.4317 -1.5084  2.1060
  742TIP3   OH223716   3.522   4.476   0.641  0.3140  0.2238  0.1575
  742TIP3    H123717   3.561   4.471   0.555  0.0347  2.2043 -0.1377
  742TIP3    H223718   3.490   4.566   0.648 -1.7138 -0.5157  1.4355
  743TIP3   OH223719   6.793   1.384  16.675  0.4240  0.3331  0.1692
  743TIP3    H123720   6.875   1.337  16.659 -0.5635 -1.4228 -0.0097
  743TIP3    H223721   6.784   1.384  16.771  0.4413  0.1748  0.1710
  744TIP3   OH223722   1.843   6.844   0.733  0.0412 -0.0306  0.3962
  744TIP3    H123723   1.917   6.896   0.701  0.5634 -1.0833 -0.1541
  744TIP3    H223724   1.881   6.758   0.751 -0.8326 -0.2588  1.1806
  745TIP3   OH223725   2.896   6.089   5.701  0.5980 -0.3899  0.3905
  745TIP3    H123726   2.801   6.101   5.710  0.8533  0.7490  1.8314
  745TIP3    H223727   2.908   5.994   5.708 -0.4766 -0.6356 -0.5851
  746TIP3   OH223728   0.678   3.979   3.487 -0.0173  0.0889  0.1954
  746TIP3    H123729   0.708   4.044   3.551 -0.1037  1.0155 -0.6925
  746TIP3    H223730   0.728   3.998   3.408  0.4978 -1.4043  0.1193
  747TIP3   OH223731   5.694   6.057   1.711  0.0201 -0.1641 -0.5264
  747TIP3    H123732   5.754   6.091   1.777 -0.1395 -1.0656  0.1005
  747TIP3    H223733   5.742   6.064   1.628  0.5732  0.1292 -0.1823
  748TIP3   OH223734   3.463   4.775  11.494  0.0584  0.0966 -0.2784
  748TIP3    H123735   3.447   4.859  11.536 -0.7712  0.7055 -1.7163
  748TIP3    H223736   3.403   4.774  11.419  0.8188 -1.3106 -0.9137
  749TIP3   OH223737   0.353   3.931   2.336 -0.1740 -0.0921 -0.0718
  749TIP3    H123738   0.398   3.926   2.252 -0.3410 -0.5853 -0.1330
  749TIP3    H223739   0.260   3.925   2.313 -0.1726 -3.1303  0.3347
  750TIP3   OH223740   4.794   4.541   5.906 -0.1066  0.2002 -0.2273
  750TIP3    H123741   4.763   4.598   5.835 -1.9377  0.1607  0.4742
  750TIP3    H223742   4.745   4.460   5.895  0.1526 -0.0815  0.6192
  751TIP3   OH223743   0.847   4.710  14.967  0.0453  0.3975 -0.2858
  751TIP3    H123744   0.831   4.787  14.912 -1.6306 -0.0771 -0.5208
  751TIP3    H223745   0.932   4.727  15.008  1.8911  0.3640 -3.6871
  752TIP3   OH223746   4.971   6.243   1.192  0.0552 -0.2654  0.0694
  752TIP3    H123747   4.992   6.155   1.159 -1.1525 -0.2745 -0.7557
  752TIP3    H223748   4.996   6.301   1.120  1.4727  0.1593  0.8696
  753TIP3   OH223749   1.741   5.742  11.745 -0.6702 -0.5935  0.1723
  753TIP3    H123750   1.785   5.806  11.689  0.6270  0.1226  1.9230
  753TIP3    H223751   1.775   5.657  11.715  0.8486 -0.1437  0.5270
  754TIP3   OH223752   6.289   2.611  14.315 -0.4268  0.0823 -0.5107
  754TIP3    H123753   6.250   2.525  14.327  0.9045 -0.4996 -0.2273
  754TIP3    H223754   6.258   2.640  14.229 -2.5120  0.2249  0.2297
  755TIP3   OH223755   6.585   5.050  11.871 -0.5047  0.4905 -0.6202
  755TIP3    H123756   6.521   5.115  11.899  0.2860  0.7879  0.5693
  755TIP3    H223757   6.549   5.015  11.789 -1.8108  1.1583 -0.3617
  756TIP3   OH223758   5.375   2.441   4.869 -0.4691 -0.7376 -0.0307
  756TIP3    H123759   5.448   2.426   4.928 -0.3380 -1.0079 -0.2589
  756TIP3    H223760   5.316   2.500   4.917  0.7773  0.9941 -0.5271
  757TIP3   OH223761   3.726   5.296   4.360  0.1193 -0.4060 -0.2255
  757TIP3    H123762   3.750   5.372   4.307 -0.6463 -0.8482 -1.2323
  757TIP3    H223763   3.673   5.333   4.431  0.7543  0.1335 -0.0184
  758TIP3   OH223764   4.503   0.449  12.673  0.5512  0.3380  0.2511
  758TIP3    H123765   4.423   0.489  12.638 -0.4941 -1.6864  0.1471
  758TIP3    H223766   4.567   0.456  12.602  0.5431  2.0534  0.3618
  759TIP3   OH223767   2.404   2.466  16.918 -0.1873 -0.0963  0.4080
  759TIP3    H123768   2.483   2.497  16.963  1.9532 -0.0432 -3.0371
  759TIP3    H223769   2.418   2.372  16.907 -1.1905 -0.2947  0.7766
  760TIP3   OH223770   1.362   4.726   2.972  0.1704  0.7643 -0.2238
  760TIP3    H123771   1.319   4.766   3.048  1.5443  2.3911 -0.2570
  760TIP3    H223772   1.422   4.794   2.940  1.0180 -0.5904 -1.6042
  761TIP3   OH223773   1.518   0.787  12.188  0.3293 -0.3156 -0.1446
  761TIP3    H123774   1.432   0.767  12.226  0.2599  0.6356  0.2293
  761TIP3    H223775   1.518   0.741  12.103 -0.8340  0.2368 -0.4696
  762TIP3   OH223776   0.133   4.716  13.618  0.5280  0.3588  0.0187
  762TIP3    H123777   0.095   4.654  13.681  0.0822  0.7792  0.1664
  762TIP3    H223778   0.134   4.799  13.664 -1.8979  1.1925 -1.2604
  763TIP3   OH223779   1.577   5.998  14.145  0.2767  0.4988  0.2236
  763TIP3    H123780   1.581   5.946  14.065  0.3840 -0.2975  0.7361
  763TIP3    H223781   1.627   5.948  14.209  1.7347  2.0059  0.3270
  764TIP3   OH223782   0.517   3.210   4.211 -0.1690 -0.2822 -0.2691
  764TIP3    H123783   0.461   3.288   4.219  1.4502  0.7632  1.5983
  764TIP3    H223784   0.477   3.146   4.270 -0.6490 -0.3665 -0.6718
  765TIP3   OH223785   3.805   0.043   0.631  0.9251  0.4804  0.4023
  765TIP3    H123786   3.718   0.079   0.646  0.0913 -1.2698  0.0378
  765TIP3    H223787   3.861   0.086   0.695 -1.1081 -1.5562  3.8563
  766TIP3   OH223788   1.106   0.401  15.627  0.7273 -0.2312  0.3467
  766TIP3    H123789   1.154   0.344  15.566 -0.1537 -0.0175 -0.5750
  766TIP3    H223790   1.132   0.371  15.714  0.1411 -2.1956 -0.1078
  767TIP3   OH223791   5.356   0.017  16.201  0.4982  0.5416 -0.6108
  767TIP3    H123792   5.388   0.032  16.290  0.8892  0.6680 -0.7735
  767TIP3    H223793   5.272  -0.027  16.214 -0.0710  1.7151 -0.1573
  768TIP3   OH223794   3.770   3.972  11.137 -0.4817  0.1258  0.0429
  768TIP3    H123795   3.778   4.060  11.101 -0.9119 -0.2971 -1.1550
  768TIP3    H223796   3.860   3.946  11.156 -0.3505  0.8056  0.3699
  769TIP3   OH223797   5.335   1.922   3.765  0.2551 -0.1729  0.2824
  769TIP3    H123798   5.293   1.978   3.700  1.2274  0.6038  0.2985
  769TIP3    H223799   5.265   1.901   3.827 -0.4269 -0.0486 -0.4246
  770TIP3   OH223800   2.977   2.449  12.321 -0.3173  0.0911 -0.1042
  770TIP3    H123801   2.902   2.409  12.365  0.2606  0.3804  1.1786
  770TIP3    H223802   3.023   2.375  12.280  0.1858 -0.4753  1.4100
  771TIP3   OH223803   4.093   2.855  13.751  0.2123 -0.2963  1.0311
  771TIP3    H123804   4.031   2.919  13.785 -1.1790  0.3027 -2.2609
  771TIP3    H223805   4.043   2.773  13.750  0.1529 -0.2593  0.3400
  772TIP3   OH223806   4.410   5.816  15.277  0.0610  0.9535 -0.1954
  772TIP3    H123807   4.434   5.892  15.223 -0.6960  2.2385  1.1863
  772TIP3    H223808   4.336   5.847  15.329 -1.0677 -1.1523 -0.4429
  773TIP3   OH223809   0.254   3.098   2.955 -0.7143  0.4797 -0.4721
  773TIP3    H123810   0.207   3.087   3.038 -1.2481 -1.4597 -0.9739
  773TIP3    H223811   0.315   3.170   2.971  0.5673 -1.0467  2.2668
  774TIP3   OH223812   5.964   6.030   5.539  0.5075  0.0977 -0.0483
  774TIP3    H123813   5.972   6.095   5.469  1.0793  0.6535  0.5142
  774TIP3    H223814   5.871   6.011   5.544  0.3591  0.7076 -0.3766
  775TIP3   OH223815   2.181   6.216  13.018  0.5396 -0.4571  0.3684
  775TIP3    H123816   2.225   6.168  12.948  0.0771 -0.1363 -0.1523
  775TIP3    H223817   2.139   6.149  13.071  0.9442 -0.7049  0.3835
  776TIP3   OH223818   1.184   1.940  11.778  0.2739 -0.4222 -0.4412
  776TIP3    H123819   1.233   1.983  11.848  2.9791  0.4766 -2.6604
  776TIP3    H223820   1.192   1.847  11.796  1.1977 -0.2147  0.2859
  777TIP3   OH223821   5.225   6.717  14.457  0.3485 -0.3465  0.3668
  777TIP3    H123822   5.214   6.812  14.468  2.1459 -0.0869  0.2597
  777TIP3    H223823   5.261   6.687  14.540 -3.6963 -1.6827  1.8812
  778TIP3   OH223824   0.102   4.006   3.211 -0.5250 -0.8701 -0.1839
  778TIP3    H123825   0.189   3.970   3.225 -1.5926 -4.3013 -1.4048
  778TIP3    H223826   0.055   3.990   3.293 -0.7554 -1.5534 -0.4413
  779TIP3   OH223827   5.077   4.133  11.440 -0.1598  0.0338 -0.0400
  779TIP3    H123828   5.134   4.061  11.467  0.5877  0.6561  0.0612
  779TIP3    H223829   5.137   4.203  11.416 -0.8900  0.9287  0.6954
  780TIP3   OH223830   6.703   5.482   0.777 -0.2243 -0.5099 -0.1475
  780TIP3    H123831   6.745   5.496   0.862 -0.7270  0.1363  0.0012
  780TIP3    H223832   6.648   5.405   0.790  0.1243 -0.7429 -0.0451
  781TIP3   OH223833   6.322   1.355   5.868 -0.2060 -0.2335 -0.0578
  781TIP3    H123834   6.387   1.339   5.936  0.4490  2.3912  0.0193
  781TIP3    H223835   6.247   1.392   5.914 -0.9284 -1.1814 -0.4308
  782TIP3   OH223836   5.470   3.281   3.927  0.5197  0.1025 -0.2306
  782TIP3    H123837   5.537   3.217   3.950 -0.0754 -0.8785 -1.1501
  782TIP3    H223838   5.465   3.277   3.832 -0.7532  0.2455 -0.1866
  783TIP3   OH223839   0.008   1.589  13.247 -0.1799 -0.7455  0.2724
  783TIP3    H123840  -0.034   1.663  13.204 -2.6479 -1.6401  0.9880
  783TIP3    H223841   0.054   1.628  13.321 -1.3091  0.1149  0.5516
  784TIP3   OH223842   1.259   0.944  15.698 -0.1533 -0.1301 -0.4603
  784TIP3    H123843   1.172   0.936  15.659 -0.4238  0.3927  0.0169
  784TIP3    H223844   1.319   0.948  15.623 -0.5316 -0.5260 -0.7916
  785TIP3   OH223845   5.956   5.659   1.077  0.4974  0.1632 -0.1415
  785TIP3    H123846   5.890   5.601   1.116 -0.3663  1.0137 -0.3075
  785TIP3    H223847   5.982   5.615   0.996 -2.7008  1.5623 -2.1106
  786TIP3   OH223848   4.471   5.638  13.579  0.1499  0.6155  0.1909
  786TIP3    H123849   4.496   5.556  13.621 -0.2914  0.2018 -0.3494
  786TIP3    H223850   4.554   5.677  13.552  0.3315  0.0742 -0.0532
  787TIP3   OH223851   5.883   6.198  13.379  0.5350 -0.3149 -0.1459
  787TIP3    H123852   5.887   6.111  13.420 -0.1624 -1.1885 -1.8493
  787TIP3    H223853   5.808   6.241  13.422 -0.1195 -1.1713 -0.3940
  788TIP3   OH223854   6.746   4.381   2.719  0.0576 -0.4023  0.1445
  788TIP3    H123855   6.745   4.356   2.811  0.5024  0.9041  0.5203
  788TIP3    H223856   6.676   4.446   2.711  2.2521  2.1530  0.3874
  789TIP3   OH223857   5.541   4.799  12.774  0.3086  0.8528  0.3140
  789TIP3    H123858   5.571   4.709  12.760 -0.8981  0.4475  0.2336
  789TIP3    H223859   5.617   4.853  12.752  0.5996 -0.0795 -1.1102
  790TIP3   OH223860   1.461   3.367   4.767 -0.1086  0.0106  0.1578
  790TIP3    H123861   1.379   3.399   4.806  0.3816 -0.3012  1.5188
  790TIP3    H223862   1.459   3.273   4.781  0.6237  0.0388  0.5206
  791TIP3   OH223863   0.957   4.991  15.889  0.3937 -0.4360  0.4500
  791TIP3    H123864   0.997   4.904  15.883  0.5891 -0.2362 -2.4100
  791TIP3    H223865   1.031   5.051  15.896  0.3443 -0.3810  0.5062
  792TIP3   OH223866   2.125   6.697  13.340 -0.1928  0.6205  0.2149
  792TIP3    H123867   2.080   6.642  13.277 -0.8212  2.0428 -0.6305
  792TIP3    H223868   2.176   6.636  13.393  0.3944 -0.6363 -1.6835
  793TIP3   OH223869   5.408   6.701   0.654 -0.8535  0.1856 -0.4337
  793TIP3    H123870   5.323   6.708   0.611 -0.4757 -0.7079 -1.3576
  793TIP3    H223871   5.389   6.716   0.747 -2.0037  0.0685 -0.6379
  794TIP3   OH223872   4.801   3.187   3.602 -0.4874  0.4391  0.1769
  794TIP3    H123873   4.799   3.092   3.604  0.0075  0.4270  0.1855
  794TIP3    H223874   4.785   3.213   3.693  1.7561  0.3044  0.6685
  795TIP3   OH223875   4.577   1.333   2.401  0.0426  0.5777  0.3682
  795TIP3    H123876   4.617   1.330   2.488 -0.1005  1.6458  0.4803
  795TIP3    H223877   4.633   1.276   2.348  0.1268 -0.0948  1.1493
  796TIP3   OH223878   0.183   5.586  11.901  0.1147  0.1693  0.0165
  796TIP3    H123879   0.250   5.637  11.945  0.3226  0.2026 -0.3322
  796TIP3    H223880   0.153   5.642  11.829 -0.9132  0.5085  0.7003
  797TIP3   OH223881   4.687   4.668   5.153 -0.0777  0.1314 -0.0949
  797TIP3    H123882   4.767   4.711   5.124  0.3942 -0.0199  0.9290
  797TIP3    H223883   4.625   4.680   5.081  1.1001 -0.4151 -1.2363
  798TIP3   OH223884   2.895   6.218   2.448  0.1988  0.4269 -0.0695
  798TIP3    H123885   2.834   6.253   2.513  1.0502  0.5598  0.6744
  798TIP3    H223886   2.915   6.129   2.477 -0.3306  0.0549 -0.8079
  799TIP3   OH223887   3.096   0.282  11.809 -0.1448  0.3387 -0.4252
  799TIP3    H123888   3.135   0.369  11.817 -0.8377  0.7728 -1.4884
  799TIP3    H223889   3.019   0.295  11.753 -1.0537 -0.7232  0.5263
  800TIP3   OH223890   6.748   6.796  14.468 -0.2421  0.4967  0.8348
  800TIP3    H123891   6.756   6.704  14.445 -1.5810  0.8508 -1.3915
  800TIP3    H223892   6.662   6.803  14.510  0.1369  0.6423  1.6014
  801TIP3   OH223893   3.155   1.962   4.066  0.6606  0.2410 -0.2242
  801TIP3    H123894   3.225   1.994   4.009  1.7659 -0.6012  0.6054
  801TIP3    H223895   3.182   1.873   4.089 -0.5865 -0.0265  0.3066
  802TIP3   OH223896   2.252   5.482  11.532 -0.3373 -0.0403  0.0034
  802TIP3    H123897   2.347   5.492  11.528 -0.1238 -1.6021  0.5151
  802TIP3    H223898   2.233   5.411  11.470 -0.9459 -0.9559  1.2145
  803TIP3   OH223899   0.474   4.872   0.570 -0.4637  0.0651 -0.0399
  803TIP3    H123900   0.513   4.858   0.656  0.6718  0.5781 -0.4504
  803TIP3    H223901   0.423   4.792   0.554 -1.8225  0.5185  1.6598
  804TIP3   OH223902   3.805   1.654  15.433  0.0914  0.6277  0.1571
  804TIP3    H123903   3.854   1.604  15.497  1.2662  0.4206 -0.8576
  804TIP3    H223904   3.718   1.614  15.432  0.4957 -0.2801  0.5872
  805TIP3   OH223905   6.318   2.037   4.706  0.1173  0.0001 -0.2517
  805TIP3    H123906   6.380   2.109   4.697 -0.7901  0.8660  0.2083
  805TIP3    H223907   6.233   2.076   4.684 -0.4549 -0.8028  0.4540
  806TIP3   OH223908   3.442   4.817   5.475  0.8848 -0.5591  0.3768
  806TIP3    H123909   3.366   4.874   5.459 -0.3509 -1.3729  2.8183
  806TIP3    H223910   3.507   4.874   5.515  0.9811 -0.1735 -0.3180
  807TIP3   OH223911   5.731   2.216   0.464 -0.0913  0.0559  0.3991
  807TIP3    H123912   5.791   2.148   0.493 -0.7695 -0.1054  1.4976
  807TIP3    H223913   5.760   2.295   0.509 -1.0408 -0.1533  1.4278
  808TIP3   OH223914   2.720   5.679  14.186 -0.0096 -0.2681 -0.4743
  808TIP3    H123915   2.727   5.595  14.230 -0.2819 -0.8612 -1.5257
  808TIP3    H223916   2.717   5.657  14.093  0.0478  0.9128 -0.7714
  809TIP3   OH223917   4.032   6.054  16.687  0.2549 -0.3954  0.0952
  809TIP3    H123918   4.104   6.117  16.689 -0.5350  0.5853  3.4398
  809TIP3    H223919   3.958   6.100  16.726 -1.1803 -2.5219  0.0607
  810TIP3   OH223920   0.128   0.439  15.175  0.1957 -0.1924 -0.2994
  810TIP3    H123921   0.132   0.424  15.270  0.6282 -0.4491 -0.3565
  810TIP3    H223922   0.219   0.436  15.147  0.2484  1.6737 -0.4487
  811TIP3   OH223923   2.812   1.291   4.627  0.3742 -0.4686 -0.2300
  811TIP3    H123924   2.827   1.375   4.582 -2.8214  0.3185 -0.0796
  811TIP3    H223925   2.809   1.226   4.557  2.0473 -0.3629 -0.4307
  812TIP3   OH223926   3.076   0.543   3.453  0.2499  0.4742 -0.2442
  812TIP3    H123927   2.995   0.525   3.502  1.0798  0.0845  1.0187
  812TIP3    H223928   3.110   0.624   3.490 -0.0898  1.2419 -1.5199
  813TIP3   OH223929   1.512   1.456   3.268 -0.3199  0.2793 -0.1233
  813TIP3    H123930   1.476   1.487   3.185  1.4005 -1.9908 -1.8605
  813TIP3    H223931   1.484   1.365   3.273  1.4173 -0.2499  0.6466
  814TIP3   OH223932   5.757   0.195  12.562  0.1839  0.1338  0.0008
  814TIP3    H123933   5.680   0.249  12.581  0.1108  0.4000 -1.0014
  814TIP3    H223934   5.794   0.175  12.648 -0.9627  0.0572  0.4918
  815TIP3   OH223935   1.313   5.994   4.499 -0.8010 -0.0381 -0.4538
  815TIP3    H123936   1.367   5.916   4.512 -1.5441 -0.3095  1.4923
  815TIP3    H223937   1.341   6.030   4.415  1.4711 -0.8657 -0.1220
  816TIP3   OH223938   6.362   6.453   1.458 -0.7680 -0.2097  0.2600
  816TIP3    H123939   6.436   6.464   1.398 -0.2031 -0.5022  0.8801
  816TIP3    H223940   6.403   6.441   1.544 -1.4449 -2.3839  0.3401
  817TIP3   OH223941   1.144   4.708   0.014  0.6738  0.0770  0.3165
  817TIP3    H123942   1.096   4.710  -0.069 -1.1708  0.4415  1.3259
  817TIP3    H223943   1.183   4.795   0.021  0.4231  0.2122  0.0459
  818TIP3   OH223944   6.459   4.273  15.595  0.4186  0.2191 -0.6649
  818TIP3    H123945   6.528   4.215  15.625  1.6134  1.3379 -1.1221
  818TIP3    H223946   6.481   4.291  15.503  0.1292  1.4190 -0.5176
  819TIP3   OH223947   3.078   2.715   2.722 -0.0044 -0.1198  0.3655
  819TIP3    H123948   3.027   2.682   2.797 -2.4032  1.2968 -0.5255
  819TIP3    H223949   3.039   2.801   2.703  1.7841  0.3775 -1.3574
  820TIP3   OH223950   6.084   2.645  12.621 -0.0539  0.4461  0.2790
  820TIP3    H123951   6.170   2.616  12.591  0.8318  2.7970  0.2858
  820TIP3    H223952   6.064   2.588  12.695  1.2367 -0.5126 -0.0667
  821TIP3   OH223953   3.934   5.008   3.333  0.2894 -0.4448 -0.8362
  821TIP3    H123954   3.849   5.018   3.290  1.0594  2.1933 -1.9058
  821TIP3    H223955   3.912   4.985   3.424 -1.5580  0.3658 -1.0341
  822TIP3   OH223956   2.714   3.518  12.366 -0.4097 -0.1440  0.1013
  822TIP3    H123957   2.671   3.490  12.447 -1.7460 -0.0888 -0.5505
  822TIP3    H223958   2.752   3.603  12.387 -0.3932 -0.3185  0.7898
  823TIP3   OH223959   1.395   1.312  13.944  0.1974 -0.3622  0.1892
  823TIP3    H123960   1.440   1.267  14.016 -0.7989 -1.0250  0.4230
  823TIP3    H223961   1.377   1.400  13.978  1.8150  0.1235 -0.1281
  824TIP3   OH223962   2.305   1.227   5.867 -0.9491 -0.1275  0.2113
  824TIP3    H123963   2.322   1.259   5.779  1.2771 -0.4217  0.4782
  824TIP3    H223964   2.350   1.289   5.925  1.6626 -2.4041  0.8435
  825TIP3   OH223965   1.831   5.105   1.528 -0.1208 -0.2913 -0.6229
  825TIP3    H123966   1.832   5.013   1.500  0.4237 -0.6086  0.3916
  825TIP3    H223967   1.750   5.140   1.491 -0.1401 -1.0646 -1.3604
  826TIP3   OH223968   2.508   0.148   1.246  0.2898  0.1730 -0.2101
  826TIP3    H123969   2.558   0.159   1.165  1.1629 -0.4974  0.2221
  826TIP3    H223970   2.438   0.213   1.240  1.3691  1.3303 -0.7071
  827TIP3   OH223971   3.101   2.745  16.340 -0.0556  0.3957 -0.4571
  827TIP3    H123972   3.033   2.772  16.278 -0.4228  1.5878  0.4150
  827TIP3    H223973   3.051   2.707  16.413  0.2429  0.7857 -0.0476
  828TIP3   OH223974   3.273   3.981   4.822  0.5056 -0.4947  0.4525
  828TIP3    H123975   3.310   3.903   4.781  0.3905 -0.8429  1.0001
  828TIP3    H223976   3.349   4.026   4.859  0.6388 -0.0562 -0.3350
  829TIP3   OH223977   2.838   0.457  15.785 -0.2571 -0.4272  0.0296
  829TIP3    H123978   2.864   0.366  15.767  0.8374  0.0243 -0.7884
  829TIP3    H223979   2.743   0.453  15.795 -0.3393 -1.5270 -0.9582
  830TIP3   OH223980   5.641   5.126  11.360  0.3201  0.0391  0.0898
  830TIP3    H123981   5.652   5.220  11.345 -2.1723  0.3714 -0.1324
  830TIP3    H223982   5.560   5.119  11.411 -1.5126 -2.0699 -2.7624
  831TIP3   OH223983   5.987   3.889  13.464 -0.2331  0.4217  0.4208
  831TIP3    H123984   5.931   3.847  13.399 -0.8394  2.7308 -0.6856
  831TIP3    H223985   5.965   3.982  13.457  1.5241  1.0363  2.1825
  832TIP3   OH223986   6.147   6.036   5.770 -0.5041  0.3789 -0.3129
  832TIP3    H123987   6.077   6.073   5.715  1.2641  0.6651 -2.5375
  832TIP3    H223988   6.120   5.945   5.785 -0.8435  0.1443 -2.1221
  833TIP3   OH223989   4.533   4.063  10.798  0.5464 -0.0632  0.6087
  833TIP3    H123990   4.478   4.111  10.860  0.9053 -0.1355  0.9884
  833TIP3    H223991   4.622   4.071  10.833  0.6825 -0.5553  0.3937
  834TIP3   OH223992   1.537   1.223  14.186  0.7022 -0.3889 -0.5420
  834TIP3    H123993   1.599   1.296  14.181 -0.3416  0.6671  0.8125
  834TIP3    H223994   1.494   1.235  14.271  1.0362 -3.0561  0.0866
  835TIP3   OH223995   6.467   0.752  16.281 -0.2155  0.2357 -0.4687
  835TIP3    H123996   6.398   0.765  16.216 -0.8306  0.8794  0.2885
  835TIP3    H223997   6.422   0.712  16.356  0.5095 -0.6338 -0.4780
  836TIP3   OH223998   4.126   2.151   4.928  0.3472 -0.2437  0.9610
  836TIP3    H123999   4.037   2.117   4.939 -0.1647  0.5598 -0.4508
  836TIP3    H224000   4.129   2.229   4.984 -0.2083  0.3388  0.2012
  837TIP3   OH224001   4.383   1.369   0.741 -0.1331  0.2962  0.1429
  837TIP3    H124002   4.416   1.414   0.663 -0.6102  1.4855  0.6027
  837TIP3    H224003   4.328   1.298   0.706 -1.5857  1.7442 -0.6540
  838TIP3   OH224004   3.430   4.786  13.130  0.2516 -0.0630  0.1446
  838TIP3    H124005   3.444   4.691  13.127 -0.4732 -0.1520 -1.0452
  838TIP3    H224006   3.337   4.796  13.149 -0.4257  0.3093 -2.8002
  839TIP3   OH224007   0.589   1.814   2.987  0.5784  0.5228 -0.0548
  839TIP3    H124008   0.559   1.862   2.910 -1.0103 -0.9194 -0.3939
  839TIP3    H224009   0.600   1.724   2.957  2.3109  0.3852  0.8505
  840TIP3   OH224010   4.596   6.112  11.305 -0.2696  0.0522 -0.5333
  840TIP3    H124011   4.513   6.064  11.301  0.0706 -0.4742 -3.4295
  840TIP3    H224012   4.663   6.044  11.304  0.2630  0.4990  1.1729
  841TIP3   OH224013   6.766   0.950   2.001  0.4130 -0.6243  0.4520
  841TIP3    H124014   6.751   1.031   1.953  2.6335 -0.9058 -0.8521
  841TIP3    H224015   6.840   0.970   2.059 -0.4170 -1.1254  1.7389
  842TIP3   OH224016   4.430   3.274  16.989 -0.2636 -0.5073 -0.0288
  842TIP3    H124017   4.369   3.239  16.925  1.0570 -1.3415 -0.8863
  842TIP3    H224018   4.459   3.198  17.039  1.1383 -0.3900 -0.5989
  843TIP3   OH224019   0.487   3.707   4.071 -0.0266  0.4418  0.1759
  843TIP3    H124020   0.517   3.672   3.987  0.2762 -0.5961  0.6971
  843TIP3    H224021   0.558   3.764   4.100  0.1344  0.3254  0.0085
  844TIP3   OH224022   4.166   1.819  14.875 -0.5847 -0.0570 -0.2553
  844TIP3    H124023   4.091   1.855  14.827  0.0402  0.1629 -1.0986
  844TIP3    H224024   4.220   1.778  14.807 -0.3139 -0.8712  0.4412
  845TIP3   OH224025   3.742   2.770   1.178 -0.8682 -0.4389  0.1127
  845TIP3    H124026   3.687   2.839   1.142 -1.5734 -1.1032 -0.1034
  845TIP3    H224027   3.681   2.711   1.221 -0.3604 -1.4002 -0.4692
  846TIP3   OH224028   0.413   6.656   3.504  0.8025 -0.2663 -0.0498
  846TIP3    H124029   0.398   6.726   3.568  2.2329 -0.0539  0.0876
  846TIP3    H224030   0.491   6.685   3.455 -0.4913 -0.1937 -2.2212
  847TIP3   OH224031   4.154   3.071   4.930  0.2310 -0.6297  0.4896
  847TIP3    H124032   4.076   3.067   4.875  0.5628  0.6139 -0.1068
  847TIP3    H224033   4.160   3.162   4.957  2.3332 -0.3211 -0.7824
  848TIP3   OH224034   0.019   6.421  12.934 -0.5413 -0.2770  0.2546
  848TIP3    H124035   0.025   6.328  12.956  0.7148  0.1113  1.7589
  848TIP3    H224036   0.015   6.423  12.839  0.5658 -1.8358  0.1356
  849TIP3   OH224037   2.863   6.753   4.835 -0.6899  0.1320 -0.7161
  849TIP3    H124038   2.799   6.691   4.870  0.5811 -0.0189  1.5955
  849TIP3    H224039   2.829   6.778   4.749 -3.6509 -0.1720  0.2546
  850TIP3   OH224040   6.168   1.857   3.768  0.0162  0.1179 -0.2874
  850TIP3    H124041   6.259   1.885   3.774 -0.1138  0.6660 -0.7965
  850TIP3    H224042   6.132   1.907   3.695  0.1800 -2.4600 -2.2847
  851TIP3   OH224043   5.958   0.145   3.562 -0.4725 -0.0124 -0.0005
  851TIP3    H124044   5.969   0.057   3.599 -0.9935  0.6047  1.7106
  851TIP3    H224045   5.874   0.142   3.517 -0.2985 -0.4914 -0.3047
  852TIP3   OH224046   0.262   3.854  13.813 -0.2263 -0.2681  0.0118
  852TIP3    H124047   0.353   3.857  13.842 -0.7441 -0.9334  1.8595
  852TIP3    H224048   0.213   3.827  13.890 -2.1161  0.9043 -0.7009
  853TIP3   OH224049   5.877   1.915  16.780  0.0534  0.0818  0.3534
  853TIP3    H124050   5.927   1.975  16.835  0.8003  0.8971 -1.1434
  853TIP3    H224051   5.887   1.829  16.821  2.2216  0.3193  0.4487
  854TIP3   OH224052   4.628   3.670  12.196 -0.4160  0.0664  0.0306
  854TIP3    H124053   4.667   3.645  12.280 -0.7804  0.4619  0.3204
  854TIP3    H224054   4.690   3.733  12.159 -0.7687  0.6946  0.4920
  855TIP3   OH224055   4.408   2.389  13.623  0.0337  0.1063  0.1251
  855TIP3    H124056   4.487   2.440  13.643 -0.2890  0.4517  0.5636
  855TIP3    H224057   4.363   2.440  13.556 -0.4086  0.5357  0.7349
  856TIP3   OH224058   5.018   3.928   0.477 -0.0417 -0.2491 -0.4144
  856TIP3    H124059   5.099   3.944   0.430  0.8097  1.3974  1.4664
  856TIP3    H224060   4.966   4.007   0.464 -1.6147 -1.4620 -1.9695
  857TIP3   OH224061   6.090   2.956   3.857 -0.0687  0.0755  0.0063
  857TIP3    H124062   6.175   2.916   3.837 -0.4255 -0.3356 -0.7421
  857TIP3    H224063   6.032   2.881   3.873 -0.2348  0.3602  0.7611
  858TIP3   OH224064   5.036   2.869   0.614 -0.5283 -0.4658 -0.2505
  858TIP3    H124065   4.959   2.815   0.596 -1.1778  0.2997  0.1309
  858TIP3    H224066   5.012   2.919   0.692  0.6922 -0.8189  0.3676
  859TIP3   OH224067   3.974   3.509   2.743  0.2924 -0.0434 -0.0523
  859TIP3    H124068   3.918   3.522   2.819 -0.2674  0.2145 -0.5039
  859TIP3    H224069   3.936   3.435   2.696 -0.9644  1.4203 -1.4865
  860TIP3   OH224070   5.028   5.492   4.525 -0.4433 -0.0006 -0.7782
  860TIP3    H124071   5.018   5.420   4.588  2.7959 -0.2763 -0.3916
  860TIP3    H224072   4.961   5.555   4.550 -0.6491 -1.0324  1.6374
  861TIP3   OH224073   5.890   6.789  14.421  0.4323 -0.3824 -0.2817
  861TIP3    H124074   5.915   6.756  14.334  0.2775  1.0180 -0.8876
  861TIP3    H224075   5.947   6.742  14.482  1.1792 -0.7275 -1.2201
  862TIP3   OH224076   4.872   3.360  11.245 -0.0074 -0.7057  0.0973
  862TIP3    H124077   4.899   3.404  11.326 -0.5905  1.5989 -0.8969
  862TIP3    H224078   4.952   3.316  11.215  1.1093  1.1305  0.2440
  863TIP3   OH224079   1.956   1.970  13.170 -0.3166 -0.0279 -0.1945
  863TIP3    H124080   2.008   1.899  13.133 -1.0742  0.1970 -1.7760
  863TIP3    H224081   1.938   1.942  13.260  1.4861 -0.6524  0.0228
  864TIP3   OH224082   4.824   4.979  11.139  0.3741 -0.2254  0.1231
  864TIP3    H124083   4.873   5.014  11.065  0.8145  0.8793  0.9090
  864TIP3    H224084   4.885   4.984  11.212 -0.2089 -0.8617  0.6672
  865TIP3   OH224085   4.560   1.695  12.350 -0.0018  0.5576 -0.3238
  865TIP3    H124086   4.464   1.698  12.360 -0.1720  0.3298 -1.6666
  865TIP3    H224087   4.586   1.787  12.347 -0.4952  0.6953 -2.2551
  866TIP3   OH224088   0.305   2.418  14.620 -0.2681  0.4377 -0.3347
  866TIP3    H124089   0.346   2.441  14.537  2.4418  0.4169  0.8579
  866TIP3    H224090   0.345   2.334  14.644 -1.8023 -0.0965  0.5005
  867TIP3   OH224091   1.585   6.832  13.550  0.3414 -0.1301  0.0030
  867TIP3    H124092   1.648   6.874  13.491 -2.0514  1.8696 -1.3067
  867TIP3    H224093   1.552   6.757  13.500  0.3632 -0.1106 -0.0407
  868TIP3   OH224094   1.346   2.723   2.591  0.6636 -0.0024  0.0437
  868TIP3    H124095   1.423   2.712   2.536  1.2911  1.8495  0.4878
  868TIP3    H224096   1.371   2.685   2.676  1.4365  1.3582  0.4508
  869TIP3   OH224097   1.666   6.522  13.935 -0.4561  0.5243  0.2163
  869TIP3    H124098   1.626   6.603  13.904  0.9643  1.0446 -0.3680
  869TIP3    H224099   1.720   6.549  14.010 -1.3474 -0.1917  1.1303
  870TIP3   OH224100   2.813   3.796  13.916  0.0023  0.3319  0.2507
  870TIP3    H124101   2.778   3.881  13.890 -0.4958  0.3383  0.9174
  870TIP3    H224102   2.881   3.817  13.980  1.1152  0.3086 -0.8868
  871TIP3   OH224103   3.655   3.137   2.149 -0.1553  0.4089 -0.7875
  871TIP3    H124104   3.705   3.132   2.230 -0.6183 -0.3821 -0.5391
  871TIP3    H224105   3.711   3.187   2.089  1.0347 -0.6395 -0.5925
  872TIP3   OH224106   2.520   4.778  12.650 -0.3084 -0.3429  0.3737
  872TIP3    H124107   2.439   4.735  12.623  0.0049  0.2606 -1.7663
  872TIP3    H224108   2.575   4.708  12.684 -0.9048 -1.1500 -0.2799
  873TIP3   OH224109   5.164   1.825   1.632  0.6550 -0.1284  0.1705
  873TIP3    H124110   5.211   1.841   1.714 -0.8486  0.5404  0.9610
  873TIP3    H224111   5.122   1.909   1.612  0.2665 -0.5344 -0.7894
  874TIP3   OH224112   3.037   3.068   0.957  0.6905  0.6294 -0.1257
  874TIP3    H124113   2.970   3.098   1.019 -0.2801 -1.0401 -0.3127
  874TIP3    H224114   3.036   3.135   0.888 -0.9060  0.5820 -0.1902
  875TIP3   OH224115   5.806   4.353  13.509  0.2361 -0.1923  0.0739
  875TIP3    H124116   5.829   4.298  13.584  0.8914  0.4750  0.3687
  875TIP3    H224117   5.872   4.332  13.443 -0.5772 -1.0814 -0.4856
  876TIP3   OH224118   1.660   5.174  13.116  0.3813 -0.2416  0.1659
  876TIP3    H124119   1.628   5.259  13.085  1.8271  0.6271  0.9463
  876TIP3    H224120   1.672   5.186  13.211  0.8407 -1.2243  0.2450
  877TIP3   OH224121   6.099   3.544   0.195  0.1774 -0.3486  0.8962
  877TIP3    H124122   6.187   3.519   0.226  1.1116  1.9250  0.2279
  877TIP3    H224123   6.053   3.570   0.275  1.0885  1.1516  0.9777
  878TIP3   OH224124   3.683   0.869   1.321 -0.0581 -0.0993  0.1921
  878TIP3    H124125   3.744   0.909   1.384  1.2452 -1.4358 -0.1662
  878TIP3    H224126   3.616   0.829   1.376  1.7818 -2.4293  0.9368
  879TIP3   OH224127   4.021   0.516  12.851 -0.6675  0.7566 -0.2426
  879TIP3    H124128   3.989   0.574  12.920 -0.1277 -0.9335  1.5372
  879TIP3    H224129   4.014   0.567  12.771 -0.4040  3.1739  1.1869
  880TIP3   OH224130   1.759   5.634   0.934 -0.1866 -0.4225  0.3136
  880TIP3    H124131   1.666   5.646   0.914 -0.0703 -1.0926 -0.6794
  880TIP3    H224132   1.791   5.723   0.951 -0.5651  0.0755 -1.3895
  881TIP3   OH224133   4.449   5.575   2.779  0.2882  0.2682  0.4508
  881TIP3    H124134   4.420   5.484   2.770 -1.1462  0.8469 -1.3851
  881TIP3    H224135   4.542   5.572   2.757  0.6141 -0.9387  1.8162
  882TIP3   OH224136   0.133   0.060   1.282 -0.2876  0.3256  0.5671
  882TIP3    H124137   0.195   0.133   1.277 -0.4228  0.3769 -0.4929
  882TIP3    H224138   0.080   0.068   1.203 -1.5184  0.1529  1.3347
  883TIP3   OH224139   0.377   4.135   5.941 -0.4405 -0.2629 -0.2665
  883TIP3    H124140   0.316   4.130   6.015 -1.0047  0.5266 -0.6675
  883TIP3    H224141   0.429   4.214   5.958  0.0309 -0.5649 -0.2731
  884TIP3   OH224142   3.611   0.282  12.340  0.2546 -0.3630  0.1912
  884TIP3    H124143   3.574   0.195  12.352 -0.1917 -0.2628 -0.3746
  884TIP3    H224144   3.702   0.275  12.368  0.0166 -0.8181  0.8598
  885TIP3   OH224145   2.739   0.918  11.932  0.0697 -0.3266 -0.0784
  885TIP3    H124146   2.678   0.990  11.946  0.0128 -0.2948 -0.4600
  885TIP3    H224147   2.824   0.960  11.917  0.0540 -0.3396 -0.2095
  886TIP3   OH224148   2.613   2.071  12.431  0.5334 -0.7292 -0.2787
  886TIP3    H124149   2.601   2.028  12.516  1.4804 -0.5507 -0.0491
  886TIP3    H224150   2.524   2.081  12.397  0.1492 -0.8767  0.6526
  887TIP3   OH224151   2.170   0.775  11.208  0.1733 -0.0079  0.2891
  887TIP3    H124152   2.098   0.782  11.145 -0.1187  0.9151  0.7010
  887TIP3    H224153   2.248   0.795  11.157  0.2176 -1.5825 -0.2887
  888TIP3   OH224154   0.854   0.412  15.996 -0.0568 -0.0455 -0.1516
  888TIP3    H124155   0.888   0.358  16.068 -0.6337  1.2918  1.1845
  888TIP3    H224156   0.792   0.355  15.951  0.8575 -1.1519 -0.0548
  889TIP3   OH224157   3.188   2.527   6.478  0.5030  0.6025  0.3148
  889TIP3    H124158   3.269   2.517   6.428  0.1360  0.8112 -0.3255
  889TIP3    H224159   3.209   2.592   6.545  2.0172 -1.9671  2.5963
  890TIP3   OH224160   2.973   3.156   3.804  0.2161 -0.0710 -0.4186
  890TIP3    H124161   2.951   3.208   3.726  0.4774 -0.0706 -0.4959
  890TIP3    H224162   2.985   3.067   3.770 -0.1604 -0.1671 -0.2978
  891TIP3   OH224163   5.932   4.815   0.325 -0.1698  0.0463 -0.0545
  891TIP3    H124164   5.944   4.840   0.416  1.4474 -0.0899 -0.1901
  891TIP3    H224165   5.944   4.720   0.325 -3.7068 -0.5451  0.0759
  892TIP3   OH224166   3.567   4.819  10.601 -0.6830 -0.1895  0.2043
  892TIP3    H124167   3.540   4.909  10.616  0.0620 -0.0793  0.9588
  892TIP3    H224168   3.549   4.804  10.508  3.1464  2.1984 -1.1696
  893TIP3   OH224169   2.973   2.961   2.648 -0.2461  0.2442 -0.2327
  893TIP3    H124170   3.048   2.975   2.706 -0.5277 -0.5811  0.3556
  893TIP3    H224171   2.899   3.000   2.694 -0.1939  1.0418 -0.8045
  894TIP3   OH224172   2.127   0.404  14.842  0.7136  0.0149  0.0374
  894TIP3    H124173   2.188   0.470  14.877 -0.4668  1.1670  0.0001
  894TIP3    H224174   2.130   0.418  14.747 -0.0452  0.4817  0.0785
  895TIP3   OH224175   1.234   4.149  12.590 -0.7414  0.2201  0.2067
  895TIP3    H124176   1.286   4.195  12.524 -0.1439  2.8138  2.3069
  895TIP3    H224177   1.146   4.146  12.553 -0.0308 -0.1949 -1.5220
  896TIP3   OH224178   0.872   1.134   1.142  0.4358 -0.4987 -0.2162
  896TIP3    H124179   0.840   1.222   1.160  3.6468  1.0799 -1.4348
  896TIP3    H224180   0.796   1.088   1.106 -1.7537  1.2033  1.8899
  897TIP3   OH224181   5.578   4.802   2.643  0.3454 -0.2124 -0.3643
  897TIP3    H124182   5.574   4.823   2.737  0.3886 -2.3349  0.1675
  897TIP3    H224183   5.652   4.852   2.610 -0.4561  1.5771  0.4256
  898TIP3   OH224184   1.254   6.580  16.923 -0.3316  0.3964  0.1553
  898TIP3    H124185   1.242   6.642  16.851 -2.2072 -1.2063 -1.0130
  898TIP3    H224186   1.190   6.607  16.988 -0.4356  0.3069  0.0907
  899TIP3   OH224187   2.761   4.239  16.599  0.5484 -0.4463  0.0860
  899TIP3    H124188   2.812   4.320  16.601  1.0119 -0.7405  1.8828
  899TIP3    H224189   2.800   4.184  16.667 -1.1118 -1.3408  0.3731
  900TIP3   OH224190   4.576   0.008  14.210 -0.1463  0.0537 -0.6568
  900TIP3    H124191   4.585   0.094  14.169  1.7131  0.3520  0.2586
  900TIP3    H224192   4.564  -0.052  14.137  1.4862  0.7486 -1.5460
  901TIP3   OH224193   4.596   1.228  16.698 -0.4947  0.1883 -0.1813
  901TIP3    H124194   4.582   1.149  16.646 -1.7003 -0.3146  0.8574
  901TIP3    H224195   4.679   1.214  16.743 -0.5280 -0.3268 -0.2833
  902TIP3   OH224196   5.239   2.869   2.320 -0.3835 -0.3488 -0.5304
  902TIP3    H124197   5.286   2.844   2.241  0.7700 -2.3058  0.6667
  902TIP3    H224198   5.200   2.787   2.351 -0.5096  0.2854  1.0918
  903TIP3   OH224199   4.021   4.030   1.240 -0.3991 -0.3649 -0.0100
  903TIP3    H124200   4.066   4.050   1.157 -0.1519  1.4170  0.4957
  903TIP3    H224201   4.092   4.024   1.304 -0.6020 -1.5634  0.1148
  904TIP3   OH224202   5.187   5.231   2.982 -0.0232  0.2424  0.6840
  904TIP3    H124203   5.239   5.249   2.903 -0.3282  0.1678  0.4636
  904TIP3    H224204   5.159   5.140   2.972 -0.3905  0.3529  0.6858
  905TIP3   OH224205   4.217   4.308   0.268  0.0075  0.2545  0.1660
  905TIP3    H124206   4.272   4.297   0.191  0.3490 -1.0490  0.5702
  905TIP3    H224207   4.128   4.298   0.236  0.1324  0.0084 -0.1018
  906TIP3   OH224208   3.572   2.046   5.093  0.6898 -0.0517 -0.2282
  906TIP3    H124209   3.487   2.038   5.050  0.5922  1.2276 -0.2868
  906TIP3    H224210   3.631   1.997   5.036  0.3405  0.6377 -1.2137
  907TIP3   OH224211   5.349   3.511  11.586  0.2894  0.7867 -0.1229
  907TIP3    H124212   5.413   3.503  11.515  0.8694 -2.4569  0.5802
  907TIP3    H224213   5.395   3.561  11.654  1.1760  0.6115 -0.5734
  908TIP3   OH224214   4.731   6.293   1.839 -0.4146  0.3674 -0.1754
  908TIP3    H124215   4.778   6.214   1.865  2.5305  1.8726 -0.4680
  908TIP3    H224216   4.761   6.311   1.750  0.3639  2.6970  0.4882
  909TIP3   OH224217   1.759   1.698   1.376  0.1650  0.1150 -0.0737
  909TIP3    H124218   1.844   1.742   1.379  0.2918 -0.0942 -0.5976
  909TIP3    H224219   1.759   1.641   1.453  0.3668  0.3594  0.1081
  910TIP3   OH224220   2.157   5.994  10.832  0.3043 -0.2168  0.1012
  910TIP3    H124221   2.115   5.909  10.815 -1.9617  0.8212  0.1053
  910TIP3    H224222   2.160   6.000  10.928  1.6771 -0.8043  0.1204
  911TIP3   OH224223   4.857   4.836  15.559 -0.0580 -0.3655  0.2468
  911TIP3    H124224   4.791   4.865  15.622  0.5487 -0.7859  1.1011
  911TIP3    H224225   4.896   4.916  15.526 -0.3573 -0.1374  0.4416
  912TIP3   OH224226   4.646   2.666  11.346 -0.0282  0.2213 -0.1291
  912TIP3    H124227   4.681   2.745  11.305  1.4054  0.4499  1.4486
  912TIP3    H224228   4.673   2.594  11.288 -2.2094  0.8976 -2.1234
  913TIP3   OH224229   6.391   1.892  13.152 -0.0301  0.4717  0.4741
  913TIP3    H124230   6.330   1.824  13.122 -0.4192  1.0429 -0.0400
  913TIP3    H224231   6.343   1.974  13.141  0.1710  0.7829  1.7763
  914TIP3   OH224232   6.437   1.124  13.815  0.6383 -0.1581 -0.4717
  914TIP3    H124233   6.390   1.131  13.898 -1.2354 -0.4780 -1.4274
  914TIP3    H224234   6.516   1.074  13.835  0.5715  0.3654  1.2226
  915TIP3   OH224235   1.379   3.461   2.685 -0.5333 -0.1919 -0.0402
  915TIP3    H124236   1.333   3.381   2.659 -1.3796 -0.3706  1.7714
  915TIP3    H224237   1.469   3.433   2.702  0.2828  0.0985 -3.3374
  916TIP3   OH224238   4.190   3.345   0.615 -0.7140 -0.4043 -0.5042
  916TIP3    H124239   4.172   3.421   0.560  1.0853  1.1523  0.8927
  916TIP3    H224240   4.271   3.308   0.578  0.2596  0.3931  0.7347
  917TIP3   OH224241   0.500   4.487  12.502  0.5199 -0.2325  0.3370
  917TIP3    H124242   0.410   4.458  12.488 -0.2011  1.8427  0.2001
  917TIP3    H224243   0.492   4.558  12.567  2.0134  0.1830  0.1085
  918TIP3   OH224244   3.589   4.516  11.426 -0.4633 -0.0007 -0.1309
  918TIP3    H124245   3.545   4.601  11.418 -0.8019 -0.2480 -1.0030
  918TIP3    H224246   3.681   4.538  11.441 -0.4589  0.5236 -0.8899
  919TIP3   OH224247   0.108   5.703   3.594 -0.0413  0.3458 -0.4593
  919TIP3    H124248   0.083   5.688   3.503 -1.4018  1.0562 -0.2289
  919TIP3    H224249   0.178   5.640   3.610  0.3428  0.3139 -2.0376
  920TIP3   OH224250   3.620   2.895  13.526  0.4539 -0.6593 -0.9774
  920TIP3    H124251   3.550   2.961  13.526 -0.2323 -1.2635  2.1560
  920TIP3    H224252   3.698   2.944  13.501 -0.7108  0.4048 -2.8042
  921TIP3   OH224253   2.781   4.172   2.747 -0.4068 -0.1049 -0.1459
  921TIP3    H124254   2.775   4.267   2.743 -3.0287 -0.2337 -0.9366
  921TIP3    H224255   2.692   4.142   2.764  0.2688 -2.4576 -0.3004
  922TIP3   OH224256   1.005   1.889   1.052  0.2916 -0.7005 -0.3285
  922TIP3    H124257   0.979   1.944   1.126  1.5703  0.1148 -0.4610
  922TIP3    H224258   0.923   1.848   1.024 -0.3577 -0.4050  1.0184
  923TIP3   OH224259   0.347   3.736   5.984  0.0801  0.7857 -0.2604
  923TIP3    H124260   0.356   3.685   6.064  1.5309 -0.7969 -1.3531
  923TIP3    H224261   0.254   3.736   5.965 -0.2492  0.9193  1.2376
  924TIP3   OH224262   3.914   5.737   6.188 -0.0938 -0.4757 -0.2322
  924TIP3    H124263   3.821   5.738   6.212 -0.2680 -1.1719 -0.8358
  924TIP3    H224264   3.927   5.821   6.143 -0.7046 -0.8158 -1.0831
  925TIP3   OH224265   5.656   3.004  11.229  0.2389  0.1569 -0.7664
  925TIP3    H124266   5.750   3.005  11.245  0.3850 -2.2892 -1.1398
  925TIP3    H224267   5.632   2.911  11.229 -2.3521  0.7439  0.2702
  926TIP3   OH224268   4.459   0.772   2.381 -0.3955 -0.4991  0.2767
  926TIP3    H124269   4.457   0.761   2.476  1.1709 -0.4829  0.3440
  926TIP3    H224270   4.461   0.683   2.346 -2.3037 -0.5392  0.1687
  927TIP3   OH224271   5.834   4.952   5.645  0.1758  0.1783 -0.2718
  927TIP3    H124272   5.783   4.872   5.630 -1.1924  0.3563  2.7685
  927TIP3    H224273   5.777   5.007   5.698  2.2853  1.8778  0.3486
  928TIP3   OH224274   6.125   6.359  13.360 -0.0266 -0.5562  0.4430
  928TIP3    H124275   6.044   6.315  13.385  0.6411 -0.6071  2.7274
  928TIP3    H224276   6.192   6.291  13.364  0.5420  0.0287  1.1484
  929TIP3   OH224277   2.437   5.050  10.779 -0.5186 -0.1378  0.1185
  929TIP3    H124278   2.457   4.974  10.723 -0.3974  0.1476 -0.2282
  929TIP3    H224279   2.519   5.071  10.823 -0.6119 -0.3571  0.4009
  930TIP3   OH224280   4.447   0.421   3.107 -0.0249  0.1263  0.2412
  930TIP3    H124281   4.530   0.459   3.137  1.2977 -2.4995  0.2561
  930TIP3    H224282   4.466   0.387   3.020 -1.2278 -0.1255  0.0607
  931TIP3   OH224283   2.921   6.414  14.661 -0.1636  0.1112  0.0414
  931TIP3    H124284   2.863   6.392  14.734 -0.0247 -0.3343  0.0238
  931TIP3    H224285   2.995   6.354  14.672  0.1605  0.4877 -0.0932
  932TIP3   OH224286   0.894   2.824  14.143 -0.1796  0.3175 -0.3338
  932TIP3    H124287   0.859   2.912  14.135  1.2885  1.0931  1.1442
  932TIP3    H224288   0.982   2.836  14.180 -0.2195 -1.7935  0.6005
  933TIP3   OH224289   4.117   0.037  12.684 -0.1279  0.1764 -0.3029
  933TIP3    H124290   4.063  -0.042  12.683 -0.5447  0.3903  1.7241
  933TIP3    H224291   4.057   0.107  12.712  1.1944  0.3431  2.4208
  934TIP3   OH224292   2.394   2.892  13.935  0.2750 -0.4755 -0.8613
  934TIP3    H124293   2.304   2.911  13.908 -1.1523 -2.0014  2.2891
  934TIP3    H224294   2.429   2.977  13.963  0.0362  0.2151 -2.5872
  935TIP3   OH224295   1.279   3.756   3.076 -0.6073 -0.4736 -0.2229
  935TIP3    H124296   1.308   3.717   3.159  0.6115 -0.6039 -0.6861
  935TIP3    H224297   1.357   3.798   3.041 -1.1709 -0.1939 -1.1853
  936TIP3   OH224298   1.508   1.014   3.396 -0.1348  0.1706 -0.1996
  936TIP3    H124299   1.448   1.085   3.372 -0.7808  0.0400  0.9346
  936TIP3    H224300   1.544   0.984   3.312  1.5680  2.9930 -0.6060
  937TIP3   OH224301   4.944   6.738   2.117 -0.3080 -0.4186  0.2669
  937TIP3    H124302   4.980   6.798   2.182 -0.0030 -0.0452 -0.2432
  937TIP3    H224303   4.856   6.772   2.100 -0.0237  0.0683 -0.2489
  938TIP3   OH224304   4.250   0.318  16.774 -0.4253 -0.3533 -0.2485
  938TIP3    H124305   4.216   0.229  16.762 -2.5049  0.3425  0.2024
  938TIP3    H224306   4.225   0.364  16.694  1.4561 -0.3607 -0.8926
  939TIP3   OH224307   2.974   0.472   1.463  0.0698 -0.0396  0.0229
  939TIP3    H124308   2.936   0.558   1.440  1.7711  0.3449 -1.6112
  939TIP3    H224309   2.974   0.471   1.558  2.6766  3.1270  0.2255
  940TIP3   OH224310   0.392   2.138   2.408  0.5231  0.2519  0.2038
  940TIP3    H124311   0.448   2.074   2.451 -1.5286 -0.1307  2.5092
  940TIP3    H224312   0.314   2.089   2.381  0.3346  1.1556 -0.9876
  941TIP3   OH224313   2.223   3.885  17.006 -0.3042  0.3678  0.4685
  941TIP3    H124314   2.294   3.861  16.946 -0.9553 -0.2586 -0.0577
  941TIP3    H224315   2.160   3.931  16.951 -1.6534 -1.5758  0.2972
  942TIP3   OH224316   0.512   6.327   0.429 -0.8680 -0.1626  0.1196
  942TIP3    H124317   0.427   6.286   0.443 -0.9153  0.3102  1.3760
  942TIP3    H224318   0.576   6.261   0.456 -0.8623 -0.3336 -0.3229
  943TIP3   OH224319   6.098   5.637  15.548 -0.0622 -0.1929 -0.2951
  943TIP3    H124320   6.054   5.663  15.629 -0.4102 -0.6563 -0.3322
  943TIP3    H224321   6.179   5.687  15.548  0.7136 -1.3862  1.1506
  944TIP3   OH224322   5.575   4.415   3.618 -0.0331 -0.1355 -0.5795
  944TIP3    H124323   5.656   4.456   3.648  0.0902  0.4486 -1.6585
  944TIP3    H224324   5.599   4.323   3.603  0.1596 -0.1992  0.0817
  945TIP3   OH224325   6.430   5.081   1.435 -0.4042 -0.2846  0.4553
  945TIP3    H124326   6.450   5.005   1.380  0.1085  0.5655 -0.5747
  945TIP3    H224327   6.335   5.079   1.445 -0.6196 -0.0273 -1.1553
  946TIP3   OH224328   4.624   5.993   4.905  0.1925  0.0214  0.3432
  946TIP3    H124329   4.611   6.086   4.923 -1.7896 -0.2913  0.7098
  946TIP3    H224330   4.538   5.953   4.917  1.0239 -1.9004  0.3559
  947TIP3   OH224331   2.762   3.926  12.836  0.1054  0.3644  0.2622
  947TIP3    H124332   2.729   3.991  12.773  1.0034  0.6320  0.0608
  947TIP3    H224333   2.784   3.850  12.783 -2.8002 -0.9376  0.6850
  948TIP3   OH224334   3.462   3.192  11.496  0.7594  0.1222  0.3016
  948TIP3    H124335   3.476   3.148  11.412 -0.9338 -2.1393  1.0989
  948TIP3    H224336   3.534   3.162  11.551  0.5258 -0.3481  0.3550
  949TIP3   OH224337   2.544   0.215   4.244  0.7732 -0.1056 -0.2067
  949TIP3    H124338   2.550   0.214   4.339  0.0838  2.0618 -0.0760
  949TIP3    H224339   2.459   0.257   4.226  0.8403 -0.5865 -1.7682
  950TIP3   OH224340   4.269   4.126   2.103  0.2360 -0.5795  0.0260
  950TIP3    H124341   4.245   4.214   2.072  0.4248  0.1799  1.8737
  950TIP3    H224342   4.302   4.081   2.026  2.2628  1.7469 -0.5777
  951TIP3   OH224343   6.226   3.038  16.698  0.3775  0.4851 -0.2545
  951TIP3    H124344   6.293   3.095  16.659  0.5044 -0.1820 -1.0290
  951TIP3    H224345   6.161   3.027  16.629 -1.0304  1.8514  0.7692
  952TIP3   OH224346   5.600   2.044   2.679 -0.0367  0.0200 -0.3610
  952TIP3    H124347   5.684   2.040   2.726  0.0150 -0.1638 -0.4706
  952TIP3    H224348   5.562   1.957   2.690 -1.2740  0.7428  1.6422
  953TIP3   OH224349   3.108   3.473  13.720  0.2302 -0.2232  0.1865
  953TIP3    H124350   3.163   3.485  13.643  0.1379  0.6021  0.2353
  953TIP3    H224351   3.061   3.391  13.705 -0.0942  0.1377 -0.8235
  954TIP3   OH224352   3.655   1.755   0.070 -0.8510  0.6780 -0.1589
  954TIP3    H124353   3.600   1.744  -0.008 -1.4212  0.7256  0.2286
  954TIP3    H224354   3.612   1.825   0.120 -2.0958 -1.2170  1.5753
  955TIP3   OH224355   3.195   1.967   0.741 -0.5422 -0.0610  0.2545
  955TIP3    H124356   3.238   1.883   0.723 -0.5806  0.4675 -2.6695
  955TIP3    H224357   3.102   1.951   0.723 -0.9330  0.0365  2.0063
  956TIP3   OH224358   5.994   4.554   1.078 -0.0314  0.2425  0.0422
  956TIP3    H124359   5.937   4.630   1.087  0.1807  0.4909 -0.6530
  956TIP3    H224360   5.935   4.479   1.086 -0.3254  0.4865  0.1885
  957TIP3   OH224361   0.850   6.374   1.338 -0.0050  0.0507 -0.2116
  957TIP3    H124362   0.883   6.331   1.417 -0.0686 -1.0452 -0.7536
  957TIP3    H224363   0.929   6.403   1.291  0.0022  2.6541  1.2358
  958TIP3   OH224364   0.241   6.588   3.784  0.4869  0.3637  0.0578
  958TIP3    H124365   0.206   6.634   3.708  0.8590  0.8928  0.1964
  958TIP3    H224366   0.304   6.525   3.748 -0.5728 -0.5858 -0.1897
  959TIP3   OH224367   5.373   0.308   0.905  0.2896  0.0553 -0.2860
  959TIP3    H124368   5.376   0.277   0.814 -0.4309  1.3229 -0.7572
  959TIP3    H224369   5.287   0.350   0.914  1.1842  1.8436  0.3393
  960TIP3   OH224370   5.286   4.454  12.277  0.6970 -0.4456  0.5354
  960TIP3    H124371   5.250   4.398  12.346  0.4981 -1.7473 -0.5877
  960TIP3    H224372   5.209   4.484  12.228  0.9255 -0.6934  0.0198
  961TIP3   OH224373   0.628   1.310  11.670 -0.0443  0.3657 -0.0431
  961TIP3    H124374   0.567   1.322  11.597  1.5024  1.5774 -1.2103
  961TIP3    H224375   0.640   1.215  11.675 -3.1102 -0.0631  1.2403
  962TIP3   OH224376   1.753   1.755  12.963 -0.1721  0.3271 -0.1963
  962TIP3    H124377   1.757   1.840  12.919  0.3583  1.7739  2.4043
  962TIP3    H224378   1.671   1.716  12.933 -0.4432  1.7710 -1.4540
  963TIP3   OH224379   3.420   1.976  14.050  0.1421 -0.5364 -0.1702
  963TIP3    H124380   3.417   1.901  14.110 -1.8066  0.1131  0.6100
  963TIP3    H224381   3.345   1.963  13.992  0.7088  0.0117 -1.0435
  964TIP3   OH224382   3.691   6.373  11.095 -0.6327  0.4315 -0.0720
  964TIP3    H124383   3.606   6.417  11.090 -0.7669  0.3106  1.0062
  964TIP3    H224384   3.713   6.355  11.003 -0.8347  2.2152 -0.5239
  965TIP3   OH224385   4.328   6.033   4.694  0.1080 -0.0504  0.2307
  965TIP3    H124386   4.331   5.959   4.754 -0.7622  0.3682  0.8135
  965TIP3    H224387   4.241   6.027   4.654  0.2187  0.3772 -0.0776
  966TIP3   OH224388   5.802   2.129  11.339 -0.0595  0.0523  0.4493
  966TIP3    H124389   5.840   2.211  11.308  0.2584 -0.2899 -0.0877
  966TIP3    H224390   5.859   2.103  11.412  0.0459  0.1342  0.3982
  967TIP3   OH224391   5.100   3.130  11.144  0.0107 -0.2898 -0.3132
  967TIP3    H124392   5.151   3.210  11.155 -1.5470  0.5911  0.9056
  967TIP3    H224393   5.140   3.067  11.204 -0.0536  0.2523  0.3035
  968TIP3   OH224394   4.317   4.213  14.013 -0.2155  0.7997  0.7552
  968TIP3    H124395   4.235   4.201  13.966  0.2550 -0.3215  0.2074
  968TIP3    H224396   4.356   4.292  13.974  0.6148 -0.6240 -1.4360
  969TIP3   OH224397   4.300   3.094   0.087 -0.0098  0.0461 -0.8195
  969TIP3    H124398   4.377   3.061   0.041  0.3096 -2.5765  1.3048
  969TIP3    H224399   4.333   3.161   0.146  0.0188  1.4152 -2.3381
  970TIP3   OH224400   5.684   5.224   4.219 -0.4193  0.0294  0.0946
  970TIP3    H124401   5.724   5.140   4.195 -0.3766 -0.4518  1.7481
  970TIP3    H224402   5.603   5.228   4.168  0.1057 -0.5107 -0.8046
  971TIP3   OH224403   3.927   4.303  16.247  0.7563  0.1552  0.2838
  971TIP3    H124404   3.865   4.239  16.212  1.8354 -0.8942  0.2196
  971TIP3    H224405   3.929   4.373  16.182 -0.2594  0.1467  0.2338
  972TIP3   OH224406   3.229   2.892   4.047 -0.2739  0.2411  0.2706
  972TIP3    H124407   3.188   2.812   4.079  0.1683  0.0533  0.3759
  972TIP3    H224408   3.158   2.956   4.044 -0.8990 -0.4857 -1.0126
  973TIP3   OH224409   0.987   6.810  12.534  0.2864 -0.5412 -0.5355
  973TIP3    H124410   0.934   6.819  12.455 -1.4546 -1.3879  0.4787
  973TIP3    H224411   0.965   6.886  12.587  0.3530 -0.7175 -0.2505
  974TIP3   OH224412   2.400   6.171   0.320  0.1271  0.2760 -0.3571
  974TIP3    H124413   2.445   6.143   0.399  0.5810  1.0331 -0.3398
  974TIP3    H224414   2.383   6.090   0.272 -0.3366 -0.2045  0.6044
  975TIP3   OH224415   0.692   1.233   5.601  0.2074 -0.1888  0.3165
  975TIP3    H124416   0.766   1.195   5.555  1.1470  2.2842 -0.3689
  975TIP3    H224417   0.726   1.314   5.639 -1.2691 -0.7020  3.0048
  976TIP3   OH224418   4.353   5.739  11.545 -0.0547  0.6473 -0.0017
  976TIP3    H124419   4.297   5.784  11.608 -0.7018 -1.0234  0.6977
  976TIP3    H224420   4.390   5.665  11.594  1.4899  0.7854 -0.8986
  977TIP3   OH224421   6.065   6.577  13.722 -0.3073  0.6188  0.2109
  977TIP3    H124422   6.030   6.628  13.795  0.2802  0.7083  0.4366
  977TIP3    H224423   6.088   6.493  13.760  2.8562  1.6368  0.8813
  978TIP3   OH224424   4.517   0.588   5.335 -0.1280 -0.8349  0.0753
  978TIP3    H124425   4.438   0.581   5.389  1.2571 -2.0912  2.0666
  978TIP3    H224426   4.562   0.666   5.369 -0.9204  0.4843 -1.7307
  979TIP3   OH224427   6.247   4.362   1.970  0.1580  0.0560 -0.2337
  979TIP3    H124428   6.317   4.410   2.013  0.2117 -0.8179  0.6838
  979TIP3    H224429   6.170   4.419   1.978 -0.0715 -0.4847  1.9047
  980TIP3   OH224430   1.740   4.060  14.875  0.1410  1.0999  0.3162
  980TIP3    H124431   1.661   4.047  14.823 -0.3606 -1.1297  1.5191
  980TIP3    H224432   1.710   4.056  14.966  1.1516  3.8646  0.8621
  981TIP3   OH224433   6.006   0.316  12.453 -0.2808  0.2718 -0.5184
  981TIP3    H124434   6.021   0.270  12.371  0.0999 -0.0479 -0.2762
  981TIP3    H224435   5.941   0.263  12.499 -1.2833  1.0090 -1.0506
  982TIP3   OH224436   5.260   5.738  14.258  0.0516 -0.4179 -0.6344
  982TIP3    H124437   5.181   5.791  14.257  1.3518  1.6427 -0.0134
  982TIP3    H224438   5.245   5.673  14.327 -0.1650  1.5197  1.2320
  983TIP3   OH224439   1.458   2.617   1.071 -0.0081  0.5962 -0.5281
  983TIP3    H124440   1.527   2.554   1.048  0.4550  0.7980  0.2655
  983TIP3    H224441   1.383   2.591   1.017  1.0712  1.1663 -2.3965
  984TIP3   OH224442   6.555   6.189  13.627  0.2167  0.0291  0.6317
  984TIP3    H124443   6.486   6.191  13.692 -0.3785  0.3560  0.0063
  984TIP3    H224444   6.511   6.168  13.545  0.4365  2.5651 -0.2421
  985TIP3   OH224445   2.032   6.348   1.919 -0.3367  1.2822 -0.7190
  985TIP3    H124446   2.120   6.338   1.883  0.4884  2.1285  0.9595
  985TIP3    H224447   2.017   6.267   1.967  0.3929  1.9627  0.7047
  986TIP3   OH224448   6.182   0.461  15.842 -0.1825 -0.3189 -0.2314
  986TIP3    H124449   6.236   0.469  15.763  0.7611  0.7029  0.4858
  986TIP3    H224450   6.126   0.385  15.825  1.5750 -1.5365 -0.9643
  987TIP3   OH224451   5.948   2.857  15.550  0.3949  0.2953 -0.2163
  987TIP3    H124452   5.898   2.908  15.486 -1.2990 -1.0010 -0.0062
  987TIP3    H224453   5.996   2.793  15.497 -1.1003 -0.8569 -0.2675
  988TIP3   OH224454   3.546   6.399  13.601 -0.0940 -0.0150  0.2265
  988TIP3    H124455   3.496   6.457  13.544 -0.3348 -0.2248  0.2195
  988TIP3    H224456   3.486   6.379  13.673  1.4276  3.3424  2.7127
  989TIP3   OH224457   5.523   1.742   1.411 -0.1768  0.2625  0.2020
  989TIP3    H124458   5.489   1.741   1.322  0.1379  1.5672  0.0542
  989TIP3    H224459   5.608   1.787   1.404 -0.5402  1.1443  1.2821
  990TIP3   OH224460   0.505   4.246  11.927 -0.5085  0.4113 -0.5701
  990TIP3    H124461   0.592   4.253  11.966 -0.6285  0.9340 -0.3795
  990TIP3    H224462   0.446   4.282  11.994 -1.0222 -1.0342 -0.2086
  991TIP3   OH224463   4.792   5.911   4.339 -0.3725  0.0074 -0.3546
  991TIP3    H124464   4.716   5.897   4.283 -2.3275  1.2025  1.8057
  991TIP3    H224465   4.760   5.969   4.408  2.1760 -0.4725  1.3630
  992TIP3   OH224466   6.523   2.518  16.128  0.5079 -0.3295 -0.1586
  992TIP3    H124467   6.572   2.594  16.159  2.3791 -0.8840 -1.5746
  992TIP3    H224468   6.526   2.456  16.201 -2.3609  1.3859  1.6229
  993TIP3   OH224469   2.650   0.897   4.638  0.1908 -0.0616 -0.2072
  993TIP3    H124470   2.684   0.981   4.606 -1.6383  0.5389 -0.6598
  993TIP3    H224471   2.708   0.832   4.598  0.9775  0.9200 -0.7192
  994TIP3   OH224472   1.658   6.313   3.766 -0.0300  0.2626 -0.2654
  994TIP3    H124473   1.593   6.317   3.836  0.4785  0.1288  0.2218
  994TIP3    H224474   1.619   6.254   3.701 -0.4983  0.3738 -0.0938
  995TIP3   OH224475   2.946   2.243  14.066  0.0163  0.1032  0.4963
  995TIP3    H124476   3.016   2.290  14.112 -1.6576  1.9790  1.2919
  995TIP3    H224477   2.931   2.165  14.119  2.1446 -0.9070 -0.2613
  996TIP3   OH224478   2.607   1.630   4.538  0.3660 -0.0379  0.0999
  996TIP3    H124479   2.600   1.723   4.558  1.7878 -0.0191  0.6026
  996TIP3    H224480   2.523   1.594   4.566 -0.3575  1.1353 -0.4540
  997TIP3   OH224481   2.932   1.399   5.578 -0.2797 -0.3033 -0.2435
  997TIP3    H124482   2.932   1.313   5.619 -1.7054  0.0181  0.4844
  997TIP3    H224483   2.874   1.391   5.503 -1.2098  0.2636  0.3975
  998TIP3   OH224484   3.911   5.313   4.055  0.2383  0.5233  0.0727
  998TIP3    H124485   3.913   5.339   3.963  0.0255 -0.4271 -0.2103
  998TIP3    H224486   3.893   5.394   4.103  1.1811  1.1835 -0.6510
  999TIP3   OH224487   3.231   5.945  15.777 -0.0829 -0.3841 -0.3058
  999TIP3    H124488   3.206   5.892  15.701 -1.2037 -2.4754  1.4304
  999TIP3    H224489   3.150   5.956  15.826  0.7082  0.5760  0.8278
 1000TIP3   OH224490   0.717   0.178   5.964  0.5749 -0.2736 -0.1043
 1000TIP3    H124491   0.711   0.247   5.898 -0.7760 -0.3815 -0.1271
 1000TIP3    H224492   0.762   0.218   6.038  2.8118 -0.3618 -1.3272
 1001TIP3   OH224493   4.309   6.820   3.602  0.6494  0.2488 -0.3494
 1001TIP3    H124494   4.397   6.853   3.582  0.3779  1.1774 -0.0290
 1001TIP3    H224495   4.289   6.855   3.689 -0.2458  0.4638 -0.6353
 1002TIP3   OH224496   1.902   1.592   5.205  0.6197  0.3576  0.4208
 1002TIP3    H124497   1.937   1.505   5.225 -0.3404 -0.2224 -0.3406
 1002TIP3    H224498   1.821   1.598   5.255  1.1830  1.2397  1.2733
 1003TIP3   OH224499   6.455   5.785   0.351 -0.0145 -0.9593 -0.1094
 1003TIP3    H124500   6.367   5.777   0.314 -0.3818 -1.5718  0.8508
 1003TIP3    H224501   6.511   5.803   0.276 -1.2476  1.7606 -0.5203
 1004TIP3   OH224502   4.888   3.932   5.577 -0.3725  0.3152 -0.0340
 1004TIP3    H124503   4.973   3.898   5.602 -1.3418 -1.3087  1.2667
 1004TIP3    H224504   4.829   3.857   5.585 -1.9095  1.3643 -1.0010
 1005TIP3   OH224505   3.225   0.407   5.892 -0.4649  0.0061 -0.1935
 1005TIP3    H124506   3.146   0.358   5.914 -0.8892  0.2950 -1.0381
 1005TIP3    H224507   3.200   0.499   5.900 -0.2132  0.1014 -0.4647
 1006TIP3   OH224508   3.021   5.156  13.173  0.1252 -0.1313  0.1478
 1006TIP3    H124509   3.026   5.085  13.110 -0.2732 -1.1981  1.2787
 1006TIP3    H224510   2.936   5.146  13.215  0.7856 -0.0798  1.5640
 1007TIP3   OH224511   4.714   3.330  13.018 -0.1614 -0.6089  0.1418
 1007TIP3    H124512   4.692   3.424  13.018  1.1092 -0.2889 -0.7497
 1007TIP3    H224513   4.664   3.294  13.091 -0.7620  0.7481  0.4320
 1008TIP3   OH224514   5.352   3.991   1.195 -0.4042 -0.0361 -0.2852
 1008TIP3    H124515   5.261   4.013   1.217 -0.9774 -0.7015 -1.8399
 1008TIP3    H224516   5.361   4.017   1.103  0.8813 -0.3155 -0.2543
 1009TIP3   OH224517   1.959   4.903   2.934  0.0195 -0.3552  0.2093
 1009TIP3    H124518   1.935   4.979   2.881 -2.9130 -1.1063  0.2789
 1009TIP3    H224519   1.941   4.930   3.024  1.0312 -0.4346  0.4390
 1010TIP3   OH224520   3.998   4.982   6.102  0.1596 -0.4562  0.2719
 1010TIP3    H124521   3.925   4.948   6.154 -0.4645 -1.3106 -1.1242
 1010TIP3    H224522   3.975   5.074   6.087 -0.1224 -0.4578  0.6730
 1011TIP3   OH224523   2.507   1.000   5.626 -0.2630 -0.3470 -0.0677
 1011TIP3    H124524   2.531   1.079   5.675 -1.4834 -0.4521  0.7173
 1011TIP3    H224525   2.540   0.928   5.679 -0.0501 -0.4068 -0.2795
 1012TIP3   OH224526   0.477   1.383   1.752 -0.0175 -0.2602  0.0076
 1012TIP3    H124527   0.545   1.316   1.749  0.0424 -0.5080  3.3317
 1012TIP3    H224528   0.396   1.334   1.761 -0.0290  0.0140  1.8215
 1013TIP3   OH224529   5.707   5.205  13.630  0.0830  0.0548 -0.5238
 1013TIP3    H124530   5.787   5.198  13.579  0.5363 -2.0860  0.3745
 1013TIP3    H224531   5.649   5.138  13.595 -0.1062 -0.5342  0.8245
 1014TIP3   OH224532   6.616   2.302   6.599  0.3497  0.1766  0.0256
 1014TIP3    H124533   6.631   2.379   6.655 -0.8637 -0.5934  1.4989
 1014TIP3    H224534   6.704   2.266   6.584  0.9886  2.0260 -1.0309
 1015TIP3   OH224535   0.642   1.190   6.144  0.5068  0.0614  0.1484
 1015TIP3    H124536   0.602   1.275   6.127  0.0171 -0.1467  0.2088
 1015TIP3    H224537   0.718   1.186   6.087  0.2952  0.3759 -0.1589
 1016TIP3   OH224538   6.458   3.021   3.717 -0.7490  0.5084 -0.5130
 1016TIP3    H124539   6.422   2.975   3.641 -1.0905 -0.2857  0.1072
 1016TIP3    H224540   6.399   2.998   3.789  1.3243 -1.4812  0.7193
 1017TIP3   OH224541   4.032   2.587  12.134 -0.1263  0.3121  1.0424
 1017TIP3    H124542   3.943   2.616  12.150 -1.0165 -1.8450  0.3352
 1017TIP3    H224543   4.024   2.494  12.112  2.1632  0.3626 -0.3589
 1018TIP3   OH224544   2.500   0.776  14.589  0.1256  0.4982  0.4670
 1018TIP3    H124545   2.515   0.688  14.623  1.0244  0.7644  0.7792
 1018TIP3    H224546   2.578   0.826  14.614 -0.0830  1.2193 -0.2554
 1019TIP3   OH224547   4.985   4.692  12.297 -0.3741  0.4607 -0.0971
 1019TIP3    H124548   5.039   4.759  12.340  1.6122 -1.4622  0.5440
 1019TIP3    H224549   5.002   4.612  12.346 -2.5924 -0.6098 -0.9251
 1020TIP3   OH224550   4.478   1.921  14.861  0.7677 -0.0907 -0.3724
 1020TIP3    H124551   4.392   1.964  14.867  0.3963 -0.9396  0.7418
 1020TIP3    H224552   4.480   1.883  14.773 -1.1308 -2.2818  0.4287
 1021TIP3   OH224553   1.190   0.617   3.858  0.1665  0.4207  0.5429
 1021TIP3    H124554   1.241   0.661   3.926 -0.0320 -0.1559  1.0731
 1021TIP3    H224555   1.103   0.656   3.865  0.2122  0.5386  0.4538
 1022TIP3   OH224556   3.340   0.732  11.392 -0.1877  0.1286 -0.5044
 1022TIP3    H124557   3.355   0.788  11.468 -0.4693 -2.0202  1.2604
 1022TIP3    H224558   3.423   0.687  11.378 -0.2339  0.2713 -1.2627
 1023TIP3   OH224559   5.130   2.108  15.900  0.0443 -0.5297  0.3537
 1023TIP3    H124560   5.131   2.038  15.966  0.9837 -1.8270 -0.9759
 1023TIP3    H224561   5.183   2.074  15.828  2.2277  2.3316  0.4085
 1024TIP3   OH224562   2.519   6.800   4.493 -0.5801 -0.5362  0.3506
 1024TIP3    H124563   2.451   6.822   4.429 -0.7779  0.6931  0.9534
 1024TIP3    H224564   2.537   6.883   4.538  0.8526 -0.9897  0.6522
 1025TIP3   OH224565   0.636   1.357  15.129 -0.0071  0.2521  0.1309
 1025TIP3    H124566   0.581   1.387  15.057  0.5839 -1.9091 -1.3118
 1025TIP3    H224567   0.577   1.356  15.205 -0.8255  1.9177 -0.4322
 1026TIP3   OH224568   5.395   4.210  15.076 -0.2237 -0.5587 -0.0138
 1026TIP3    H124569   5.342   4.187  14.999 -0.2275  0.9294 -0.4945
 1026TIP3    H224570   5.480   4.234  15.041  0.1666 -1.0383  0.5795
 1027TIP3   OH224571   6.455   6.355  15.884  0.4493 -0.6994  0.3025
 1027TIP3    H124572   6.474   6.261  15.885 -0.2316 -0.8653  2.6025
 1027TIP3    H224573   6.536   6.396  15.916  0.3931 -0.5751  0.2860
 1028TIP3   OH224574   1.781   2.606  12.545 -0.1335 -0.5472  0.2251
 1028TIP3    H124575   1.701   2.630  12.497 -0.4666  0.3989  1.2122
 1028TIP3    H224576   1.848   2.599  12.477 -0.2298  2.2610 -0.3105
 1029TIP3   OH224577   3.756   4.952  12.633  0.6612 -0.1248 -0.0578
 1029TIP3    H124578   3.707   4.877  12.599 -1.0126  1.2362 -0.8179
 1029TIP3    H224579   3.841   4.916  12.659 -0.2017 -2.3214 -0.0839
 1030TIP3   OH224580   2.946   4.138   6.101 -0.4188 -0.0157 -0.0699
 1030TIP3    H124581   2.956   4.207   6.036 -1.0187  1.1384  1.0255
 1030TIP3    H224582   2.925   4.184   6.182 -2.0149 -1.5301  0.4379
 1031TIP3   OH224583   4.075   5.598   5.433  0.1201  0.3080  0.1492
 1031TIP3    H124584   4.020   5.547   5.493 -0.1701  0.5744  0.1127
 1031TIP3    H224585   4.033   5.587   5.348 -1.0125  2.0918  0.4422
 1032TIP3   OH224586   2.156   6.043   0.357 -0.1777  0.5714  0.2750
 1032TIP3    H124587   2.067   6.067   0.334 -1.6412 -3.3611  0.9788
 1032TIP3    H224588   2.184   6.109   0.421 -2.3777  2.1159 -0.2591
 1033TIP3   OH224589   6.646   3.641   4.211 -0.2084  0.1968  0.7178
 1033TIP3    H124590   6.738   3.614   4.211 -0.4907 -1.0970 -1.9340
 1033TIP3    H224591   6.599   3.566   4.175 -1.8880  1.9840 -1.0211
 1034TIP3   OH224592   0.401   2.997   2.567 -0.4412  0.6650  0.6288
 1034TIP3    H124593   0.339   2.935   2.528 -1.8298  1.2796  1.7802
 1034TIP3    H224594   0.415   2.964   2.656  2.0015 -0.2296  0.0048
 1035TIP3   OH224595   2.395   3.100  16.579 -0.0626  0.1915  0.0161
 1035TIP3    H124596   2.379   3.127  16.488 -0.3855  0.5653  0.1824
 1035TIP3    H224597   2.415   3.182  16.624 -0.9627  0.1461  0.5087
 1036TIP3   OH224598   3.915   5.183  16.441  0.3989  0.1630  0.1796
 1036TIP3    H124599   3.923   5.146  16.353 -1.6090 -1.4753  0.6258
 1036TIP3    H224600   4.000   5.166  16.482  0.5230 -1.3175 -0.6198
 1037TIP3   OH224601   4.641   2.525  13.587  0.0385  0.3408 -0.3805
 1037TIP3    H124602   4.710   2.563  13.642  0.3534  0.4068 -0.8203
 1037TIP3    H224603   4.680   2.519  13.500  0.1603 -1.3985 -0.2336
 1038TIP3   OH224604   6.675   2.182  16.444  0.7216  0.2739  0.3742
 1038TIP3    H124605   6.628   2.233  16.378 -0.3364  1.3647  1.9115
 1038TIP3    H224606   6.763   2.170  16.407 -0.1692 -0.1511 -1.7202
 1039TIP3   OH224607   5.249   3.003   3.202 -0.8316 -0.2621 -0.0419
 1039TIP3    H124608   5.315   2.934   3.195 -0.0544  0.6052 -1.9384
 1039TIP3    H224609   5.257   3.035   3.292  2.0797  0.4700 -0.4548
 1040TIP3   OH224610   0.029   2.568   4.737 -0.6706 -0.5265 -0.3585
 1040TIP3    H124611   0.007   2.476   4.720  0.5199 -0.7867 -0.5946
 1040TIP3    H224612   0.034   2.574   4.832  0.7939 -1.1184 -0.3676
 1041TIP3   OH224613   3.343   5.685  12.101 -0.7514 -0.0584 -0.2119
 1041TIP3    H124614   3.286   5.611  12.082 -0.7103 -0.1661  0.0755
 1041TIP3    H224615   3.382   5.664  12.186 -2.1471  1.1520  0.7635
 1042TIP3   OH224616   1.932   2.800   6.610 -0.5975  0.4896  0.5670
 1042TIP3    H124617   1.992   2.768   6.543  0.6382  1.7122  1.0502
 1042TIP3    H224618   1.914   2.723   6.664  2.2273  0.4726  1.6593
 1043TIP3   OH224619   6.779   1.364  13.097  0.0315  0.0592 -0.0810
 1043TIP3    H124620   6.788   1.453  13.131  1.9134 -0.1657  0.1146
 1043TIP3    H224621   6.854   1.353  13.038 -0.4034 -1.2691 -0.4220
 1044TIP3   OH224622   2.177   1.756   2.415 -0.4976  0.1392  0.3880
 1044TIP3    H124623   2.177   1.661   2.429  1.3235 -0.3883 -2.3751
 1044TIP3    H224624   2.085   1.781   2.417 -1.0959 -1.8902  0.1153
 1045TIP3   OH224625   3.869   3.226  14.057 -0.0967 -0.4982  0.8883
 1045TIP3    H124626   3.908   3.298  14.105  0.9256 -0.5127  0.1060
 1045TIP3    H224627   3.797   3.196  14.113  0.6188 -0.0712  2.0775
 1046TIP3   OH224628   6.530   4.260  14.622  0.3607 -0.5445 -0.3163
 1046TIP3    H124629   6.520   4.344  14.666 -1.5881 -0.0089 -1.6366
 1046TIP3    H224630   6.535   4.196  14.693 -5.0265 -0.0022  0.9924
 1047TIP3   OH224631   6.174   3.755  17.068  0.0055  0.5277  0.8040
 1047TIP3    H124632   6.099   3.760  17.127 -0.5244 -0.8088  0.2799
 1047TIP3    H224633   6.140   3.785  16.983 -0.0491 -0.4085  0.4830
 1048TIP3   OH224634   2.084   4.406  15.119 -0.0319  0.0832  0.4677
 1048TIP3    H124635   2.112   4.399  15.027 -0.0353 -0.3257  0.4966
 1048TIP3    H224636   2.161   4.440  15.164  0.7899 -1.9840  0.7173
 1049TIP3   OH224637   6.115   0.777   4.952  0.3352 -0.3988 -0.0525
 1049TIP3    H124638   6.143   0.691   4.919  0.2238 -0.5916  0.3465
 1049TIP3    H224639   6.119   0.834   4.875  0.2728 -0.7944 -0.3585
 1050TIP3   OH224640   5.137   5.411   0.021  0.5988 -0.0582 -0.0648
 1050TIP3    H124641   5.114   5.331  -0.027 -1.1304  0.3127  0.1122
 1050TIP3    H224642   5.188   5.463  -0.042  0.1194 -0.4700 -0.8033
 1051TIP3   OH224643   3.342   0.710  14.164 -0.0304  0.4023 -0.4024
 1051TIP3    H124644   3.385   0.693  14.080  1.7872 -0.3224  0.6190
 1051TIP3    H224645   3.355   0.803  14.180  0.6736  0.3000 -0.3720
 1052TIP3   OH224646   0.626   3.666  13.252 -0.4561  0.9765  0.2895
 1052TIP3    H124647   0.639   3.580  13.292  1.6225  1.6368  1.1577
 1052TIP3    H224648   0.626   3.649  13.158  1.7814  0.1864  0.3826
 1053TIP3   OH224649   4.646   4.550  17.113  0.7761  0.3944  0.1250
 1053TIP3    H124650   4.653   4.585  17.024  0.2353  0.4440  0.1002
 1053TIP3    H224651   4.581   4.606  17.156  0.1921 -0.3329  0.2060
 1054TIP3   OH224652   5.126   5.815  13.636 -0.1305 -0.3335  0.3352
 1054TIP3    H124653   5.096   5.735  13.678 -1.1630  0.3202  0.8893
 1054TIP3    H224654   5.085   5.814  13.550 -1.0048  0.0961  0.7361
 1055TIP3   OH224655   3.594   1.345   3.790  0.3782 -0.1650 -0.7286
 1055TIP3    H124656   3.534   1.283   3.749 -0.1719 -0.2327  0.1598
 1055TIP3    H224657   3.662   1.291   3.829  0.7259 -0.1158 -1.2476
 1056TIP3   OH224658   3.476   3.592  12.809  0.6334 -0.1362  0.7278
 1056TIP3    H124659   3.532   3.566  12.882  0.5397  1.2712  1.3341
 1056TIP3    H224660   3.390   3.607  12.849  0.4638  0.2090  0.2401
 1057TIP3   OH224661   6.029   4.582   4.332  0.0283 -0.1535  0.5976
 1057TIP3    H124662   6.012   4.492   4.304  1.5474  0.3163 -2.1350
 1057TIP3    H224663   6.115   4.602   4.296 -0.0258  2.2093  1.6616
 1058TIP3   OH224664   6.374   1.777   0.136 -0.3418  0.0584  0.5996
 1058TIP3    H124665   6.330   1.694   0.118 -1.0408  0.2253  1.4607
 1058TIP3    H224666   6.430   1.791   0.060 -0.3823 -1.0873  0.3349
 1059TIP3   OH224667   2.313   2.923   2.991 -0.0417 -0.2429 -0.9543
 1059TIP3    H124668   2.281   2.874   3.066  0.9181  0.4045 -0.0985
 1059TIP3    H224669   2.326   2.856   2.923  0.9293 -1.1483  0.0757
 1060TIP3   OH224670   2.109   6.140  14.571  0.0005  0.0003 -0.3578
 1060TIP3    H124671   2.148   6.081  14.506 -1.5481  0.2870 -1.6027
 1060TIP3    H224672   2.136   6.228  14.542  2.0823  0.0044  1.3401
 1061TIP3   OH224673   5.831   1.723  11.548  0.1025 -0.2509 -0.0594
 1061TIP3    H124674   5.875   1.642  11.522  1.3252  0.0049  1.1228
 1061TIP3    H224675   5.749   1.722  11.499  0.6456 -1.5930 -1.0093
 1062TIP3   OH224676   2.566   1.315  11.442  0.0306 -0.1732  0.0896
 1062TIP3    H124677   2.488   1.314  11.497 -1.1482 -1.3118 -1.5282
 1062TIP3    H224678   2.626   1.253  11.485 -0.4058 -0.1789  0.7031
 1063TIP3   OH224679   2.743   1.136  15.320  0.2040 -0.4799  0.0909
 1063TIP3    H124680   2.739   1.219  15.272  0.1961 -0.9296 -0.7067
 1063TIP3    H224681   2.815   1.148  15.382 -0.5910  0.5535  0.8434
 1064TIP3   OH224682   5.616   6.115  15.430  0.3631  0.5692  0.3493
 1064TIP3    H124683   5.594   6.144  15.342 -0.4756 -0.6490  0.1338
 1064TIP3    H224684   5.600   6.021  15.430  1.9847  0.2437  1.3193
 1065TIP3   OH224685   2.984   4.407   2.907  0.1920 -0.2364  0.3926
 1065TIP3    H124686   2.902   4.393   2.860  0.4063 -1.2320  0.3118
 1065TIP3    H224687   3.052   4.397   2.840  0.3845  0.7861  0.4153
 1066TIP3   OH224688   5.476   2.207   0.699 -0.6108 -0.1273 -0.1807
 1066TIP3    H124689   5.446   2.296   0.718  0.1282  0.2135 -0.5577
 1066TIP3    H224690   5.479   2.203   0.604 -1.7046 -0.9304 -0.1961
 1067TIP3   OH224691   3.076   6.365   0.907 -0.3903  0.0259 -0.1823
 1067TIP3    H124692   2.986   6.377   0.937 -0.3479 -0.5516  0.1915
 1067TIP3    H224693   3.074   6.389   0.815 -0.9324 -0.0051 -0.1820
 1068TIP3   OH224694   1.594   3.273   0.130 -0.5754 -0.2818  0.3619
 1068TIP3    H124695   1.514   3.316   0.099  1.0237  1.5907 -1.4966
 1068TIP3    H224696   1.655   3.279   0.056  0.7556 -3.2328  1.0756
 1069TIP3   OH224697   4.390   3.653  16.694  0.6443 -0.0813 -0.3382
 1069TIP3    H124698   4.450   3.583  16.719  0.6765 -0.2640 -0.9008
 1069TIP3    H224699   4.304   3.622  16.722  0.8076  0.1729  0.4532
 1070TIP3   OH224700   0.887   1.156   3.089 -0.0557  0.4283 -0.0727
 1070TIP3    H124701   0.865   1.107   3.009  2.6027  1.7915 -1.7643
 1070TIP3    H224702   0.806   1.202   3.111 -0.5751  1.0001 -2.7549
 1071TIP3   OH224703   1.265   1.660   3.314  0.5260 -0.2319 -0.0677
 1071TIP3    H124704   1.232   1.606   3.386 -2.2753  1.0453 -0.2479
 1071TIP3    H224705   1.284   1.597   3.244  2.4429 -1.3995  1.4063
 1072TIP3   OH224706   3.165   5.853  12.445 -0.4086  0.1932 -0.2890
 1072TIP3    H124707   3.204   5.871  12.360 -1.5428  0.5590 -0.7496
 1072TIP3    H224708   3.239   5.853  12.506  0.3076  0.7924 -1.1341
 1073TIP3   OH224709   1.329   1.324  15.587 -0.0148 -0.0203  0.0199
 1073TIP3    H124710   1.369   1.267  15.522 -1.0538  1.5703 -2.1676
 1073TIP3    H224711   1.350   1.412  15.557 -0.2164  0.7805  2.1091
 1074TIP3   OH224712   4.890   0.036  12.041  0.0106 -0.0872  0.4954
 1074TIP3    H124713   4.803   0.073  12.030  0.1394  1.2731  3.2384
 1074TIP3    H224714   4.875  -0.053  12.073 -0.3578 -0.0872  0.3191
 1075TIP3   OH224715   4.139   0.927  16.728  0.4765  0.2388  0.1211
 1075TIP3    H124716   4.171   0.931  16.818  2.9763  1.3405 -0.7286
 1075TIP3    H224717   4.171   0.843  16.695  1.0316  0.5825 -0.2261
 1076TIP3   OH224718   2.229   6.615  13.595 -0.5153 -0.6545  0.3009
 1076TIP3    H124719   2.305   6.657  13.635 -1.2971  2.1410 -0.9324
 1076TIP3    H224720   2.162   6.618  13.664 -0.7354  0.7111  0.0455
 1077TIP3   OH224721   0.117   5.906   4.743 -0.1799  0.0597 -0.6209
 1077TIP3    H124722   0.179   5.945   4.682  2.1401 -0.7964  1.0175
 1077TIP3    H224723   0.097   5.975   4.805 -0.9887  0.3665 -1.2089
 1078TIP3   OH224724   4.292   5.424  14.931 -0.0127  0.6580 -0.3584
 1078TIP3    H124725   4.387   5.432  14.934 -0.0152  0.9401 -0.9550
 1078TIP3    H224726   4.261   5.508  14.967 -0.0334  0.7350 -0.5544
 1079TIP3   OH224727   2.184   2.149  11.216 -0.2973  0.6848 -0.2044
 1079TIP3    H124728   2.261   2.198  11.244 -1.7248  1.9509  1.8763
 1079TIP3    H224729   2.112   2.212  11.224 -1.5474 -0.3819 -2.2412
 1080TIP3   OH224730   0.834   5.699   2.329  0.1995  0.5793  0.7280
 1080TIP3    H124731   0.796   5.680   2.243 -0.1081 -0.6705  1.1161
 1080TIP3    H224732   0.927   5.677   2.321  0.0949  0.0913  0.8123
 1081TIP3   OH224733   1.677   3.212  10.838  0.0536  0.1256 -0.4892
 1081TIP3    H124734   1.740   3.264  10.889 -1.2500 -0.2215  1.5964
 1081TIP3    H224735   1.593   3.256  10.851 -0.4554 -0.3981 -1.7990
 1082TIP3   OH224736   6.402   4.838   2.831 -0.2153 -0.0647 -0.1889
 1082TIP3    H124737   6.482   4.872   2.790 -0.6450 -0.6151 -1.5268
 1082TIP3    H224738   6.332   4.866   2.773 -1.0640  0.7466  1.1808
 1083TIP3   OH224739   6.565   6.558  12.964 -1.0314  0.4494  0.6336
 1083TIP3    H124740   6.638   6.508  13.001 -1.0368  0.7900  1.1253
 1083TIP3    H224741   6.571   6.543  12.870  0.5118  1.5408  0.5126
 1084TIP3   OH224742   0.202   1.912  16.392  0.5764 -0.8099  0.7478
 1084TIP3    H124743   0.268   1.852  16.425  0.8578 -1.3001 -0.6284
 1084TIP3    H224744   0.142   1.856  16.342  0.4552 -0.0460  0.0181
 1085TIP3   OH224745   2.198   0.400  15.434 -0.3484  0.1131 -0.7057
 1085TIP3    H124746   2.144   0.474  15.463 -1.3893 -0.6982 -0.5372
 1085TIP3    H224747   2.167   0.382  15.345 -0.6007 -0.5692 -0.4837
 1086TIP3   OH224748   5.402   2.991   0.163  0.1668 -0.5724 -0.2806
 1086TIP3    H124749   5.430   3.080   0.186 -1.1576 -0.4783  1.1037
 1086TIP3    H224750   5.341   3.003   0.090 -0.5408 -0.2659  0.3519
 1087TIP3   OH224751   1.848   4.731  13.154 -0.7613  0.1411 -0.3317
 1087TIP3    H124752   1.866   4.809  13.207 -0.0152 -0.1041 -0.2165
 1087TIP3    H224753   1.794   4.763  13.082 -1.6311  0.5184  0.4602
 1088TIP3   OH224754   5.442   5.378   5.109 -0.0082  0.1450 -0.0445
 1088TIP3    H124755   5.512   5.380   5.044 -0.0813  0.9929 -0.1202
 1088TIP3    H224756   5.390   5.301   5.087 -0.2598  0.6315 -1.2618
 1089TIP3   OH224757   1.490   5.255  11.168  0.4140  0.1635  0.4279
 1089TIP3    H124758   1.519   5.207  11.090  0.2842 -0.5758  0.8192
 1089TIP3    H224759   1.547   5.222  11.239  0.7692  1.0865  0.5808
 1090TIP3   OH224760   6.459   1.773  13.934  0.4314  0.2283 -0.1166
 1090TIP3    H124761   6.374   1.754  13.974  0.4024 -1.0657 -0.7253
 1090TIP3    H224762   6.491   1.687  13.904  2.5302  0.4630  1.2161
 1091TIP3   OH224763   2.793   3.735   1.349  0.2975  0.1396  0.6111
 1091TIP3    H124764   2.701   3.720   1.327  0.1482  0.5687  0.9401
 1091TIP3    H224765   2.796   3.826   1.379  1.0576  0.5561 -0.6387
 1092TIP3   OH224766   4.915   5.775  14.274 -0.9084 -0.3608  0.3217
 1092TIP3    H124767   4.940   5.866  14.259 -1.1783 -0.3333  0.0126
 1092TIP3    H224768   4.966   5.726  14.209 -2.5546 -0.1795 -1.2117
 1093TIP3   OH224769   3.574   2.283   2.237 -0.0695  0.2888  0.0160
 1093TIP3    H124770   3.668   2.270   2.225  0.1281  0.7462  1.0243
 1093TIP3    H224771   3.564   2.377   2.252 -0.5631  0.1030  0.9502
 1094TIP3   OH224772   1.988   3.408  12.748  0.1208 -0.1504  0.6760
 1094TIP3    H124773   2.057   3.467  12.719  0.8607 -2.1996 -2.1025
 1094TIP3    H224774   2.033   3.345  12.805 -0.2924  0.7553  2.0529
 1095TIP3   OH224775   5.834   3.433  10.404 -0.0191 -0.1861 -0.0340
 1095TIP3    H124776   5.751   3.406  10.442 -0.5737 -2.0672 -2.3616
 1095TIP3    H224777   5.811   3.498  10.338  0.5054  0.1669  0.1180
 1096TIP3   OH224778   0.819   5.883  12.736 -0.3072 -0.5713 -0.0934
 1096TIP3    H124779   0.850   5.824  12.805 -0.6851  0.0421  0.6166
 1096TIP3    H224780   0.873   5.961  12.747  0.6156 -0.9842 -1.4177
 1097TIP3   OH224781   1.333   2.988  15.179 -0.3649  0.1750  0.0451
 1097TIP3    H124782   1.409   3.037  15.212 -0.2171 -0.8540  1.3549
 1097TIP3    H224783   1.258   3.045  15.195 -0.0247  0.6098  0.0986
 1098TIP3   OH224784   3.010   5.001  12.938  0.2452  0.2454  0.3970
 1098TIP3    H124785   2.992   5.070  12.874  1.1811 -1.1142 -1.4207
 1098TIP3    H224786   3.019   4.922  12.886 -1.4810 -1.4275  2.4900
 1099TIP3   OH224787   0.269   6.170   3.972  0.1797  0.1360  0.2328
 1099TIP3    H124788   0.235   6.105   3.911 -0.0869  1.2550 -0.8621
 1099TIP3    H224789   0.218   6.249   3.954  0.5350  0.6805  1.4801
 1100TIP3   OH224790   2.117   5.595   3.474  0.5220 -0.8749  0.2048
 1100TIP3    H124791   2.148   5.583   3.563  1.0344  1.0443  0.3197
 1100TIP3    H224792   2.190   5.567   3.419  2.4073  2.9651  0.4688
 1101TIP3   OH224793   5.780   3.761  15.819  0.0720 -0.5797  0.3186
 1101TIP3    H124794   5.782   3.773  15.724 -0.5343 -0.6306  0.2982
 1101TIP3    H224795   5.758   3.847  15.853  0.4412 -0.5254  0.4259
 1102TIP3   OH224796   3.597   5.644   0.016  0.2178 -0.1436 -0.0111
 1102TIP3    H124797   3.593   5.637   0.111  1.6888  0.0736  0.0821
 1102TIP3    H224798   3.601   5.553  -0.014  0.5290 -0.1898  0.1720
 1103TIP3   OH224799   6.062   5.378  10.883 -0.4601 -0.4513  0.5946
 1103TIP3    H124800   5.992   5.314  10.868 -0.6303 -0.0715 -0.2666
 1103TIP3    H224801   6.017   5.462  10.885 -0.0946 -0.2557  0.5826
 1104TIP3   OH224802   6.241   1.187  16.520  0.3325  0.6231  0.0263
 1104TIP3    H124803   6.268   1.189  16.612  0.0041  0.3159  0.1335
 1104TIP3    H224804   6.307   1.132  16.477 -1.3164 -2.0885  0.7157
 1105TIP3   OH224805   6.006   1.357  17.077  0.5798 -0.4183  0.2141
 1105TIP3    H124806   6.008   1.284  17.015  1.4845  0.3287 -0.6741
 1105TIP3    H224807   5.919   1.396  17.066 -0.6903 -2.4415  2.0714
 1106TIP3   OH224808   4.386   3.954  11.683  0.2677  0.0651  0.0277
 1106TIP3    H124809   4.314   4.018  11.684  0.4511  0.2742  0.9819
 1106TIP3    H224810   4.415   3.951  11.774  0.0518 -1.6319  0.0608
 1107TIP3   OH224811   3.607   5.698  11.958  0.0856  0.0997  0.3846
 1107TIP3    H124812   3.521   5.711  11.998 -0.8892 -1.3969 -1.0705
 1107TIP3    H224813   3.644   5.622  12.003  1.2612  1.4727  1.8658
 1108TIP3   OH224814   1.962   5.960  16.125  0.0470 -0.1291 -0.0469
 1108TIP3    H124815   1.919   5.957  16.210  0.7685  1.6852  0.4192
 1108TIP3    H224816   1.891   5.970  16.062 -0.3397  3.2060  0.7249
 1109TIP3   OH224817   2.695   4.715  10.460  0.1750  0.2164 -0.3726
 1109TIP3    H124818   2.605   4.689  10.478  0.0058  0.9908 -0.0399
 1109TIP3    H224819   2.718   4.670  10.379 -1.1813  1.5109 -1.5315
 1110TIP3   OH224820   4.959   3.462  15.591 -0.1583 -0.0053  0.0386
 1110TIP3    H124821   4.959   3.558  15.587 -0.5782 -0.0267 -0.7671
 1110TIP3    H224822   5.039   3.436  15.546  0.1223 -0.0332  0.5450
 1111TIP3   OH224823   5.350   0.092   1.229 -0.4085  0.4056  0.4585
 1111TIP3    H124824   5.353   0.161   1.294 -2.4246  0.5573  0.4446
 1111TIP3    H224825   5.441   0.081   1.201  0.2268  1.5916  1.9565
 1112TIP3   OH224826   1.187   2.680  13.004  0.0124 -0.3384  0.8763
 1112TIP3    H124827   1.276   2.704  12.980  0.1417 -0.2558  1.4356
 1112TIP3    H224828   1.188   2.585  13.011  0.1640 -0.3042  1.3128
 1113TIP3   OH224829   6.823   3.671  15.097 -0.0617 -0.1621 -0.2860
 1113TIP3    H124830   6.847   3.619  15.173 -1.7845  1.0748  1.1815
 1113TIP3    H224831   6.764   3.615  15.047  1.2034 -1.0386 -0.8412
 1114TIP3   OH224832   0.602   5.195   1.053 -0.1699 -0.5883 -0.0002
 1114TIP3    H124833   0.678   5.216   1.107 -0.0537  0.5901 -0.5907
 1114TIP3    H224834   0.637   5.182   0.965 -0.7411  0.8518 -0.4596
 1115TIP3   OH224835   1.639   1.205   2.376  0.2136 -0.1179 -0.3099
 1115TIP3    H124836   1.715   1.163   2.416  1.0891  0.0748 -1.7160
 1115TIP3    H224837   1.672   1.243   2.295 -1.3502  0.1432 -0.8599
 1116TIP3   OH224838   4.479   3.015  12.141 -0.3029  0.6520 -0.1401
 1116TIP3    H124839   4.400   3.001  12.090  0.4993  0.1087 -1.2711
 1116TIP3    H224840   4.529   3.079  12.091 -0.4722  1.8025  1.1000
 1117TIP3   OH224841   4.940   6.249   2.829 -0.6412  0.2146 -0.1968
 1117TIP3    H124842   4.880   6.177   2.851 -0.7357  0.4489  0.3508
 1117TIP3    H224843   5.026   6.219   2.859 -0.3761 -0.3252 -1.4277
 1118TIP3   OH224844   5.132   0.428   0.875 -1.2725  0.1523 -0.1433
 1118TIP3    H124845   5.177   0.483   0.811 -0.3043 -0.0321  0.3573
 1118TIP3    H224846   5.040   0.435   0.852 -0.8742 -0.7974 -2.2664
 1119TIP3   OH224847   5.713   2.318  15.302  0.4274  0.7396  0.4349
 1119TIP3    H124848   5.783   2.261  15.337  0.0112  0.3368  0.6212
 1119TIP3    H224849   5.636   2.261  15.299  0.7870  0.2758 -2.6288
 1120TIP3   OH224850   5.521   2.716   0.725 -0.4245  0.0215  0.2733
 1120TIP3    H124851   5.552   2.731   0.814 -0.1199  1.7106 -0.0983
 1120TIP3    H224852   5.444   2.773   0.717 -1.1106 -0.9418 -0.2091
 1121TIP3   OH224853   3.473   4.812  10.356 -0.0174  0.1130  0.2702
 1121TIP3    H124854   3.407   4.793  10.289  1.1119 -1.1514 -0.5331
 1121TIP3    H224855   3.537   4.868  10.311  1.2880 -1.5794 -0.0979
 1122TIP3   OH224856   0.643   5.019   3.968  0.1231 -0.1792 -0.1202
 1122TIP3    H124857   0.569   5.069   4.004 -1.7865 -1.2741 -2.3204
 1122TIP3    H224858   0.695   5.084   3.920 -0.4812  0.2577 -0.1853
 1123TIP3   OH224859   3.339   3.972  16.650  0.0800 -0.1181  0.1677
 1123TIP3    H124860   3.365   4.061  16.675 -1.2867  0.5578 -0.7226
 1123TIP3    H224861   3.422   3.926  16.635  0.7995  1.3163 -0.4110
 1124TIP3   OH224862   4.189   2.442  14.375 -0.0203 -0.2051  0.0920
 1124TIP3    H124863   4.281   2.442  14.401  0.0746  0.9827 -0.1804
 1124TIP3    H224864   4.168   2.534  14.362 -0.9946 -0.5254 -0.7443
 1125TIP3   OH224865   4.825   1.036   0.251 -0.0870 -0.1126 -0.1879
 1125TIP3    H124866   4.750   0.983   0.276  0.6690 -0.0627  2.4756
 1125TIP3    H224867   4.886   1.028   0.325  3.0456 -1.0337 -2.6440
 1126TIP3   OH224868   0.939   6.815  13.796 -0.8881  0.0257  0.3727
 1126TIP3    H124869   0.875   6.797  13.727  0.6151  2.1315 -1.7269
 1126TIP3    H224870   0.977   6.899  13.772  1.9501 -0.6362  2.0762
 1127TIP3   OH224871   2.846   4.486   4.936 -0.0285 -0.2418  0.1671
 1127TIP3    H124872   2.941   4.477   4.940  0.0326  0.5209  0.5833
 1127TIP3    H224873   2.829   4.519   4.848 -0.0208 -1.5766 -0.3493
 1128TIP3   OH224874   2.848   1.080  15.919 -0.3380 -0.1537  0.1968
 1128TIP3    H124875   2.761   1.040  15.925  0.1619 -1.1662  0.9303
 1128TIP3    H224876   2.888   1.039  15.843 -0.3418 -0.0010  0.1122
 1129TIP3   OH224877   5.265   5.095   5.641 -0.1291  0.4762  0.3621
 1129TIP3    H124878   5.354   5.061   5.645 -0.6547 -0.8744  1.1912
 1129TIP3    H224879   5.230   5.060   5.559 -0.7365 -1.2447  1.3123
 1130TIP3   OH224880   0.914   3.032   0.535 -0.7007  0.1949 -0.4667
 1130TIP3    H124881   0.988   3.052   0.476  0.1996  1.1484  0.9274
 1130TIP3    H224882   0.918   2.937   0.546  0.6314  0.2711 -0.0517
 1131TIP3   OH224883   2.149   5.062  11.921  0.0270  0.2495 -0.3385
 1131TIP3    H124884   2.134   5.066  12.016  0.1363  2.2649 -0.3704
 1131TIP3    H224885   2.244   5.061  11.913  0.0297 -1.2000 -0.4310
 1132TIP3   OH224886   5.933   3.012  11.245  0.0089 -0.2262  0.1350
 1132TIP3    H124887   5.984   3.080  11.201 -0.8575 -0.7095 -1.7102
 1132TIP3    H224888   5.997   2.945  11.268  0.7948  0.9417  1.5440
 1133TIP3   OH224889   1.286   1.414   2.197 -0.4330 -0.0446  0.2530
 1133TIP3    H124890   1.334   1.408   2.280  0.0564 -0.0239 -0.0228
 1133TIP3    H224891   1.286   1.325   2.163  2.0140  0.3906 -1.1703
 1134TIP3   OH224892   0.350   3.323  12.148  0.2118  0.0260 -0.0963
 1134TIP3    H124893   0.440   3.290  12.143  1.1031  2.4361 -3.5005
 1134TIP3    H224894   0.359   3.418  12.134 -2.8795  0.2641 -1.2210
 1135TIP3   OH224895   2.850   3.387  16.750  0.0763 -0.0767  0.2397
 1135TIP3    H124896   2.892   3.305  16.776 -0.0965  0.1605  1.3252
 1135TIP3    H224897   2.763   3.384  16.790  0.7599  1.4691  2.0027
 1136TIP3   OH224898   4.901   0.326   1.087 -1.2058  0.1763 -0.1498
 1136TIP3    H124899   4.961   0.390   1.125  1.4306 -2.4733  0.5638
 1136TIP3    H224900   4.889   0.355   0.997  1.9204  0.4642 -0.5850
 1137TIP3   OH224901   5.467   3.247   0.297  0.2811  0.0806 -0.0868
 1137TIP3    H124902   5.456   3.342   0.305 -0.7520  0.1475 -1.7907
 1137TIP3    H224903   5.401   3.210   0.355  0.9437  0.3862  0.8813
 1138TIP3   OH224904   5.382   3.015  13.921 -0.3301  0.0669  0.0090
 1138TIP3    H124905   5.413   3.074  13.989  1.3516  0.2202 -0.8369
 1138TIP3    H224906   5.410   2.928  13.950 -0.6171 -0.0131  0.0517
 1139TIP3   OH224907   4.830   1.928   0.850 -0.1362 -0.0002 -0.5087
 1139TIP3    H124908   4.763   1.862   0.870 -0.0484 -0.1669 -0.7685
 1139TIP3    H224909   4.913   1.881   0.860 -0.0840 -0.0345 -1.0791
 1140TIP3   OH224910   2.275   2.592   1.980  0.2617  0.2187  0.2025
 1140TIP3    H124911   2.189   2.634   1.983  0.0924 -0.1311  0.2720
 1140TIP3    H224912   2.303   2.600   1.889  0.5695  1.1572  0.3698
 1141TIP3   OH224913   3.407   4.847  14.393 -0.1406 -0.1889 -0.1411
 1141TIP3    H124914   3.409   4.760  14.434 -1.0931  0.3609  1.1040
 1141TIP3    H224915   3.321   4.882  14.413 -0.9042 -0.0667 -3.0810
 1142TIP3   OH224916   5.556   1.459   5.936 -0.1236  0.4506 -0.3525
 1142TIP3    H124917   5.500   1.381   5.931  0.0529  0.1885  1.2580
 1142TIP3    H224918   5.622   1.436   6.001  2.2224  0.5542 -2.5428
 1143TIP3   OH224919   0.422   0.420   6.039 -0.1820 -0.2175  0.8709
 1143TIP3    H124920   0.488   0.462   6.095 -0.9290 -0.6459  2.1019
 1143TIP3    H224921   0.365   0.492   6.011 -0.3944 -0.1383  1.4923
 1144TIP3   OH224922   3.701   2.846  12.372 -0.6062  0.2305  0.0238
 1144TIP3    H124923   3.611   2.862  12.398  0.0312  1.4350  1.6271
 1144TIP3    H224924   3.727   2.925  12.324  0.2716  0.8977  1.5468
 1145TIP3   OH224925   0.867   4.272  13.130  0.4415  0.1204  0.1223
 1145TIP3    H124926   0.942   4.331  13.132  1.5359 -1.0742 -1.7505
 1145TIP3    H224927   0.906   4.184  13.132 -1.0084 -0.5410  0.7912
 1146TIP3   OH224928   0.043   0.394   1.384 -0.0983 -0.1652  0.2629
 1146TIP3    H124929  -0.026   0.391   1.317  0.4842  0.4726 -0.3757
 1146TIP3    H224930   0.005   0.446   1.455 -1.4410 -2.3770  1.3028
 1147TIP3   OH224931   2.043   5.079  14.446  0.5058  0.4085  0.5163
 1147TIP3    H124932   2.094   5.076  14.366 -0.1829  0.0415  0.0797
 1147TIP3    H224933   2.074   5.157  14.492  0.5469  0.9042 -0.3429
 1148TIP3   OH224934   3.540   5.213   2.070 -0.4713 -0.0028  0.5732
 1148TIP3    H124935   3.527   5.225   2.164 -0.6972  2.2713  0.3250
 1148TIP3    H224936   3.456   5.236   2.031 -0.0361  0.2688 -0.2386
 1149TIP3   OH224937   0.931   0.995  15.235 -0.0381 -0.3421 -0.1239
 1149TIP3    H124938   0.857   0.967  15.288  1.9623 -2.0550  1.9611
 1149TIP3    H224939   0.921   1.090  15.229 -1.0274 -0.1993  2.4098
 1150TIP3   OH224940   5.098   5.238  16.767 -0.5127  0.6276 -0.2534
 1150TIP3    H124941   5.113   5.226  16.861 -0.0094  2.2092 -0.0976
 1150TIP3    H224942   5.148   5.317  16.745 -0.6764  0.3207 -1.8428
 1151TIP3   OH224943   3.493   5.408   2.620  0.5068 -0.3912 -0.4644
 1151TIP3    H124944   3.419   5.426   2.563  0.2597  0.6561  0.1545
 1151TIP3    H224945   3.471   5.326   2.664 -0.3128 -0.0648 -0.2567
 1152TIP3   OH224946   5.278   3.087  11.441  0.1086  0.3420 -0.0387
 1152TIP3    H124947   5.261   3.012  11.383 -0.6856  0.8928 -0.5413
 1152TIP3    H224948   5.193   3.131  11.448 -0.0445 -0.2443  2.3495
 1153TIP3   OH224949   2.716   2.622   3.241 -0.0878  0.0377 -0.0523
 1153TIP3    H124950   2.788   2.565   3.269  1.2875  0.3894 -2.5881
 1153TIP3    H224951   2.643   2.563   3.225  0.1062 -0.5198  1.0054
 1154TIP3   OH224952   5.475   0.840   4.081  0.9968  0.1953 -0.2457
 1154TIP3    H124953   5.398   0.798   4.120  0.4639  0.8067 -0.6225
 1154TIP3    H224954   5.507   0.900   4.148  1.5410 -0.5277  0.1558
 1155TIP3   OH224955   6.271   6.037   0.740  0.0160 -0.3767  0.7002
 1155TIP3    H124956   6.275   6.130   0.716 -0.5492 -0.8178 -1.3024
 1155TIP3    H224957   6.339   5.996   0.685 -1.7798 -1.5426 -0.7611
 1156TIP3   OH224958   1.037   2.744   5.671  0.6735  0.6581  0.2903
 1156TIP3    H124959   0.960   2.800   5.666  1.9940  2.6053  0.6977
 1156TIP3    H224960   1.050   2.728   5.764  0.3065 -0.3713  0.1791
 1157TIP3   OH224961   5.819   1.641  15.862 -0.2867  0.5451  0.6421
 1157TIP3    H124962   5.789   1.563  15.909  0.5044 -0.4682 -0.4494
 1157TIP3    H224963   5.742   1.672  15.814 -0.3223 -0.3242  0.1164
 1158TIP3   OH224964   2.136   3.593  13.651  0.2743 -0.3373  0.3136
 1158TIP3    H124965   2.094   3.657  13.708 -0.6195 -1.3234  0.8059
 1158TIP3    H224966   2.207   3.641  13.609 -1.4967  1.4848 -0.7834
 1159TIP3   OH224967   2.498   3.753   1.288  0.6253 -0.0032 -0.7774
 1159TIP3    H124968   2.533   3.744   1.200  3.1293 -0.5708  0.1922
 1159TIP3    H224969   2.482   3.847   1.299  1.8028  0.2763 -1.3295
 1160TIP3   OH224970   5.383   6.518  14.700 -0.6244  0.4171  0.0999
 1160TIP3    H124971   5.444   6.445  14.713 -1.9100 -0.6822  0.2308
 1160TIP3    H224972   5.439   6.594  14.688  0.7693 -0.0387  2.8731
 1161TIP3   OH224973   5.280   4.076   5.634 -0.3462 -0.5301  0.1538
 1161TIP3    H124974   5.236   3.991   5.637 -0.2344 -0.6296 -0.7590
 1161TIP3    H224975   5.221   4.131   5.582 -1.0658  0.3516  1.8315
 1162TIP3   OH224976   2.549   2.849  16.209 -0.5731  0.5189  0.2557
 1162TIP3    H124977   2.638   2.814  16.206 -0.3872  1.0314 -0.8562
 1162TIP3    H224978   2.555   2.927  16.263 -0.5852 -0.0434  1.0901
 1163TIP3   OH224979   1.693   1.948   5.952  0.3549 -0.0658  0.2754
 1163TIP3    H124980   1.704   1.984   6.040 -3.5059 -1.8390  1.7273
 1163TIP3    H224981   1.762   1.882   5.944  2.2638  1.7856  0.9311
 1164TIP3   OH224982   5.041   3.077   1.955 -0.4605  0.6587 -0.5257
 1164TIP3    H124983   5.115   3.121   1.912  0.2789  0.4667  0.5150
 1164TIP3    H224984   4.982   3.055   1.883  0.6375  0.5381 -1.4315
 1165TIP3   OH224985   2.940   2.196  13.201  0.2090 -0.4067 -0.1974
 1165TIP3    H124986   2.860   2.216  13.152  1.3366  2.1391 -1.1721
 1165TIP3    H224987   3.005   2.257  13.166  2.0775 -1.0815  1.9001
 1166TIP3   OH224988   0.330   5.164  10.654 -0.5442  0.7052  0.2577
 1166TIP3    H124989   0.258   5.143  10.713 -1.7610 -0.2763 -1.5056
 1166TIP3    H224990   0.407   5.167  10.711 -1.7931  0.7838  2.0314
 1167TIP3   OH224991   3.529   4.040  13.812  0.6257 -0.5322  0.1657
 1167TIP3    H124992   3.548   4.132  13.831  0.5978 -0.3286 -0.7148
 1167TIP3    H224993   3.490   4.006  13.892 -1.1217  0.7454 -0.0820
 1168TIP3   OH224994   0.643   4.198  12.593 -0.4225 -0.0391  0.1150
 1168TIP3    H124995   0.563   4.233  12.552 -1.6652 -0.0562  2.3776
 1168TIP3    H224996   0.611   4.142  12.664  1.6000 -2.5029 -0.7741
 1169TIP3   OH224997   6.567   5.906  16.937  0.7453 -0.1154  0.0389
 1169TIP3    H124998   6.592   5.935  16.849 -0.4956  2.3677  0.4067
 1169TIP3    H224999   6.557   5.812  16.930  3.6339 -0.4005 -1.7092
 1170TIP3   OH225000   1.668   4.305   0.396  0.1673 -0.2928 -0.5953
 1170TIP3    H125001   1.723   4.382   0.389 -0.5029  0.1434 -1.2677
 1170TIP3    H225002   1.680   4.273   0.486  1.0032  0.1646 -0.5451
 1171TIP3   OH225003   3.275   2.051  15.407  0.3583 -0.4200 -0.3018
 1171TIP3    H125004   3.346   1.999  15.444 -0.4829 -2.6049 -1.5622
 1171TIP3    H225005   3.283   2.040  15.313 -0.4414  0.9979 -0.5714
 1172TIP3   OH225006   4.111   0.400   6.150  0.5926  0.0153 -0.0840
 1172TIP3    H125007   4.065   0.321   6.121 -1.2549  1.3032 -0.8802
 1172TIP3    H225008   4.145   0.377   6.236  1.5927 -2.1777 -0.9648
 1173TIP3   OH225009   2.318   5.585   3.159  0.4986  0.1341 -0.1060
 1173TIP3    H125010   2.251   5.594   3.091 -2.1524  0.2895  2.3422
 1173TIP3    H225011   2.326   5.672   3.197  0.5401 -0.3197  0.9729
 1174TIP3   OH225012   1.209   4.324  15.114 -0.0577  0.1859  0.3220
 1174TIP3    H125013   1.238   4.371  15.036  0.1096  0.1299  0.3500
 1174TIP3    H225014   1.277   4.259  15.130  0.9121  1.4147  1.6026
 1175TIP3   OH225015   1.262   6.025  15.895  0.6861  0.3894 -0.2461
 1175TIP3    H125016   1.207   6.031  15.817  0.8114 -0.8175 -0.4478
 1175TIP3    H225017   1.301   6.112  15.903 -0.6547  1.0407 -0.5276
 1176TIP3   OH225018   2.469   2.508   4.001  0.1548 -0.0246 -0.0201
 1176TIP3    H125019   2.388   2.490   3.953  0.4321 -0.2398 -0.4204
 1176TIP3    H225020   2.535   2.456   3.955  0.9080  1.6476 -0.9327
 1177TIP3   OH225021   4.165   1.969  15.102  0.4329  0.6190  0.0759
 1177TIP3    H125022   4.245   1.935  15.143  0.1633 -0.7412 -0.4721
 1177TIP3    H225023   4.158   1.921  15.020 -2.5123 -1.5587  1.4189
 1178TIP3   OH225024   4.124   1.454   1.742 -0.4623 -0.5720  0.3907
 1178TIP3    H125025   4.038   1.465   1.701  0.5161  2.9623 -1.1204
 1178TIP3    H225026   4.121   1.510   1.819  0.6419  0.1816 -0.0826
 1179TIP3   OH225027   2.154   3.169  10.282 -0.2446 -0.2103  0.1744
 1179TIP3    H125028   2.128   3.077  10.290  1.4941 -0.8662 -1.0748
 1179TIP3    H225029   2.249   3.168  10.299  0.0837  1.1105 -1.3755
 1180TIP3   OH225030   1.822   6.437   6.163  0.3952  0.1671 -1.0104
 1180TIP3    H125031   1.834   6.364   6.223  0.9067  1.6653  0.8251
 1180TIP3    H225032   1.751   6.488   6.201  1.9509  2.1391 -0.5828
 1181TIP3   OH225033   4.090   4.109  16.356  0.0733 -0.2118 -0.1346
 1181TIP3    H125034   4.025   4.109  16.426  0.0346  0.3818 -0.1702
 1181TIP3    H225035   4.068   4.185  16.302 -0.8873 -1.5476 -1.7195
 1182TIP3   OH225036   4.940   1.925  14.065  0.5415  0.1025  0.2791
 1182TIP3    H125037   4.993   1.852  14.097 -1.4263 -0.9835  1.2707
 1182TIP3    H225038   4.935   1.911  13.971  1.3820 -0.1925  0.2682
 1183TIP3   OH225039   5.331   2.369  15.208  0.2781 -0.0328 -0.1916
 1183TIP3    H125040   5.368   2.453  15.235 -0.4412  0.8650 -1.8273
 1183TIP3    H225041   5.247   2.392  15.169 -0.6603 -1.7035  0.7302
 1184TIP3   OH225042   4.720   3.890   1.604 -0.2135 -0.4832  0.1912
 1184TIP3    H125043   4.805   3.934   1.607  0.5826 -1.8204 -1.1757
 1184TIP3    H225044   4.692   3.899   1.512 -1.5145 -0.1654  0.5981
 1185TIP3   OH225045   0.799   4.468  15.895 -0.2536  0.0186 -0.1475
 1185TIP3    H125046   0.869   4.404  15.881 -1.2423 -1.0700 -0.2439
 1185TIP3    H225047   0.730   4.443  15.833  0.1769  2.5327 -1.8418
 1186TIP3   OH225048   4.319   6.191   0.817 -0.0526 -0.3009 -0.1142
 1186TIP3    H125049   4.375   6.118   0.789 -0.0086 -0.3217  0.0245
 1186TIP3    H225050   4.287   6.164   0.903  0.0249 -0.1221 -0.0290
 1187TIP3   OH225051   5.211   5.114  12.109  0.2113  0.5196 -0.0067
 1187TIP3    H125052   5.165   5.193  12.079 -0.8064  0.5588  1.5846
 1187TIP3    H225053   5.171   5.043  12.059  0.9845  0.9542 -1.2935
 1188TIP3   OH225054   1.513   3.028   3.829  0.2615 -0.4557  0.1358
 1188TIP3    H125055   1.576   2.961   3.856  0.6787 -0.9306 -1.8570
 1188TIP3    H225056   1.552   3.110   3.860  2.2115 -0.6788 -1.5311
 1189TIP3   OH225057   0.856   3.552   2.961  0.1595  0.1089  0.7148
 1189TIP3    H125058   0.831   3.631   2.912  0.1309 -1.4869 -2.0027
 1189TIP3    H225059   0.816   3.480   2.913  1.7864 -1.7402  1.9882
 1190TIP3   OH225060   2.018   0.382  12.307 -0.0612  0.1570 -0.0928
 1190TIP3    H125061   2.066   0.453  12.349  0.8139 -0.4144 -0.0906
 1190TIP3    H225062   2.060   0.373  12.221 -1.6716  1.1578 -1.0373
 1191TIP3   OH225063   2.558   6.590   4.332  0.2573 -0.0578 -0.1414
 1191TIP3    H125064   2.651   6.584   4.310  0.3614  0.9146 -0.0316
 1191TIP3    H225065   2.552   6.666   4.390 -0.8269  0.9218 -1.4587
 1192TIP3   OH225066   1.534   0.385  14.842  0.1021  0.5834 -0.4183
 1192TIP3    H125067   1.539   0.451  14.911  1.5322 -0.3882  0.4625
 1192TIP3    H225068   1.477   0.424  14.775 -1.2627  1.5805  1.2550
 1193TIP3   OH225069   2.961   0.570   2.759 -0.5503  0.2069  0.0040
 1193TIP3    H125070   2.932   0.479   2.765  0.8936 -0.2477  0.5920
 1193TIP3    H225071   3.023   0.571   2.685 -0.0637  0.5670  0.4115
 1194TIP3   OH225072   0.197   2.848  11.999  0.0270 -0.1807 -0.0128
 1194TIP3    H125073   0.171   2.931  11.960  1.4756  0.0615 -0.5415
 1194TIP3    H225074   0.185   2.860  12.093  1.4833  1.1489  0.0501
 1195TIP3   OH225075   2.019   6.580   5.650 -0.0224 -0.4639  0.2631
 1195TIP3    H125076   2.020   6.675   5.665  1.2049 -0.1600 -1.5599
 1195TIP3    H225077   2.080   6.566   5.578 -1.5258 -2.4410 -0.7090
 1196TIP3   OH225078   5.435   2.818   0.372 -0.3556  0.4994 -0.6308
 1196TIP3    H125079   5.522   2.826   0.410 -1.0774 -0.5803  1.4075
 1196TIP3    H225080   5.432   2.886   0.304  1.3855  1.8824  0.5720
 1197TIP3   OH225081   4.231   2.592  16.126 -0.2675  0.3070  0.5306
 1197TIP3    H125082   4.168   2.550  16.068  0.3507 -0.1562  0.1758
 1197TIP3    H225083   4.202   2.570  16.214 -0.2483 -0.4212  0.3579
 1198TIP3   OH225084   1.446   4.528  14.612 -0.5244  0.2222  0.3779
 1198TIP3    H125085   1.458   4.581  14.691  1.1234  0.6616 -0.1513
 1198TIP3    H225086   1.419   4.590  14.545  0.0815  0.1858  0.0941
 1199TIP3   OH225087   3.959   4.882  14.239  0.3571 -0.0405 -0.2112
 1199TIP3    H125088   3.898   4.954  14.221  0.1271 -0.3515 -0.6861
 1199TIP3    H225089   4.021   4.884  14.166  0.9988  0.3514  0.3339
 1200TIP3   OH225090   5.412   3.705   5.696 -0.0618  0.2552 -0.3692
 1200TIP3    H125091   5.444   3.645   5.764  1.4055  2.3743  0.9239
 1200TIP3    H225092   5.322   3.678   5.681  0.6746 -2.6475 -0.3394
 1201TIP3   OH225093   0.632   4.495   1.305 -0.3612 -0.7159 -0.2470
 1201TIP3    H125094   0.596   4.456   1.226 -0.7982  0.3787 -0.6121
 1201TIP3    H225095   0.597   4.442   1.376  0.1401 -1.7909 -0.7885
 1202TIP3   OH225096   6.515   0.250   3.227  0.3248 -0.0881  0.4111
 1202TIP3    H125097   6.425   0.282   3.221  0.2880 -0.4009 -1.0322
 1202TIP3    H225098   6.553   0.268   3.141  1.8071  0.4774  1.1485
 1203TIP3   OH225099   1.589   0.288   5.660  0.0515  0.0368 -0.2953
 1203TIP3    H125100   1.664   0.288   5.720 -0.1066  0.0435 -0.0965
 1203TIP3    H225101   1.600   0.208   5.609 -0.1389 -0.2840  0.1586
 1204TIP3   OH225102   1.066   5.068  13.484 -0.1601 -0.5160 -0.0985
 1204TIP3    H125103   1.006   5.132  13.523 -1.5090 -1.0479 -1.2191
 1204TIP3    H225104   1.013   5.022  13.419  1.6734 -0.4695 -1.7146
 1205TIP3   OH225105   5.735   6.274   6.402  0.1416  0.5700 -0.3564
 1205TIP3    H125106   5.687   6.340   6.352 -0.3031  1.0444  0.6611
 1205TIP3    H225107   5.684   6.194   6.392 -0.2900  0.8178 -0.1348
 1206TIP3   OH225108   2.738   1.382  15.215  0.3211  0.0601 -0.2295
 1206TIP3    H125109   2.794   1.458  15.236  1.7045 -0.2419 -2.4388
 1206TIP3    H225110   2.681   1.414  15.145  0.8525 -0.8698 -1.1109
 1207TIP3   OH225111   2.593   4.329  12.326 -0.9129 -0.2905 -0.2948
 1207TIP3    H125112   2.667   4.346  12.268 -1.7517  0.0962 -1.2901
 1207TIP3    H225113   2.581   4.412  12.373 -0.8966 -0.2580 -0.3464
 1208TIP3   OH225114   0.295   1.595   2.166 -0.2589  0.7438  0.3849
 1208TIP3    H125115   0.273   1.504   2.148 -0.1527  0.8836 -0.4885
 1208TIP3    H225116   0.218   1.645   2.140 -0.3308  0.9033  0.8944
 1209TIP3   OH225117   6.627   1.499  16.325 -0.2226 -0.4521 -0.2948
 1209TIP3    H125118   6.586   1.426  16.372  0.0304 -0.5082 -0.1569
 1209TIP3    H225119   6.554   1.548  16.288 -0.7193  1.4314  2.7903
 1210TIP3   OH225120   2.145   1.915   5.421  0.1420 -0.0687 -0.5752
 1210TIP3    H125121   2.237   1.939   5.432  0.9048 -1.4277 -3.1660
 1210TIP3    H225122   2.108   1.983   5.365 -0.1076 -0.1354 -0.4924
 1211TIP3   OH225123   4.893   3.468  12.604 -0.4640  0.2836 -0.4186
 1211TIP3    H125124   4.963   3.466  12.538 -0.6662 -2.5041 -0.6665
 1211TIP3    H225125   4.936   3.440  12.685 -0.9042  0.4516 -0.1233
 1212TIP3   OH225126   0.475   1.348  13.501 -0.0859  0.0069 -0.7215
 1212TIP3    H125127   0.391   1.381  13.534  0.8856  0.8343  1.1244
 1212TIP3    H225128   0.503   1.413  13.437 -0.7362 -0.1551 -1.1774
 1213TIP3   OH225129   6.681   0.273  16.776 -1.0728  0.0367  0.3150
 1213TIP3    H125130   6.721   0.337  16.834 -0.4188 -0.3912  0.3525
 1213TIP3    H225131   6.608   0.237  16.827 -0.1204 -0.7887  1.1359
 1214TIP3   OH225132   0.846   0.335  11.807  0.1304  0.7059 -0.0474
 1214TIP3    H125133   0.832   0.271  11.738  0.7261  0.8238 -0.2825
 1214TIP3    H225134   0.935   0.319  11.838  0.7976  2.2747 -1.0283
 1215TIP3   OH225135   4.373   5.143  13.325 -0.2154  0.4514  0.8335
 1215TIP3    H125136   4.324   5.091  13.260  0.9465 -0.4555  0.6589
 1215TIP3    H225137   4.338   5.115  13.409  1.0328 -1.3519  0.7992
 1216TIP3   OH225138   1.454   4.558   3.479  0.5224 -0.0130 -0.2642
 1216TIP3    H125139   1.425   4.542   3.569 -0.1420  0.5803 -0.3706
 1216TIP3    H225140   1.379   4.533   3.425  0.1077  1.7183 -0.5327
 1217TIP3   OH225141   6.168   3.167   3.307 -0.4988 -0.1690 -0.1639
 1217TIP3    H125142   6.152   3.073   3.319 -1.6519 -0.2189 -1.8225
 1217TIP3    H225143   6.112   3.192   3.234 -0.4014  1.8837  0.4038
 1218TIP3   OH225144   1.320   2.701  13.550 -0.1922  0.0310  0.4204
 1218TIP3    H125145   1.279   2.627  13.506  0.3133  0.7083 -1.2736
 1218TIP3    H225146   1.300   2.688  13.643  0.3261 -2.4979  0.2534
 1219TIP3   OH225147   4.392   3.306  13.670  0.1372  0.1285 -0.3284
 1219TIP3    H125148   4.485   3.326  13.661  0.0085  1.0882  0.4043
 1219TIP3    H225149   4.382   3.279  13.761 -0.3739  0.4396 -0.2908
 1220TIP3   OH225150   0.342   1.579  11.604 -0.3836  0.2589 -0.6081
 1220TIP3    H125151   0.364   1.500  11.653 -0.2914 -0.0694 -1.1731
 1220TIP3    H225152   0.331   1.646  11.671  1.4740  0.2455 -0.2271
 1221TIP3   OH225153   5.027   5.517   1.422 -0.4432 -0.4165  0.0940
 1221TIP3    H125154   4.949   5.497   1.371  0.0203  0.3206 -0.9199
 1221TIP3    H225155   4.993   5.549   1.506 -1.2275  0.0402 -0.3903
 1222TIP3   OH225156   3.486   6.233   4.708  0.0316  0.4585 -0.0225
 1222TIP3    H125157   3.404   6.231   4.758 -0.1733 -1.4799 -0.3743
 1222TIP3    H225158   3.493   6.324   4.678 -0.8217  1.2245  1.8798
 1223TIP3   OH225159   3.176   3.913  14.356  0.1191 -1.0274 -0.3808
 1223TIP3    H125160   3.146   3.987  14.409  0.0458 -0.2507 -1.4754
 1223TIP3    H225161   3.209   3.849  14.420 -0.1596 -0.2114  0.5983
 1224TIP3   OH225162   3.627   6.624  14.631 -0.6490 -0.8586  0.2913
 1224TIP3    H125163   3.616   6.701  14.687  2.2733  0.6813 -0.9832
 1224TIP3    H225164   3.552   6.626  14.571 -2.8009 -1.4584  2.7929
 1225TIP3   OH225165   0.076   1.263  15.407 -0.6276  0.3226  0.1044
 1225TIP3    H125166   0.117   1.181  15.436  0.8612 -0.0584 -2.7009
 1225TIP3    H225167  -0.018   1.246  15.414 -0.3381 -1.0681  0.9941
 1226TIP3   OH225168   6.255   0.304   2.509 -0.1115 -0.1699  0.4582
 1226TIP3    H125169   6.192   0.359   2.557 -1.7052 -0.2233 -1.4459
 1226TIP3    H225170   6.228   0.215   2.530 -1.7348 -0.2142 -1.5350
 1227TIP3   OH225171   3.457   5.123  14.910  0.5381 -0.0490 -0.2486
 1227TIP3    H125172   3.395   5.193  14.886  0.9392  1.1890  2.0788
 1227TIP3    H225173   3.514   5.163  14.975  2.3551 -1.8642 -0.6458
 1228TIP3   OH225174   2.239   4.820   3.527 -0.1696 -0.5090 -0.0794
 1228TIP3    H125175   2.209   4.752   3.588 -0.8191 -0.0443  0.1286
 1228TIP3    H225176   2.195   4.799   3.445  0.4889 -0.9727 -0.3222
 1229TIP3   OH225177   0.438   1.072   2.223 -0.0718 -0.2667  0.0064
 1229TIP3    H125178   0.486   1.010   2.168  1.3318  0.2777  0.5772
 1229TIP3    H225179   0.464   1.049   2.312 -2.2335 -1.0769  0.4922
 1230TIP3   OH225180   1.274   5.442   6.410 -0.2440  0.0514  0.2719
 1230TIP3    H125181   1.366   5.438   6.435 -0.1766  0.1462  0.0463
 1230TIP3    H225182   1.231   5.375   6.463  0.0177 -0.2481  0.1061
 1231TIP3   OH225183   5.142   5.090   1.075  0.5702  0.0571  0.4108
 1231TIP3    H125184   5.166   5.091   0.982 -1.6199  0.2142 -0.2230
 1231TIP3    H225185   5.065   5.033   1.078  0.3505  0.4108  2.0736
 1232TIP3   OH225186   5.737   6.774  11.476  0.8816 -0.4263  0.5250
 1232TIP3    H125187   5.742   6.691  11.523 -0.1232  0.0401  1.4828
 1232TIP3    H225188   5.665   6.763  11.414 -0.3356  0.2645  1.7794
 1233TIP3   OH225189   4.291   6.340   0.592 -0.0965 -0.3161 -0.6031
 1233TIP3    H125190   4.268   6.278   0.661  1.3701  0.6255  0.8199
 1233TIP3    H225191   4.385   6.355   0.604 -0.1967  1.3549 -1.5821
 1234TIP3   OH225192   4.637   0.275  16.989  0.0830  0.4954 -0.3079
 1234TIP3    H125193   4.571   0.344  16.979  1.2616  1.7464  0.2916
 1234TIP3    H225194   4.652   0.270  17.083 -1.1794 -1.7980 -0.1464
 1235TIP3   OH225195   5.982   3.922   5.653 -0.1917  0.3221 -0.0785
 1235TIP3    H125196   6.053   3.968   5.609 -0.0493  0.5908  0.4234
 1235TIP3    H225197   6.025   3.873   5.723 -0.0989 -1.9776 -1.6429
 1236TIP3   OH225198   4.324   2.029   1.715 -0.1888 -0.3523  0.5961
 1236TIP3    H125199   4.233   2.000   1.710  0.1733 -1.3738 -0.3322
 1236TIP3    H225200   4.349   2.013   1.806 -0.4193 -1.7120  0.4402
 1237TIP3   OH225201   0.795   5.525  13.107 -0.3308  0.0578  0.0755
 1237TIP3    H125202   0.810   5.454  13.045 -0.0663 -1.0745  1.3891
 1237TIP3    H225203   0.874   5.528  13.160 -1.3676 -0.4203  1.7105
 1238TIP3   OH225204   3.860   5.575   1.478 -0.3934  0.3040  0.0588
 1238TIP3    H125205   3.843   5.521   1.401  2.0419  0.1960 -0.4871
 1238TIP3    H225206   3.846   5.665   1.447  3.1428  0.4949 -1.4536
 1239TIP3   OH225207   0.593   0.642   0.565 -0.1257  0.5213 -0.3979
 1239TIP3    H125208   0.671   0.695   0.585  0.3564 -0.0856 -0.6599
 1239TIP3    H225209   0.623   0.576   0.503 -0.3476 -1.0227  1.0674
 1240TIP3   OH225210   6.528   5.153  16.957 -0.5702  0.2410  0.5664
 1240TIP3    H125211   6.527   5.120  16.867 -0.5877  0.3647  0.5218
 1240TIP3    H225212   6.494   5.080  17.010  0.0382 -0.0586  0.5528
 1241TIP3   OH225213   3.014   1.683  14.936 -0.7003  0.2067  0.0385
 1241TIP3    H125214   3.073   1.609  14.952 -0.5816  0.0984 -0.8670
 1241TIP3    H225215   3.073   1.758  14.923 -0.8202  0.4796  0.9712
 1242TIP3   OH225216   5.218   1.255   4.237 -0.0894  0.3562  0.2850
 1242TIP3    H125217   5.268   1.234   4.316  1.2072  1.5315 -0.2026
 1242TIP3    H225218   5.242   1.187   4.175  1.3380  1.2075 -0.1175
 1243TIP3   OH225219   6.251   1.444  13.936 -0.8005 -0.0797 -0.3445
 1243TIP3    H125220   6.340   1.478  13.937 -1.3002  1.3247  0.1860
 1243TIP3    H225221   6.242   1.401  13.852  0.0356  0.7486 -0.8819
 1244TIP3   OH225222   0.077   0.871   5.058  0.2561  0.2459 -0.1326
 1244TIP3    H125223   0.138   0.803   5.029 -0.0908 -0.2799  0.3472
 1244TIP3    H225224   0.060   0.851   5.150  0.0721  0.9265 -0.0109
 1245TIP3   OH225225   0.980   3.716  15.784  0.0407 -0.3986 -0.3673
 1245TIP3    H125226   1.024   3.801  15.786 -0.8863  0.1466 -1.6330
 1245TIP3    H225227   0.903   3.731  15.729 -0.4344 -1.9239 -0.1455
 1246TIP3   OH225228   4.040   5.564   5.120  0.2276 -0.3582 -0.1072
 1246TIP3    H125229   4.003   5.647   5.090 -1.0698 -1.9925 -3.5635
 1246TIP3    H225230   3.970   5.524   5.171 -0.2237 -0.5200 -0.8447
 1247TIP3   OH225231   0.394   5.852   5.539  0.5340 -0.2210  0.2105
 1247TIP3    H125232   0.443   5.781   5.497 -0.3395 -1.1176  0.6654
 1247TIP3    H225233   0.420   5.847   5.631  0.7726  0.3190  0.1765
 1248TIP3   OH225234   4.841   6.819   6.518  0.4340  0.2057  0.0703
 1248TIP3    H125235   4.918   6.873   6.534  0.1801  0.8168 -0.6903
 1248TIP3    H225236   4.768   6.871   6.551  0.1202  0.6305 -1.2294
 1249TIP3   OH225237   0.197   4.680   2.567 -0.1534 -0.4239 -0.3803
 1249TIP3    H125238   0.192   4.651   2.659 -1.6898  0.3951 -0.1684
 1249TIP3    H225239   0.202   4.598   2.517  1.5653 -0.8685  0.4314
 1250TIP3   OH225240   2.294   1.956  17.104 -0.0620 -0.2248 -0.1675
 1250TIP3    H125241   2.210   1.971  17.146  0.3563 -1.1143  1.0510
 1250TIP3    H225242   2.289   1.866  17.072  1.0950 -0.9868  1.6455
 1251TIP3   OH225243   1.014   6.211   0.710 -0.0058 -0.6427 -0.2254
 1251TIP3    H125244   1.070   6.138   0.684 -0.4302 -0.6259 -1.2527
 1251TIP3    H225245   0.925   6.174   0.710 -0.1330 -0.3430  0.1004
 1252TIP3   OH225246   3.115   3.861   2.937 -0.2550 -0.1764  0.6718
 1252TIP3    H125247   3.050   3.887   3.003 -0.1410 -0.0801  0.7462
 1252TIP3    H225248   3.070   3.796   2.883 -0.0468 -0.9783  1.4303
 1253TIP3   OH225249   1.872   5.483   4.329  0.1210  0.4929  0.1253
 1253TIP3    H125250   1.872   5.453   4.420  0.7150 -1.0168 -0.3419
 1253TIP3    H225251   1.961   5.512   4.313  0.2484 -0.0759 -0.2235
 1254TIP3   OH225252   6.225   5.454   3.062 -0.1554  0.1739  0.0695
 1254TIP3    H125253   6.268   5.540   3.065  0.2666 -0.0613  0.9513
 1254TIP3    H225254   6.149   5.463   3.119  0.1596 -0.1710  0.5576
 1255TIP3   OH225255   6.673   6.090   3.566 -0.1392  0.2333 -0.1209
 1255TIP3    H125256   6.590   6.102   3.611 -0.9666 -0.1415 -1.4802
 1255TIP3    H225257   6.658   6.124   3.478  0.4850 -1.7033 -1.0347
 1256TIP3   OH225258   6.420   1.994  11.051 -0.4383  0.0135  0.2509
 1256TIP3    H125259   6.443   1.901  11.052 -0.1621  0.0845  0.4893
 1256TIP3    H225260   6.431   2.022  11.142 -1.0411  0.1538  0.2870
 1257TIP3   OH225261   5.943   5.861   0.036 -0.7178  0.0411  0.2644
 1257TIP3    H125262   5.965   5.939   0.088 -0.7191  1.9732 -2.4126
 1257TIP3    H225263   5.850   5.847   0.053 -0.6305  0.3798  1.0781
 1258TIP3   OH225264   3.457   5.040  11.616 -0.0864 -0.3714 -0.0872
 1258TIP3    H125265   3.430   5.125  11.649 -1.1618 -0.7055 -0.0782
 1258TIP3    H225266   3.501   4.998  11.689 -1.6208 -0.7366  0.6619
 1259TIP3   OH225267   0.958   2.489   4.392 -0.1903  0.5836 -0.3522
 1259TIP3    H125268   0.993   2.554   4.331 -1.0599  1.0333 -0.3936
 1259TIP3    H225269   0.934   2.540   4.470  1.6986 -0.0932  0.7561
 1260TIP3   OH225270   5.972   3.066  12.469 -0.0716 -0.0086 -0.3191
 1260TIP3    H125271   5.890   3.019  12.457  0.1868 -0.3334 -0.8313
 1260TIP3    H225272   5.979   3.077  12.564 -0.7922  0.1811 -0.2822
 1261TIP3   OH225273   2.116   1.793   6.338  0.0220 -0.3407 -0.0529
 1261TIP3    H125274   2.171   1.826   6.266  0.2159  0.2711  0.3693
 1261TIP3    H225275   2.179   1.768   6.406 -0.2028  0.1388  0.3394
 1262TIP3   OH225276   6.255   6.415   5.830  0.1925  0.2267  0.0105
 1262TIP3    H125277   6.325   6.462   5.874 -0.9885 -0.1065  2.3792
 1262TIP3    H225278   6.175   6.462   5.853 -0.6405 -0.8784 -0.4952
 1263TIP3   OH225279   4.586   5.616  13.880 -0.1340 -0.0704  0.5486
 1263TIP3    H125280   4.495   5.620  13.908 -0.3962 -0.3926 -0.2318
 1263TIP3    H225281   4.594   5.684  13.813  0.0712 -0.3511  0.2837
 1264TIP3   OH225282   6.199   6.608  15.523 -0.2087 -0.1832  0.7169
 1264TIP3    H125283   6.277   6.565  15.559 -1.1503 -0.9529  1.9129
 1264TIP3    H225284   6.232   6.656  15.446  0.8186 -3.6520 -1.2444
 1265TIP3   OH225285   0.572   1.863  13.995  0.0039 -0.0203 -0.1694
 1265TIP3    H125286   0.616   1.911  13.924  0.9248  0.3648  0.6421
 1265TIP3    H225287   0.529   1.790  13.951 -0.2233  0.7263 -1.2481
 1266TIP3   OH225288   3.502   3.674  16.119  0.0363 -0.6125 -0.3350
 1266TIP3    H125289   3.549   3.681  16.202  1.0157  2.1521 -0.9922
 1266TIP3    H225290   3.569   3.653  16.054 -0.3672 -0.7788 -0.7099
 1267TIP3   OH225291   2.967   1.064   0.553 -0.2513  0.1099 -0.3290
 1267TIP3    H125292   2.909   1.139   0.540 -1.9957 -0.7541  1.6772
 1267TIP3    H225293   3.054   1.096   0.532 -0.5680  3.3957  2.4731
 1268TIP3   OH225294   1.381   1.178  14.413 -0.3807 -0.3494 -0.0925
 1268TIP3    H125295   1.337   1.098  14.384  0.0625 -0.6795  0.1302
 1268TIP3    H225296   1.348   1.246  14.355  1.0817 -1.1213 -1.9293
 1269TIP3   OH225297   2.471   0.313  15.263  0.3394  0.7713  0.8634
 1269TIP3    H125298   2.564   0.303  15.245  0.5546  1.3234  1.6391
 1269TIP3    H225299   2.430   0.239  15.217  1.3865 -0.8695  2.4456
 1270TIP3   OH225300   3.378   6.069   2.113  0.5136  0.3730 -0.1141
 1270TIP3    H125301   3.435   5.993   2.100 -0.4657 -0.2556 -0.9204
 1270TIP3    H225302   3.395   6.124   2.036  0.3335  0.3874 -0.1424
 1271TIP3   OH225303   0.418   4.575  11.641  0.6386  0.3751  0.0759
 1271TIP3    H125304   0.373   4.641  11.694 -1.0862 -0.9298  0.3468
 1271TIP3    H225305   0.386   4.588  11.552  2.1997  1.4369 -0.3802
 1272TIP3   OH225306   1.330   5.304   1.192 -0.2179  0.0157 -0.3242
 1272TIP3    H125307   1.385   5.373   1.154  0.7254 -0.8806 -0.6287
 1272TIP3    H225308   1.254   5.300   1.134 -1.0105  1.7942  0.5369
 1273TIP3   OH225309   2.837   3.207   1.107 -0.7958  0.1528 -0.4672
 1273TIP3    H125310   2.873   3.226   1.193  1.2254 -0.9507 -0.9988
 1273TIP3    H225311   2.770   3.273   1.093 -1.4510  0.1063  2.0990
 1274TIP3   OH225312   4.353   2.452   4.492 -0.1898  0.8614 -0.7721
 1274TIP3    H125313   4.381   2.399   4.418 -0.3993 -0.6226  0.1835
 1274TIP3    H225314   4.395   2.537   4.477  2.0813 -0.2548 -1.1342
 1275TIP3   OH225315   3.240   1.376   0.358  0.2426 -0.2204  0.3479
 1275TIP3    H125316   3.316   1.384   0.301  0.5721 -0.3384  0.7646
 1275TIP3    H225317   3.166   1.367   0.298  0.5210  0.1915 -0.0608
 1276TIP3   OH225318   3.820   2.236  13.966 -0.6609 -0.1417  0.0385
 1276TIP3    H125319   3.796   2.236  13.873  2.3491  0.1752 -0.8567
 1276TIP3    H225320   3.739   2.259  14.012 -2.2023 -0.0992 -2.4901
 1277TIP3   OH225321   5.553   0.124   1.045  0.5348  0.1242 -0.0907
 1277TIP3    H125322   5.595   0.156   0.965  0.2828  1.7357  0.3948
 1277TIP3    H225323   5.467   0.165   1.046  0.7578  0.6201  1.3035
 1278TIP3   OH225324   6.595   6.786   2.267 -0.0243 -0.2986  0.5779
 1278TIP3    H125325   6.615   6.717   2.330  0.6932 -0.3412  0.3088
 1278TIP3    H225326   6.640   6.759   2.186 -0.5983 -0.0412  0.1662
 1279TIP3   OH225327   4.496   0.503  16.016  0.6076 -0.4928 -1.2642
 1279TIP3    H125328   4.416   0.472  16.059  0.8690  0.1274 -0.2650
 1279TIP3    H225329   4.467   0.575  15.961  0.8666  2.8981  2.5131
 1280TIP3   OH225330   1.330   4.153  12.993 -0.2855  0.1493  0.4687
 1280TIP3    H125331   1.355   4.243  12.975 -2.7737  0.9787  0.8635
 1280TIP3    H225332   1.318   4.114  12.906  0.5114  0.2552  0.3005
 1281TIP3   OH225333   0.347   0.915  11.213 -0.5113  0.3061  0.5225
 1281TIP3    H125334   0.384   0.938  11.298 -0.5706 -0.1052  0.6608
 1281TIP3    H225335   0.415   0.938  11.150 -0.7297  1.2584  0.6203
 1282TIP3   OH225336   6.086   0.179   0.918 -0.2340 -0.4538 -0.1549
 1282TIP3    H125337   6.057   0.265   0.949  3.3134  0.9754 -0.3560
 1282TIP3    H225338   6.067   0.179   0.824 -2.3588 -0.9395  0.2189
 1283TIP3   OH225339   1.938   6.450   3.446  0.2062 -0.2450  0.4158
 1283TIP3    H125340   1.966   6.380   3.504  2.2966 -0.1777 -0.4327
 1283TIP3    H225341   1.865   6.412   3.397  0.0421 -1.1470  1.3152
 1284TIP3   OH225342   0.434   2.701   2.069  0.1722 -0.2426  0.4281
 1284TIP3    H125343   0.479   2.784   2.084  0.2951 -0.3600  0.7163
 1284TIP3    H225344   0.478   2.663   1.993 -0.2569  0.2164 -0.0645
 1285TIP3   OH225345   4.311   5.520   0.708  0.4885 -0.5011  0.3643
 1285TIP3    H125346   4.323   5.576   0.785  2.1005 -1.3516  0.7791
 1285TIP3    H225347   4.228   5.475   0.724 -0.3382  1.0020  0.4892
 1286TIP3   OH225348   4.391   4.628   1.714 -0.4765 -0.1900 -0.1587
 1286TIP3    H125349   4.476   4.670   1.701  0.1807 -1.5138 -0.2661
 1286TIP3    H225350   4.404   4.570   1.789 -1.4252 -0.0578  0.1148
 1287TIP3   OH225351   5.675   1.198  16.510  0.2864  0.1519 -0.0569
 1287TIP3    H125352   5.610   1.257  16.473  0.1163 -0.5281 -0.8814
 1287TIP3    H225353   5.674   1.216  16.604 -0.7739  0.4636 -0.1219
 1288TIP3   OH225354   3.776   3.028   3.961  0.3461  0.3907 -0.0454
 1288TIP3    H125355   3.733   3.007   3.878 -0.2875  0.2393  0.3161
 1288TIP3    H225356   3.733   2.971   4.025 -1.6642  2.9411  1.0687
 1289TIP3   OH225357   3.762   3.733   4.981 -0.0147  0.2238 -0.2556
 1289TIP3    H125358   3.740   3.781   4.901 -0.0104  0.0020 -0.3929
 1289TIP3    H225359   3.724   3.785   5.052  1.8836  1.6308 -0.1844
 1290TIP3   OH225360   0.299   3.123  13.527  0.1049 -0.1245  0.0665
 1290TIP3    H125361   0.241   3.166  13.464 -2.2559 -0.9446  1.5248
 1290TIP3    H225362   0.383   3.118  13.482 -1.3517 -0.4499 -2.9235
 1291TIP3   OH225363   3.716   5.941  12.060 -0.4801  0.2581 -0.0722
 1291TIP3    H125364   3.770   5.981  11.992  0.9985  0.6763  1.2804
 1291TIP3    H225365   3.685   5.859  12.020  1.4189 -0.1542 -0.8285
 1292TIP3   OH225366   5.656   0.134   3.751  0.0670  0.6777 -0.5783
 1292TIP3    H125367   5.636   0.202   3.686 -0.0350  0.2622 -0.9861
 1292TIP3    H225368   5.658   0.053   3.701 -0.3206  0.3098 -0.0104
 1293TIP3   OH225369   4.378   6.012  11.971 -0.5086  0.5192  0.0874
 1293TIP3    H125370   4.341   6.060  11.897 -1.4238  0.9266  0.7789
 1293TIP3    H225371   4.330   6.045  12.047  0.9134  0.6540  0.9666
 1294TIP3   OH225372   3.179   6.638   5.516 -0.0142  0.2061  0.4025
 1294TIP3    H125373   3.154   6.694   5.590  1.7949 -0.9992  2.0501
 1294TIP3    H225374   3.148   6.685   5.439  1.9338  3.8990  1.5879
 1295TIP3   OH225375   0.874   4.440  11.936 -1.1514  0.3536  0.1402
 1295TIP3    H125376   0.832   4.360  11.968 -1.5463 -0.5171 -2.3534
 1295TIP3    H225377   0.852   4.443  11.843 -1.1996  3.4351  0.1663
 1296TIP3   OH225378   5.640   5.710   5.092 -0.1249  0.4269  0.7712
 1296TIP3    H125379   5.728   5.677   5.075 -0.8000 -1.4146  0.5805
 1296TIP3    H225380   5.599   5.715   5.005  0.2639  2.8312  0.6759
 1297TIP3   OH225381   2.290   2.226   4.383 -0.1260  0.1067 -0.3482
 1297TIP3    H125382   2.362   2.288   4.374 -0.6627  0.8910  0.5791
 1297TIP3    H225383   2.268   2.201   4.294  0.3985  0.9037 -0.7099
 1298TIP3   OH225384   5.270   4.846   4.335  0.4063  0.0264  0.8196
 1298TIP3    H125385   5.319   4.804   4.405  0.1344 -1.7594  0.0051
 1298TIP3    H225386   5.294   4.796   4.256 -1.4384  0.1502  0.1333
 1299TIP3   OH225387   0.769   1.674   2.338 -0.2423 -0.1752 -0.0690
 1299TIP3    H125388   0.682   1.637   2.349  0.0240 -0.8808 -0.2751
 1299TIP3    H225389   0.808   1.624   2.266  0.4571 -0.1147  0.2530
 1300TIP3   OH225390   1.355   2.629   5.954 -0.2686  0.5165 -0.1047
 1300TIP3    H125391   1.384   2.670   5.872 -1.4812 -1.2380 -1.5034
 1300TIP3    H225392   1.260   2.636   5.951 -0.5019 -1.9905 -0.2466
 1301TIP3   OH225393   3.000   4.437  16.432  0.0229  0.0882 -0.6544
 1301TIP3    H125394   3.060   4.409  16.501 -1.3818 -0.9608  0.2015
 1301TIP3    H225395   2.963   4.519  16.464  0.4851  0.3894 -0.8779
 1302TIP3   OH225396   6.580   5.109  16.387  0.2795  0.1200 -0.0676
 1302TIP3    H125397   6.668   5.119  16.424  1.7177 -1.9434 -2.6675
 1302TIP3    H225398   6.588   5.141  16.297 -1.5493 -0.4942 -0.4817
 1303TIP3   OH225399   1.749   2.300  14.893 -0.1828  0.2427  0.2244
 1303TIP3    H125400   1.742   2.376  14.951 -1.0508 -0.5232  1.1385
 1303TIP3    H225401   1.807   2.240  14.939 -0.6324 -0.2453  0.1559
 1304TIP3   OH225402   0.880   3.112   5.459  0.6473  0.3824 -0.1526
 1304TIP3    H125403   0.843   3.201   5.458  0.2674  0.2398  0.7172
 1304TIP3    H225404   0.808   3.057   5.490  1.0822 -0.1447 -0.0768
 1305TIP3   OH225405   0.903   4.322   0.317  0.3443 -0.4075  0.0906
 1305TIP3    H125406   0.962   4.247   0.304  1.1600  0.3481 -0.6950
 1305TIP3    H225407   0.950   4.396   0.279 -0.0808  0.6912  1.6305
 1306TIP3   OH225408   3.023   3.408   1.878  0.3745  0.6179 -0.0438
 1306TIP3    H125409   3.031   3.504   1.878 -0.5945  0.7148  0.7602
 1306TIP3    H225410   3.099   3.377   1.928  0.3697  0.9959  0.1998
 1307TIP3   OH225411   6.285   0.999  15.288  0.3040 -0.3270  0.5188
 1307TIP3    H125412   6.214   1.004  15.352  1.1969 -0.8189  1.5861
 1307TIP3    H225413   6.322   1.087  15.286  0.3517 -0.3395  0.7812
 1308TIP3   OH225414   3.231   0.941  13.276  0.6581 -0.4884 -0.3762
 1308TIP3    H125415   3.137   0.942  13.261  0.4506  1.6693  0.6841
 1308TIP3    H225416   3.259   1.031  13.260  2.2853 -0.7560  0.7088
 1309TIP3   OH225417   5.314   5.509   2.815 -0.2698  0.4253  0.1066
 1309TIP3    H125418   5.263   5.497   2.894 -1.1020  0.2562 -0.4456
 1309TIP3    H225419   5.300   5.429   2.764 -0.2655  0.8008 -0.4979
 1310TIP3   OH225420   3.756   1.402  15.046  0.0181  0.0615  0.2771
 1310TIP3    H125421   3.800   1.487  15.046 -0.5658  0.3713 -0.2081
 1310TIP3    H225422   3.826   1.338  15.062  0.4820  0.6163  0.4941
 1311TIP3   OH225423   3.835   2.121  12.325 -0.0050  0.2145 -0.1138
 1311TIP3    H125424   3.915   2.159  12.288  1.0237  0.2251  2.0053
 1311TIP3    H225425   3.774   2.195  12.329  1.7393  1.6974  3.2956
 1312TIP3   OH225426   5.838   4.234   4.642 -0.3200  0.3859 -0.3333
 1312TIP3    H125427   5.754   4.192   4.661 -0.9809  0.6450 -2.3921
 1312TIP3    H225428   5.903   4.180   4.685 -1.3939 -1.0713 -0.4774
 1313TIP3   OH225429   5.649   4.464   5.012  0.5828  0.1517 -0.1176
 1313TIP3    H125430   5.708   4.410   5.065  0.8647  0.5790  0.0120
 1313TIP3    H225431   5.561   4.434   5.035  0.7606 -2.0878 -1.9979
 1314TIP3   OH225432   6.624   4.776   4.850 -0.1947  0.9452  0.7040
 1314TIP3    H125433   6.533   4.803   4.853 -0.2533  0.7079  1.8635
 1314TIP3    H225434   6.667   4.833   4.915  0.1295 -0.0956  1.4345
 1315TIP3   OH225435   6.810   1.235  16.951  0.3043 -0.6601 -0.7100
 1315TIP3    H125436   6.791   1.275  17.035  0.6188 -1.6678 -0.1444
 1315TIP3    H225437   6.898   1.265  16.929 -1.1614  2.8967 -2.6776
 1316TIP3   OH225438   4.971   3.938  17.053  0.4360 -0.3116  0.2223
 1316TIP3    H125439   4.941   3.848  17.042 -1.8136  0.1958  1.6343
 1316TIP3    H225440   4.923   3.971  17.129  0.5429  2.3490 -0.7452
 1317TIP3   OH225441   3.669   5.372   5.950  1.1401 -0.4499  0.3740
 1317TIP3    H125442   3.645   5.391   6.041 -0.3499 -0.0845 -0.0632
 1317TIP3    H225443   3.746   5.316   5.957  0.7618 -0.8338  1.8779
 1318TIP3   OH225444   5.455   5.071  15.830 -0.2604 -0.1154  0.5419
 1318TIP3    H125445   5.423   4.995  15.879  0.8710 -1.3406 -0.5202
 1318TIP3    H225446   5.391   5.083  15.760 -0.9021  0.4786  1.2177
 1319TIP3   OH225447   2.538   5.858   3.756  0.4377  0.1655 -0.0794
 1319TIP3    H125448   2.566   5.768   3.744  0.6212  0.4341 -2.0043
 1319TIP3    H225449   2.444   5.857   3.738  0.7895  0.6496 -2.2502
 1320TIP3   OH225450   4.116   1.504   2.232 -0.5154  0.0532  0.1885
 1320TIP3    H125451   4.046   1.523   2.294 -2.1790  1.1611 -1.9011
 1320TIP3    H225452   4.164   1.586   2.224  0.3318 -0.3714  0.7172
 1321TIP3   OH225453   0.786   3.266   4.721 -0.6858  0.4976  0.6254
 1321TIP3    H125454   0.715   3.257   4.657 -0.8931  1.3761  0.7158
 1321TIP3    H225455   0.863   3.230   4.677 -1.1116 -0.1353  0.3896
 1322TIP3   OH225456   4.133   3.029  11.565  0.4710 -0.2745  0.3062
 1322TIP3    H125457   4.226   3.049  11.574  0.7986 -1.1456 -0.8733
 1322TIP3    H225458   4.114   3.041  11.471 -1.6517  4.0543  1.0404
 1323TIP3   OH225459   0.318   2.007   6.132 -0.4194 -0.2301  0.0099
 1323TIP3    H125460   0.232   2.011   6.089 -1.3440  0.4860  1.8141
 1323TIP3    H225461   0.327   1.916   6.160 -0.9657 -0.1371  0.5063
 1324TIP3   OH225462   3.828   4.849   3.874 -0.7170 -0.9816 -0.5604
 1324TIP3    H125463   3.893   4.781   3.861  0.8623  0.5655 -1.0509
 1324TIP3    H225464   3.827   4.864   3.969  0.3249 -0.3746 -0.6410
 1325TIP3   OH225465   3.917   4.371  14.667 -0.2052 -0.0333 -0.0945
 1325TIP3    H125466   3.924   4.295  14.609  1.2027  0.6564 -0.8928
 1325TIP3    H225467   3.824   4.389  14.672 -0.4639 -1.0024 -0.9751
 1326TIP3   OH225468   5.882   2.912   4.512  0.3785  0.0598  0.1135
 1326TIP3    H125469   5.910   2.994   4.472  0.9892 -0.4018 -0.4445
 1326TIP3    H225470   5.814   2.878   4.454 -1.1964  1.0335  1.3104
 1327TIP3   OH225471   1.895   0.942  14.192 -0.2661 -0.1646 -0.0478
 1327TIP3    H125472   1.800   0.932  14.185 -0.1692 -1.2682  0.0645
 1327TIP3    H225473   1.907   1.017  14.251 -1.0578  0.3505 -0.5241
 1328TIP3   OH225474   0.957   4.641   3.673 -0.1092 -0.2238  0.1225
 1328TIP3    H125475   0.902   4.641   3.594 -0.1979 -1.0578  0.1761
 1328TIP3    H225476   0.959   4.549   3.700  1.0110 -0.1469  0.3306
 1329TIP3   OH225477   3.876   6.006  14.354  0.6444 -0.2116 -0.0342
 1329TIP3    H125478   3.897   5.957  14.435 -0.4025  0.3240  0.5796
 1329TIP3    H225479   3.781   5.995  14.344  0.9989 -1.9592 -2.3319
 1330TIP3   OH225480   6.815   4.908   1.849  0.0156 -0.0598  0.0022
 1330TIP3    H125481   6.801   4.953   1.933  1.9985  1.4151 -0.3819
 1330TIP3    H225482   6.727   4.879   1.823 -0.7785  0.1792  2.1600
 1331TIP3   OH225483   5.012   4.808  14.397  0.1103 -0.3178  0.2792
 1331TIP3    H125484   5.021   4.879  14.461  1.2805 -0.5539  0.4072
 1331TIP3    H225485   4.994   4.731  14.451  0.3952 -0.3924  0.2681
 1332TIP3   OH225486   4.463   0.668   0.543 -0.2661 -0.2442  0.2958
 1332TIP3    H125487   4.427   0.662   0.455 -0.3723  3.6748 -0.0988
 1332TIP3    H225488   4.430   0.751   0.577  2.0695 -0.2602  2.9659
 1333TIP3   OH225489   1.804   4.305   3.633 -0.0511 -0.2807  0.6500
 1333TIP3    H125490   1.815   4.214   3.659  1.1510 -0.4244 -0.3113
 1333TIP3    H225491   1.725   4.305   3.579  0.8033 -1.0710 -0.6656
 1334TIP3   OH225492   5.213   4.555  17.017 -0.3186  0.4277 -0.0530
 1334TIP3    H125493   5.139   4.574  16.960 -0.2286  1.8640  0.2801
 1334TIP3    H225494   5.191   4.594  17.101  0.1369 -0.5123  0.5301
 1335TIP3   OH225495   4.917   1.749   3.386  0.2186  0.4668 -0.6836
 1335TIP3    H125496   5.008   1.755   3.416 -0.6511  2.5589  1.9440
 1335TIP3    H225497   4.892   1.840   3.369 -1.4756 -0.0393 -1.0718
 1336TIP3   OH225498   1.101   0.993   1.192 -0.1069 -0.0942 -0.2167
 1336TIP3    H125499   1.074   0.939   1.266  0.9674 -1.0029 -0.4532
 1336TIP3    H225500   1.036   1.063   1.188 -0.8148 -0.6584  0.8856
 1337TIP3   OH225501   1.532   4.943  16.876 -0.0748  0.0427 -0.3492
 1337TIP3    H125502   1.557   4.931  16.784 -1.1872 -0.5711 -0.5844
 1337TIP3    H225503   1.503   5.034  16.881  2.9629  1.1244  0.1474
 1338TIP3   OH225504   6.300   2.940   5.990 -0.3075  0.3164 -0.0208
 1338TIP3    H125505   6.205   2.947   5.995 -0.3622 -0.5548  0.3605
 1338TIP3    H225506   6.316   2.892   5.909 -0.1847  0.5633 -0.1433
 1339TIP3   OH225507   6.590   5.642   0.004 -0.4140 -0.0431 -0.1940
 1339TIP3    H125508   6.580   5.562  -0.047 -0.5815 -1.2747  1.6774
 1339TIP3    H225509   6.627   5.613   0.087 -1.3348  1.6869  0.8810
 1340TIP3   OH225510   1.978   4.083  15.600  0.1753  0.4614 -0.4236
 1340TIP3    H125511   1.972   4.090  15.695  0.4107  0.4896 -0.4083
 1340TIP3    H225512   2.059   4.033  15.585  0.5410  1.1027 -0.6239
 1341TIP3   OH225513   4.045   1.828   2.551  0.7725 -0.2376 -0.0542
 1341TIP3    H125514   4.140   1.832   2.561  0.8220 -1.0918 -0.1010
 1341TIP3    H225515   4.015   1.917   2.567  1.5701  0.0090  0.0915
 1342TIP3   OH225516   0.590   0.428   6.260 -0.0332 -0.2578 -0.2351
 1342TIP3    H125517   0.567   0.362   6.325 -0.6445 -0.3215 -0.5188
 1342TIP3    H225518   0.684   0.413   6.244  0.9021  1.5105  2.6752
 1343TIP3   OH225519   2.343   2.694   0.764  0.1140  0.3882  0.4605
 1343TIP3    H125520   2.262   2.736   0.794 -0.3269 -0.1893  0.1135
 1343TIP3    H225521   2.313   2.613   0.721  0.8668  0.2358  0.2087
 1344TIP3   OH225522   2.276   6.619   6.977  0.0934  0.1309 -0.1874
 1344TIP3    H125523   2.217   6.544   6.977 -0.7036  0.7377  0.5877
 1344TIP3    H225524   2.363   6.580   6.969 -0.4269 -0.7205 -2.3591
 1345TIP3   OH225525   6.711   2.598  12.647 -0.5077  0.1431 -0.4327
 1345TIP3    H125526   6.618   2.584  12.634 -1.2413  1.4896  2.4829
 1345TIP3    H225527   6.741   2.522  12.696 -0.3888  0.3214 -0.2243
 1346TIP3   OH225528   3.953   0.608   1.351 -0.4481  0.3632  0.0609
 1346TIP3    H125529   3.870   0.651   1.370 -0.0413  0.6185  1.3718
 1346TIP3    H225530   3.934   0.552   1.276 -1.9274  0.0522  0.6311
 1347TIP3   OH225531   0.253   2.153  10.698  0.2432 -0.1463  0.4335
 1347TIP3    H125532   0.211   2.072  10.670  0.4026  0.2088 -0.9324
 1347TIP3    H225533   0.341   2.148  10.660  0.1526  0.7816  0.0798
 1348TIP3   OH225534   4.276   3.702   0.399 -0.0968  0.1179 -0.0850
 1348TIP3    H125535   4.340   3.732   0.335  1.2571 -0.2236  1.0559
 1348TIP3    H225536   4.276   3.769   0.468 -1.4573  0.4364 -0.3595
 1349TIP3   OH225537   2.228   1.020  15.218  0.6294 -0.0799 -0.6309
 1349TIP3    H125538   2.187   1.105  15.200  1.0374  0.2717  0.0403
 1349TIP3    H225539   2.311   1.023  15.170  2.4556  1.4882  2.3067
 1350TIP3   OH225540   1.211   4.633  16.003 -0.0093  0.1172 -0.0548
 1350TIP3    H125541   1.268   4.708  16.022 -0.0309 -0.4236  2.4559
 1350TIP3    H225542   1.222   4.575  16.078 -1.6083 -1.4199 -0.9413
 1351TIP3   OH225543   3.838   4.908   2.115 -0.1135  0.6157  0.1845
 1351TIP3    H125544   3.925   4.887   2.148 -0.0648 -0.4420 -0.5816
 1351TIP3    H225545   3.779   4.852   2.165 -0.3557  1.2603  0.6351
 1352TIP3   OH225546   5.400   6.214   4.648 -0.6981  0.0561  0.0298
 1352TIP3    H125547   5.329   6.275   4.626 -2.3229 -1.0809  1.7982
 1352TIP3    H225548   5.381   6.136   4.595  0.3954  0.4230 -0.9466
 1353TIP3   OH225549   4.785   1.016  13.240  0.1184 -0.0941 -0.0809
 1353TIP3    H125550   4.728   1.093  13.236 -1.3964 -1.2092 -2.2606
 1353TIP3    H225551   4.731   0.945  13.206  2.0584 -1.7506  0.1275
 1354TIP3   OH225552   2.988   5.218  12.776 -0.4024  0.1477  0.7506
 1354TIP3    H125553   3.022   5.239  12.688 -0.5127 -1.6044  0.2586
 1354TIP3    H225554   2.902   5.259  12.778  0.2431  1.6003  0.6840
 1355TIP3   OH225555   3.321   6.589   4.211 -0.3921  0.7221 -0.4188
 1355TIP3    H125556   3.253   6.532   4.177 -2.3775  2.8479 -0.2209
 1355TIP3    H225557   3.369   6.618   4.134 -2.6939  2.8087 -1.1804
 1356TIP3   OH225558   3.627   3.635  15.333 -0.3303  0.9110 -0.3395
 1356TIP3    H125559   3.590   3.625  15.246 -0.8227 -1.0126  0.0338
 1356TIP3    H225560   3.626   3.729  15.350 -0.7212  1.2671 -2.1769
 1357TIP3   OH225561   0.827   0.664  13.900  0.9630 -0.3132  0.1862
 1357TIP3    H125562   0.802   0.724  13.971  0.8861  1.0662 -0.9562
 1357TIP3    H225563   0.756   0.672  13.836  1.3322 -1.0677 -0.3273
 1358TIP3   OH225564   4.602   2.493  12.246  0.2592  0.2175 -0.1850
 1358TIP3    H125565   4.596   2.464  12.155 -0.7994 -2.3601  0.6108
 1358TIP3    H225566   4.569   2.583  12.245 -1.9776 -0.5145 -2.0562
 1359TIP3   OH225567   2.303   0.333   4.373  0.2442  0.0799  0.3762
 1359TIP3    H125568   2.211   0.354   4.390  0.0927 -0.3011  0.0569
 1359TIP3    H225569   2.350   0.415   4.387 -0.4251  0.8849 -1.7145
 1360TIP3   OH225570   4.538   0.530   1.882 -0.1031 -0.2936 -1.2701
 1360TIP3    H125571   4.462   0.560   1.832  0.4674  0.8284 -1.5001
 1360TIP3    H225572   4.599   0.498   1.815  0.0663 -0.1583 -1.1817
 1361TIP3   OH225573   5.860   5.908  11.436 -0.1711 -0.0229 -0.0819
 1361TIP3    H125574   5.932   5.969  11.454  1.6059 -1.8558 -0.6727
 1361TIP3    H225575   5.881   5.830  11.488 -1.4973 -0.7839 -0.6322
 1362TIP3   OH225576   0.635   1.165  14.650 -0.2118  0.8671 -0.2733
 1362TIP3    H125577   0.640   1.220  14.572 -1.1098  0.1777 -0.8287
 1362TIP3    H225578   0.725   1.132  14.661 -0.1147  0.8196 -1.1285
 1363TIP3   OH225579   6.255   5.693   5.219  0.6066  0.0722 -0.1586
 1363TIP3    H125580   6.197   5.628   5.258 -0.6396  2.0469  1.4744
 1363TIP3    H225581   6.203   5.732   5.149  0.3064  1.1426  0.6414
 1364TIP3   OH225582   4.193   4.831  16.127 -0.3275  0.3153  0.2274
 1364TIP3    H125583   4.285   4.822  16.150  0.0277  0.2594 -1.1188
 1364TIP3    H225584   4.146   4.793  16.201  0.8133 -2.2970 -0.2699
 1365TIP3   OH225585   2.427   1.161  11.244 -0.3877 -0.2904  0.0432
 1365TIP3    H125586   2.466   1.148  11.158  0.1622 -0.5787  0.3270
 1365TIP3    H225587   2.467   1.241  11.277 -1.3850  0.4048 -0.3915
 1366TIP3   OH225588   0.266   2.855  15.400  0.9638  0.1335  0.0968
 1366TIP3    H125589   0.308   2.786  15.349  0.4255 -0.4654  0.4604
 1366TIP3    H225590   0.173   2.838  15.391  0.7767  1.3492 -0.5599
 1367TIP3   OH225591   1.234   1.869   0.124  0.9511 -0.0935  0.1008
 1367TIP3    H125592   1.258   1.809   0.195 -2.5105 -0.5900  1.0471
 1367TIP3    H225593   1.186   1.815   0.061  0.3136  1.1194 -0.5037
 1368TIP3   OH225594   2.677   1.401  13.608 -0.1136  0.2780 -0.5779
 1368TIP3    H125595   2.582   1.399  13.592 -0.0590 -0.2495 -0.8480
 1368TIP3    H225596   2.707   1.314  13.583 -0.2434 -1.2755  3.8089
 1369TIP3   OH225597   4.307   3.788   1.577  0.3170  0.5444 -0.4241
 1369TIP3    H125598   4.370   3.741   1.524 -0.3744 -1.0627  0.0983
 1369TIP3    H225599   4.351   3.800   1.662 -0.6126 -2.1414  0.5301
 1370TIP3   OH225600   5.522   4.331  15.293 -0.0947 -0.2568 -0.1332
 1370TIP3    H125601   5.465   4.293  15.226 -2.5158  0.2089  1.5154
 1370TIP3    H225602   5.568   4.256  15.331 -1.1002 -0.9159 -0.1913
 1371TIP3   OH225603   5.767   5.857  15.215  0.3957  0.6797  0.1823
 1371TIP3    H125604   5.715   5.915  15.159 -0.3501 -0.0618  0.0731
 1371TIP3    H225605   5.744   5.883  15.304 -1.3761 -0.5974  0.1697
 1372TIP3   OH225606   1.312   1.678   1.845  0.1481  0.0996 -0.5705
 1372TIP3    H125607   1.257   1.706   1.772  0.3491  0.6894 -0.4977
 1372TIP3    H225608   1.314   1.753   1.905 -0.0872 -0.4071  0.0879
 1373TIP3   OH225609   1.550   0.853   2.245  0.2292 -0.2812 -0.4531
 1373TIP3    H125610   1.642   0.855   2.269 -0.3650  0.3198  2.0564
 1373TIP3    H225611   1.511   0.787   2.302 -1.1281  0.5149 -0.4078
 1374TIP3   OH225612   6.481   3.045  11.159 -0.0122  0.0997 -0.4360
 1374TIP3    H125613   6.474   3.135  11.191  0.0471 -0.0730  0.0740
 1374TIP3    H225614   6.529   2.999  11.228 -1.5757 -0.7359  0.1407
 1375TIP3   OH225615   0.694   2.351   2.511  0.3321 -0.0393 -0.6815
 1375TIP3    H125616   0.720   2.376   2.600 -1.7622 -1.5657  0.4595
 1375TIP3    H225617   0.612   2.398   2.496 -1.5142 -2.8304 -0.0745
 1376TIP3   OH225618   5.700   3.156   2.764  0.5645  0.6199 -0.2880
 1376TIP3    H125619   5.791   3.172   2.741  0.7111 -1.9324 -1.8965
 1376TIP3    H225620   5.692   3.061   2.767 -1.5169  0.7525  2.2564
 1377TIP3   OH225621   0.834   4.277   4.470 -0.0066 -0.2786 -0.1153
 1377TIP3    H125622   0.750   4.307   4.437  0.0182 -0.5846 -0.4653
 1377TIP3    H225623   0.861   4.343   4.534 -1.2387 -0.9350  1.1540
 1378TIP3   OH225624   0.238   4.422   4.700 -0.0771  0.5178 -0.5421
 1378TIP3    H125625   0.184   4.451   4.626 -2.8540 -1.5442  0.4600
 1378TIP3    H225626   0.249   4.328   4.685  2.0529  0.6100  0.1164
 1379TIP3   OH225627   6.332   6.490  13.118  0.3524 -0.4290 -0.1138
 1379TIP3    H125628   6.313   6.556  13.185 -0.0498 -0.1837 -0.4665
 1379TIP3    H225629   6.390   6.535  13.056 -0.8128 -0.0324 -0.9574
 1380TIP3   OH225630   4.516   3.404  16.354 -0.4070 -0.1468  0.4521
 1380TIP3    H125631   4.600   3.429  16.314 -1.4307 -2.3999 -3.5758
 1380TIP3    H225632   4.529   3.314  16.383 -0.4229  0.7074  3.5076
 1381TIP3   OH225633   4.882   0.485   5.451  0.0361 -0.3232  0.7104
 1381TIP3    H125634   4.835   0.566   5.431  0.6163  0.0060  0.6596
 1381TIP3    H225635   4.910   0.494   5.542  1.9927  0.5079  0.0674
 1382TIP3   OH225636   3.863   0.292  13.169 -0.3840 -0.3948  0.8385
 1382TIP3    H125637   3.918   0.365  13.197 -0.8409  0.0520  0.5751
 1382TIP3    H225638   3.907   0.215  13.206  1.2808 -0.2217 -0.6214
 1383TIP3   OH225639   2.040   0.147  13.969 -0.0925 -0.2790  0.7924
 1383TIP3    H125640   1.948   0.148  13.942 -1.4929 -0.3897  4.8689
 1383TIP3    H225641   2.063   0.054  13.975 -0.0732 -0.2736  0.8027
 1384TIP3   OH225642   3.178   1.994   4.800  0.2865  0.2109 -0.8562
 1384TIP3    H125643   3.203   2.042   4.720 -0.1392 -0.6714 -1.5343
 1384TIP3    H225644   3.242   1.923   4.806  0.4342  0.3859 -0.2956
 1385TIP3   OH225645   2.906   6.562   5.385 -0.2228 -0.0206 -0.9510
 1385TIP3    H125646   2.970   6.563   5.456 -0.5545 -1.6570 -0.5894
 1385TIP3    H225647   2.836   6.505   5.416 -3.0131  3.3339 -0.4139
 1386TIP3   OH225648   3.863   3.218   5.208 -0.3492 -0.0518 -0.1316
 1386TIP3    H125649   3.798   3.201   5.278 -0.4048 -0.7039 -0.3311
 1386TIP3    H225650   3.864   3.313   5.199 -1.0618 -0.0160  0.0867
 1387TIP3   OH225651   0.888   4.379  12.740 -0.2346 -0.4621  0.2168
 1387TIP3    H125652   0.828   4.330  12.797 -0.3051 -0.6930 -0.0546
 1387TIP3    H225653   0.918   4.315  12.676 -0.4372 -0.1209 -0.2262
 1388TIP3   OH225654   2.660   6.414   4.528  0.1989 -0.4473 -0.3025
 1388TIP3    H125655   2.750   6.430   4.502  0.3159  0.9767  0.8021
 1388TIP3    H225656   2.608   6.444   4.453  0.6209 -2.3417 -1.4129
 1389TIP3   OH225657   4.065   3.701  11.510 -0.6022  0.5246 -0.1096
 1389TIP3    H125658   4.049   3.698  11.416  2.1880 -0.6771 -0.6230
 1389TIP3    H225659   4.090   3.792  11.526  1.4785  0.1699 -1.0707
 1390TIP3   OH225660   2.450   4.557   1.357 -0.4996  0.0380  0.3264
 1390TIP3    H125661   2.449   4.538   1.451  1.5244  0.2021  0.4434
 1390TIP3    H225662   2.494   4.642   1.351 -1.1756  0.3304 -0.7455
 1391TIP3   OH225663   1.562   5.333   1.584 -0.6486  0.3284  0.1631
 1391TIP3    H125664   1.484   5.322   1.639  0.0995  1.2933  1.4916
 1391TIP3    H225665   1.581   5.246   1.551 -0.5774 -0.5143  2.2645
 1392TIP3   OH225666   3.416   1.004   2.763 -0.1149 -0.1000  0.1685
 1392TIP3    H125667   3.450   1.049   2.840  0.8032 -0.6866  0.1077
 1392TIP3    H225668   3.321   1.010   2.773 -0.0197 -0.4062  1.4927
 1393TIP3   OH225669   0.358   1.552  12.584 -0.0217  0.3863 -0.6572
 1393TIP3    H125670   0.404   1.474  12.614 -0.6579 -0.2213 -1.2471
 1393TIP3    H225671   0.401   1.575  12.502  1.3218  1.6982  0.3664
 1394TIP3   OH225672   5.731   1.353  14.047  0.4991  0.0135  0.5084
 1394TIP3    H125673   5.677   1.310  14.112 -0.0343  0.1049  0.1334
 1394TIP3    H225674   5.734   1.291  13.974  1.6087 -0.3632  0.8506
 1395TIP3   OH225675   0.103   0.822  14.508  0.2591  0.4757  0.5266
 1395TIP3    H125676   0.104   0.845  14.601 -0.1361  0.1613  0.6125
 1395TIP3    H225677   0.169   0.753  14.499 -0.9311 -0.7514  0.9198
 1396TIP3   OH225678   2.353   6.087  12.311 -0.4095  0.2020  0.1409
 1396TIP3    H125679   2.435   6.122  12.277  0.2074  0.7246  2.0577
 1396TIP3    H225680   2.376   6.002  12.349 -0.6072  0.6319  1.2541
 1397TIP3   OH225681   3.468   5.280   0.561  0.1568 -0.6200  0.2739
 1397TIP3    H125682   3.413   5.253   0.635 -0.7902  1.9523  0.6137
 1397TIP3    H225683   3.520   5.202   0.541 -3.3104 -3.1818  0.1326
 1398TIP3   OH225684   6.399   3.158  16.284 -0.2225 -0.1520 -0.0280
 1398TIP3    H125685   6.393   3.109  16.365 -0.7067 -2.5248 -1.3952
 1398TIP3    H225686   6.369   3.097  16.216  0.1770  1.6984 -2.0085
 1399TIP3   OH225687   3.913   4.779  15.337  0.0398  0.3504 -0.8348
 1399TIP3    H125688   3.936   4.870  15.355  0.0766  0.1036  0.4286
 1399TIP3    H225689   3.822   4.782  15.308 -0.0881  0.7473 -0.4040
 1400TIP3   OH225690   4.977   5.776   1.167 -0.0550 -0.1452  0.6942
 1400TIP3    H125691   4.949   5.725   1.092 -0.2867 -0.7825  1.2056
 1400TIP3    H225692   4.996   5.863   1.131 -0.9851 -0.1912  0.0391
 1401TIP3   OH225693   2.702   5.617  15.509 -0.5276 -0.0443  0.6065
 1401TIP3    H125694   2.711   5.524  15.491 -2.2149  0.0196 -0.8278
 1401TIP3    H225695   2.724   5.661  15.427 -1.1317  0.7255  0.8330
 1402TIP3   OH225696   4.060   6.056  12.606  0.2836  0.1294 -0.1286
 1402TIP3    H125697   4.070   6.029  12.515  0.8579  1.9712 -0.6457
 1402TIP3    H225698   4.045   5.974  12.654  2.9395 -1.2499 -1.4544
 1403TIP3   OH225699   1.155   5.484  16.033  0.3257 -0.6173 -0.1167
 1403TIP3    H125700   1.180   5.571  16.002 -1.6553  0.5004  1.2079
 1403TIP3    H225701   1.109   5.500  16.115 -0.8945 -2.8438 -0.2820
 1404TIP3   OH225702   6.449   3.395  14.675 -0.0371 -0.5352  0.0535
 1404TIP3    H125703   6.390   3.375  14.748  0.7573 -0.2414  0.7960
 1404TIP3    H225704   6.519   3.330  14.683  2.0947  1.7962  1.9290
 1405TIP3   OH225705   6.480   1.887  10.335  0.3854  0.0396  0.3160
 1405TIP3    H125706   6.462   1.811  10.390 -0.3985  1.1913  1.7084
 1405TIP3    H225707   6.571   1.876  10.308  0.0170 -1.8618 -0.3097
 1406TIP3   OH225708   2.469   5.151  16.707  0.3032 -0.1430  0.3522
 1406TIP3    H125709   2.540   5.087  16.700 -0.7329 -1.7309  2.7743
 1406TIP3    H225710   2.390   5.099  16.691 -0.4434  1.0826 -0.0225
 1407TIP3   OH225711   4.581   3.643  12.785  0.1628  0.4099  0.0171
 1407TIP3    H125712   4.497   3.604  12.762 -0.2431 -0.1161  2.1393
 1407TIP3    H225713   4.566   3.684  12.870  2.2740 -0.4829  0.8987
 1408TIP3   OH225714   4.829   2.062   2.888 -0.0581  0.0441 -0.1166
 1408TIP3    H125715   4.782   2.093   2.811  0.7722 -0.3412 -0.7901
 1408TIP3    H225716   4.779   1.986   2.918 -0.7315  0.5645  0.1044
 1409TIP3   OH225717   5.959   6.295   2.172 -1.1026 -0.6388  0.3594
 1409TIP3    H125718   5.931   6.386   2.186 -0.4396 -0.2702 -0.6080
 1409TIP3    H225719   5.938   6.251   2.254 -0.3175  0.6583  1.2902
 1410TIP3   OH225720   2.637   0.402   4.064  0.6107  0.3526  0.0403
 1410TIP3    H125721   2.634   0.355   4.148  0.6137 -0.3837 -0.3652
 1410TIP3    H225722   2.617   0.335   3.999  1.8618  0.6549 -0.6641
 1411TIP3   OH225723   1.510   5.320   4.935  0.4109  0.8518 -0.0684
 1411TIP3    H125724   1.420   5.293   4.919  0.3328 -0.1723  1.8049
 1411TIP3    H225725   1.563   5.249   4.897  0.5282  2.0484 -2.2808
 1412TIP3   OH225726   5.074   3.225   0.942 -0.1764  0.6263 -0.3391
 1412TIP3    H125727   5.036   3.282   1.008  2.2633  0.1405  1.6443
 1412TIP3    H225728   5.093   3.283   0.868 -0.7924  1.6884  0.3149
 1413TIP3   OH225729   0.239   1.474   4.028 -0.1918 -0.4635  0.2794
 1413TIP3    H125730   0.151   1.462   3.992  0.2086 -2.3165 -0.1940
 1413TIP3    H225731   0.224   1.493   4.121 -1.1007 -1.0226  0.2650
 1414TIP3   OH225732   6.685   3.683  13.508  0.4697 -0.1222  0.0112
 1414TIP3    H125733   6.776   3.706  13.525 -0.0102  1.4267  0.5673
 1414TIP3    H225734   6.673   3.598  13.552  1.3596  0.1500  0.8008
 1415TIP3   OH225735   0.161   1.483  11.998 -0.4631 -0.3583 -0.1878
 1415TIP3    H125736   0.143   1.573  11.970  0.7647 -0.4916 -1.5471
 1415TIP3    H225737   0.227   1.452  11.936 -0.9405 -2.2397  0.1795
 1416TIP3   OH225738   6.039   2.057  16.960  0.1756  0.1430 -0.0161
 1416TIP3    H125739   6.094   1.990  17.001 -2.3781 -0.5653  2.6190
 1416TIP3    H225740   6.072   2.140  16.995  0.3008 -0.1741  0.6365
 1417TIP3   OH225741   5.621   3.496   2.822 -0.3167 -0.2947 -0.4419
 1417TIP3    H125742   5.539   3.539   2.848 -0.5246 -1.7344  1.3898
 1417TIP3    H225743   5.660   3.558   2.759 -3.2149  0.0268 -2.1353
 1418TIP3   OH225744   3.586   1.185   0.868 -0.0875 -0.3418  0.5175
 1418TIP3    H125745   3.514   1.217   0.922 -1.3509  1.3361 -1.9939
 1418TIP3    H225746   3.544   1.150   0.790  1.7455 -0.8933 -0.2715
 1419TIP3   OH225747   2.220   5.135  11.651 -0.0238 -0.2931 -0.2324
 1419TIP3    H125748   2.300   5.170  11.612  0.6313 -0.7502  0.6598
 1419TIP3    H225749   2.243   5.123  11.743 -1.1078 -0.4926  0.0164
 1420TIP3   OH225750   0.326   2.750   1.638  0.2040 -0.2283  0.3295
 1420TIP3    H125751   0.403   2.771   1.586 -0.5698  1.0091 -0.3867
 1420TIP3    H225752   0.268   2.704   1.577  0.3959 -1.2638  0.8952
 1421TIP3   OH225753   5.870   2.825  15.868 -0.2417 -0.1872  0.3501
 1421TIP3    H125754   5.881   2.859  15.779 -1.0004 -1.8179 -0.4305
 1421TIP3    H225755   5.775   2.820  15.880 -0.1514 -0.7987  0.8934
 1422TIP3   OH225756   4.752   1.585   0.899  0.5177 -0.6302 -0.1703
 1422TIP3    H125757   4.835   1.538   0.913  0.4467 -0.6243  0.2919
 1422TIP3    H225758   4.686   1.516   0.891  0.4455 -0.6188  0.2942
 1423TIP3   OH225759   5.311   0.577   2.980 -0.4180  0.4124  0.1811
 1423TIP3    H125760   5.216   0.562   2.982 -0.3014 -0.6029 -0.7789
 1423TIP3    H225761   5.330   0.619   3.063 -1.8105  1.2602  0.1004
 1424TIP3   OH225762   4.871   0.616   2.299  0.2552  0.1636  0.5548
 1424TIP3    H125763   4.857   0.711   2.301  1.0707  0.3688 -1.1207
 1424TIP3    H225764   4.844   0.590   2.211  0.5920 -1.0652  0.8000
 1425TIP3   OH225765   2.017   4.622   5.585 -0.0251  0.0017 -0.0724
 1425TIP3    H125766   1.997   4.640   5.677  0.9458 -1.6604  0.4979
 1425TIP3    H225767   1.939   4.577   5.552 -0.5358  0.9489 -0.2010
 1426TIP3   OH225768   3.649   0.339   5.392 -0.6588  0.0216 -0.2430
 1426TIP3    H125769   3.709   0.269   5.368  0.0823  0.3013  0.7452
 1426TIP3    H225770   3.705   0.414   5.411 -1.3682  0.5290 -0.0852
 1427TIP3   OH225771   6.450   4.585   2.958 -0.4465  0.7888  0.0280
 1427TIP3    H125772   6.390   4.558   3.028 -0.0952 -0.9482 -0.2983
 1427TIP3    H225773   6.427   4.676   2.941 -1.2406  0.9290  1.6856
 1428TIP3   OH225774   0.826   5.849  15.701  0.7845  0.1686 -0.0612
 1428TIP3    H125775   0.821   5.781  15.634 -1.8423  0.8975 -0.6882
 1428TIP3    H225776   0.800   5.929  15.656 -1.2323  0.6527  1.8377
 1429TIP3   OH225777   2.032   4.807  11.833 -0.4129  0.1303  0.4024
 1429TIP3    H125778   2.092   4.860  11.886 -0.8532  0.4354  0.5961
 1429TIP3    H225779   2.037   4.845  11.746  0.3433 -0.3965  0.1976
 1430TIP3   OH225780   2.191   3.028  11.689  0.1358  0.0216  0.0759
 1430TIP3    H125781   2.243   2.969  11.635 -0.0542  0.2891 -0.4110
 1430TIP3    H225782   2.102   2.990  11.686  0.4007 -0.7800  1.4027
 1431TIP3   OH225783   4.938   1.592   4.655 -0.2873  0.3810  0.0028
 1431TIP3    H125784   4.941   1.612   4.562  2.6742  1.0569  0.1256
 1431TIP3    H225785   4.981   1.507   4.663 -0.2953  0.4356  0.7593
 1432TIP3   OH225786   5.574   6.014   3.930  0.0738  0.3590 -0.2174
 1432TIP3    H125787   5.581   6.029   3.836 -1.1740  0.6912 -0.2698
 1432TIP3    H225788   5.607   6.095   3.969 -0.2473  0.5718 -0.3863
 1433TIP3   OH225789   2.993   1.100  12.844  0.1551 -0.0062 -0.0079
 1433TIP3    H125790   3.028   1.020  12.804 -0.3314 -0.1305 -0.1892
 1433TIP3    H225791   3.071   1.151  12.868  0.6132 -1.7088  2.5941
 1434TIP3   OH225792   5.122   0.878  14.796  0.1533  0.2184 -0.2797
 1434TIP3    H125793   5.120   0.792  14.838 -2.0091 -0.3830 -1.4349
 1434TIP3    H225794   5.030   0.896  14.775  0.4406  3.1697  0.5671
 1435TIP3   OH225795   1.540   2.868   5.477  0.0835 -0.4449 -0.4260
 1435TIP3    H125796   1.499   2.953   5.492  0.5485 -0.4051  0.7405
 1435TIP3    H225797   1.503   2.837   5.394 -0.0824  0.8887 -0.8625
 1436TIP3   OH225798   2.443   4.037  12.070  0.7709 -0.1719  0.1271
 1436TIP3    H125799   2.433   4.053  12.164 -1.1130 -0.2639 -0.0197
 1436TIP3    H225800   2.356   4.051  12.034  0.8259 -2.6838 -1.2274
 1437TIP3   OH225801   1.101   0.266  11.887  0.4992  0.4160 -0.4965
 1437TIP3    H125802   1.087   0.172  11.901 -0.0649  0.0597 -2.9252
 1437TIP3    H225803   1.195   0.274  11.870  0.3018 -0.0346 -1.9842
 1438TIP3   OH225804   2.484   4.515  13.164 -0.2562 -0.0463 -0.3215
 1438TIP3    H125805   2.513   4.431  13.126  1.0265 -0.9572  2.4127
 1438TIP3    H225806   2.392   4.501  13.186 -0.2708 -0.4430 -0.6202
 1439TIP3   OH225807   6.371   4.019  16.618 -0.6557  0.3693  0.1041
 1439TIP3    H125808   6.319   4.064  16.685  0.8676  0.2038  1.4696
 1439TIP3    H225809   6.323   3.937  16.602 -1.1001  0.4572  0.9180
 1440TIP3   OH225810   2.830   1.485  11.728 -0.7308  0.1946 -0.0168
 1440TIP3    H125811   2.869   1.421  11.668 -0.8632 -0.4586  0.5761
 1440TIP3    H225812   2.869   1.569  11.702  0.1462 -0.2582 -0.2161
 1441TIP3   OH225813   1.605   2.095   0.416  0.2391 -0.0532 -0.1033
 1441TIP3    H125814   1.589   2.184   0.383 -1.6695 -0.6185 -0.8399
 1441TIP3    H225815   1.540   2.084   0.486 -0.7692 -1.4502 -1.1989
 1442TIP3   OH225816   1.674   1.094   3.815 -0.3626  0.2443 -0.6433
 1442TIP3    H125817   1.703   1.047   3.736 -0.5433 -0.5714 -0.2374
 1442TIP3    H225818   1.595   1.141   3.787 -0.5172 -0.1654 -0.9094
 1443TIP3   OH225819   2.187   0.130  16.004 -0.4303 -0.2973  0.3515
 1443TIP3    H125820   2.127   0.204  16.012 -0.0744  0.0940 -0.5276
 1443TIP3    H225821   2.186   0.089  16.091  0.9739  1.9589  1.5189
 1444TIP3   OH225822   1.094   5.165  15.531  0.0257  0.0986  0.4675
 1444TIP3    H125823   1.063   5.236  15.475  1.1978  0.5952  0.4127
 1444TIP3    H225824   1.169   5.128  15.484 -1.2626 -1.9868 -0.0847
 1445TIP3   OH225825   2.442   4.290   5.219 -0.0785  0.0560  0.4964
 1445TIP3    H125826   2.523   4.334   5.194 -0.1715  0.8620  1.5346
 1445TIP3    H225827   2.422   4.232   5.146  0.5810  1.0286 -0.4825
 1446TIP3   OH225828   3.490   0.804   5.897 -0.7064  0.3819 -0.2422
 1446TIP3    H125829   3.485   0.720   5.943  0.0315  0.1354 -0.5897
 1446TIP3    H225830   3.581   0.809   5.867 -1.5746 -0.4049 -3.4096
 1447TIP3   OH225831   5.346   1.754  15.006 -0.6166 -0.4364  0.1925
 1447TIP3    H125832   5.314   1.666  15.020  0.8557 -1.2416 -1.1560
 1447TIP3    H225833   5.267   1.807  14.993 -1.4947 -1.6510  0.4536
 1448TIP3   OH225834   1.361   4.083   7.152  0.1587  0.2748 -0.2967
 1448TIP3    H125835   1.413   4.093   7.073  1.1067 -0.8520  0.1542
 1448TIP3    H225836   1.283   4.034   7.124 -0.4589  1.5311 -0.8707
 1449TIP3   OH225837   5.521   2.022   3.336 -0.2454 -0.1057 -0.3763
 1449TIP3    H125838   5.498   1.931   3.355 -0.1722  0.3577  2.2350
 1449TIP3    H225839   5.437   2.067   3.329 -0.2678 -0.0661  0.1106
 1450TIP3   OH225840   6.287   5.497  11.527  0.0950  0.1701 -0.5660
 1450TIP3    H125841   6.352   5.566  11.517  1.2665 -0.4546  1.8781
 1450TIP3    H225842   6.287   5.450  11.444 -0.5393  2.8529 -2.2059
 1451TIP3   OH225843   0.681   4.607  16.574 -0.4977 -0.3256 -0.6477
 1451TIP3    H125844   0.608   4.664  16.551  0.8886  1.2227 -1.4532
 1451TIP3    H225845   0.662   4.577  16.663 -2.8672 -1.2865 -1.3882
 1452TIP3   OH225846   6.516   5.044  16.705  0.2749 -0.0524  0.3652
 1452TIP3    H125847   6.589   5.084  16.658 -1.5587  0.9164 -1.8489
 1452TIP3    H225848   6.532   4.950  16.700  2.0852  0.1614  1.2590
 1453TIP3   OH225849   0.233   3.103  11.826  0.1397  0.2027 -0.6276
 1453TIP3    H125850   0.201   3.091  11.737 -3.2432  0.6595  0.3471
 1453TIP3    H225851   0.203   3.191  11.850  0.9681  0.0913  0.9619
 1454TIP3   OH225852   2.540   2.901  12.682 -0.1905  0.1341  0.8304
 1454TIP3    H125853   2.562   2.990  12.710 -0.7996 -0.1087  2.1786
 1454TIP3    H225854   2.503   2.860  12.761 -3.1169 -0.2362 -0.5962
 1455TIP3   OH225855   4.262   4.506   0.454 -0.0879  0.0433 -0.0513
 1455TIP3    H125856   4.231   4.440   0.393  0.0909  2.1174 -2.5792
 1455TIP3    H225857   4.351   4.526   0.425  0.5433  0.1087  1.8168
 1456TIP3   OH225858   3.763   3.614  13.292 -0.2583 -0.2121 -0.3954
 1456TIP3    H125859   3.742   3.593  13.383  1.1212  2.6717  0.7012
 1456TIP3    H225860   3.791   3.530  13.255  1.5952 -1.0992  2.5942
 1457TIP3   OH225861   3.021   2.292   4.046 -0.0905 -0.3210 -0.3897
 1457TIP3    H125862   2.950   2.354   4.030 -0.3757 -0.2990  0.8722
 1457TIP3    H225863   2.976   2.211   4.070  0.3053 -0.4410 -0.0416
 1458TIP3   OH225864   0.459   2.234  14.421  0.1967 -0.3443 -0.4008
 1458TIP3    H125865   0.518   2.276  14.359  0.4713  0.4695  0.3855
 1458TIP3    H225866   0.505   2.239  14.505 -0.7817 -0.0962  0.1425
 1459TIP3   OH225867   6.722   2.347   0.924 -0.6370  0.7614 -0.9141
 1459TIP3    H125868   6.789   2.399   0.880 -0.4524  0.6507 -0.7709
 1459TIP3    H225869   6.714   2.387   1.011  1.2279 -0.8303  0.1017
 1460TIP3   OH225870   1.930   1.320  16.173 -0.7199 -0.6246  0.8814
 1460TIP3    H125871   1.992   1.260  16.215  0.1140 -0.0174  0.5519
 1460TIP3    H225872   1.953   1.407  16.206 -0.1360 -0.1466 -0.6551
 1461TIP3   OH225873   1.409   6.559   0.245  0.6060  0.5688  0.2042
 1461TIP3    H125874   1.469   6.624   0.281  1.6401  0.3891 -1.1319
 1461TIP3    H225875   1.322   6.593   0.267  1.1524  1.6806  0.7430
 1462TIP3   OH225876   4.157   0.782   0.199  0.1815  0.0909 -0.1186
 1462TIP3    H125877   4.234   0.730   0.221 -0.2263  0.0802  1.4225
 1462TIP3    H225878   4.170   0.865   0.246 -0.3302  0.4177 -0.5426
 1463TIP3   OH225879   5.220   1.462   1.890 -0.2937 -0.8445  0.2299
 1463TIP3    H125880   5.260   1.425   1.811 -0.9919  0.5408 -0.8255
 1463TIP3    H225881   5.232   1.556   1.881 -1.5958 -0.5646  1.0877
 1464TIP3   OH225882   1.435   1.814  13.055  0.1195  0.9863 -0.2803
 1464TIP3    H125883   1.457   1.779  12.969 -0.3963  0.5758 -0.2546
 1464TIP3    H225884   1.410   1.737  13.106  0.8975  1.1663  0.3928
 1465TIP3   OH225885   4.891   5.741   1.916 -0.6361  0.1012 -0.1795
 1465TIP3    H125886   4.812   5.690   1.930 -0.3624 -0.0303  1.0530
 1465TIP3    H225887   4.935   5.699   1.843 -1.3571 -0.2486 -0.4161
 1466TIP3   OH225888   6.746   0.064   4.354 -0.3915  0.6425 -0.2584
 1466TIP3    H125889   6.694   0.109   4.288  0.7547  2.1305 -0.1822
 1466TIP3    H225890   6.773   0.132   4.415 -0.9364 -0.6037  1.4481
 1467TIP3   OH225891   3.213   5.753  11.797  0.1373  0.1458  0.1821
 1467TIP3    H125892   3.142   5.704  11.839 -0.9175  0.3882 -1.2563
 1467TIP3    H225893   3.234   5.702  11.719 -0.8771  1.8686 -1.2663
 1468TIP3   OH225894   4.623   0.795  13.382 -0.3312 -0.2476 -0.0203
 1468TIP3    H125895   4.695   0.841  13.424  0.6402 -1.2639 -0.5266
 1468TIP3    H225896   4.621   0.829  13.293  0.5254 -1.2964 -0.4587
 1469TIP3   OH225897   5.575   3.192  14.957  0.3745  0.0547  0.0821
 1469TIP3    H125898   5.496   3.179  15.010  0.7989  0.2830  0.7960
 1469TIP3    H225899   5.584   3.287  14.950  0.6374  0.0336  0.1021
 1470TIP3   OH225900   3.067   6.084  11.426 -0.4927 -0.3367 -0.0081
 1470TIP3    H125901   3.110   6.169  11.438  0.5151 -0.7971 -0.3420
 1470TIP3    H225902   3.136   6.020  11.437 -0.8277 -1.0505 -1.7673
 1471TIP3   OH225903   6.647   2.943  11.333  0.2336 -0.6911 -0.0716
 1471TIP3    H125904   6.651   2.847  11.328  2.3017 -0.7843  1.8046
 1471TIP3    H225905   6.683   2.964  11.419  2.0293  1.8883 -1.3228
 1472TIP3   OH225906   4.414   5.553   0.458 -0.3387  1.0400  0.0142
 1472TIP3    H125907   4.369   5.538   0.541 -0.5883 -0.8771 -0.4291
 1472TIP3    H225908   4.507   5.549   0.481 -0.4063  0.6706  0.2387
 1473TIP3   OH225909   4.423   4.530   3.090 -0.1949 -0.0589  0.1642
 1473TIP3    H125910   4.446   4.447   3.133 -0.1702  0.1437  0.5484
 1473TIP3    H225911   4.428   4.595   3.160 -2.1690 -0.0278  0.3111
 1474TIP3   OH225912   5.620   2.057   1.690 -0.0302 -0.5113  0.3972
 1474TIP3    H125913   5.538   2.103   1.671  0.9953  0.8363 -1.0055
 1474TIP3    H225914   5.593   1.981   1.742 -1.9682  0.8032  1.4570
 1475TIP3   OH225915   0.250   4.490  14.034  0.5664 -0.3676  0.7627
 1475TIP3    H125916   0.166   4.519  13.996  0.9637  2.8082  1.9813
 1475TIP3    H225917   0.244   4.394  14.034 -2.5670 -0.3071 -0.2388
 1476TIP3   OH225918   5.023   4.968   1.487  0.3611 -0.4691 -0.2414
 1476TIP3    H125919   5.116   4.976   1.507  0.2659  0.9733 -0.2536
 1476TIP3    H225920   4.997   5.056   1.460 -1.3705 -0.4380  1.3148
 1477TIP3   OH225921   0.195   2.541   2.101  0.7656 -0.7045 -0.4134
 1477TIP3    H125922   0.204   2.518   2.194 -0.2146  1.1131  0.1941
 1477TIP3    H225923   0.271   2.597   2.083  1.0156 -1.1485 -0.7431
 1478TIP3   OH225924   1.037   1.722  16.762 -0.1244  0.3153 -0.0973
 1478TIP3    H125925   1.125   1.711  16.724  0.1227  2.8498 -0.4204
 1478TIP3    H225926   1.012   1.634  16.788  1.2928 -0.9747 -2.6521
 1479TIP3   OH225927   6.389   6.699  16.833  0.6155  0.0620  0.5231
 1479TIP3    H125928   6.472   6.674  16.794  0.3891 -0.9658  0.6886
 1479TIP3    H225929   6.374   6.635  16.903  0.4418  1.1703  1.5361
 1480TIP3   OH225930   0.420   0.719   3.640  0.1749  0.2025  0.0930
 1480TIP3    H125931   0.479   0.766   3.699 -0.4831 -0.5138  1.3763
 1480TIP3    H225932   0.444   0.750   3.553  2.3805 -0.0013  0.5561
 1481TIP3   OH225933   4.811   2.767  10.276 -0.7277 -0.3396 -0.1259
 1481TIP3    H125934   4.893   2.784  10.228 -1.2201  1.4591 -0.4234
 1481TIP3    H225935   4.818   2.822  10.354 -1.6085 -0.2006 -0.1306
 1482TIP3   OH225936   5.820   0.681   4.173 -0.1074  0.1437 -0.5434
 1482TIP3    H125937   5.906   0.665   4.211 -0.8945 -1.5473  0.6368
 1482TIP3    H225938   5.777   0.740   4.235 -0.6882 -1.0511  0.2185
 1483TIP3   OH225939   1.011   2.075  13.281 -0.1578 -0.2820 -0.0044
 1483TIP3    H125940   1.053   1.994  13.310 -2.6225 -1.8626 -0.5392
 1483TIP3    H225941   0.996   2.125  13.361 -0.4249 -1.2856  0.5837
 1484TIP3   OH225942   3.063   3.736   1.439  0.2243 -0.2208  0.5740
 1484TIP3    H125943   2.974   3.759   1.411 -0.1119 -0.9882  1.0088
 1484TIP3    H225944   3.051   3.677   1.513  1.0605 -2.5181 -1.0429
 1485TIP3   OH225945   1.599   0.501  16.781 -0.0727 -1.1257 -0.0081
 1485TIP3    H125946   1.694   0.501  16.774 -0.1111  1.1208 -1.4333
 1485TIP3    H225947   1.573   0.410  16.766  1.8911 -2.1174  2.0900
 1486TIP3   OH225948   5.797   3.543   2.197 -0.8270  0.0407 -0.2664
 1486TIP3    H125949   5.718   3.592   2.174 -2.2074 -0.8390  2.2292
 1486TIP3    H225950   5.790   3.528   2.291  2.7892  0.6467  0.2363
 1487TIP3   OH225951   5.363   4.439   3.981  0.3017 -0.7096  0.4086
 1487TIP3    H125952   5.315   4.366   4.020  1.5462 -2.1679 -0.6973
 1487TIP3    H225953   5.424   4.399   3.920  0.1145  1.3487 -1.2632
 1488TIP3   OH225954   2.270   2.836  14.951 -1.1107  0.2408  0.6862
 1488TIP3    H125955   2.215   2.847  15.029  0.1704 -2.9142  2.2139
 1488TIP3    H225956   2.213   2.792  14.888 -1.9791  2.2724 -0.0123
 1489TIP3   OH225957   1.946   2.985  17.022 -0.2820  0.0870 -0.0576
 1489TIP3    H125958   1.955   3.077  17.046 -1.6562  0.4857 -0.9471
 1489TIP3    H225959   1.936   2.986  16.927 -1.3125 -0.8705  0.0153
 1490TIP3   OH225960   3.024   6.564   2.426 -0.1496  0.0696  0.1857
 1490TIP3    H125961   3.065   6.496   2.478 -0.0965  0.0876  0.1662
 1490TIP3    H225962   3.095   6.625   2.403 -0.3604  0.6393  0.9997
 1491TIP3   OH225963   2.083   2.636   1.285  0.2296 -0.4894  0.0701
 1491TIP3    H125964   2.025   2.654   1.359 -1.3031 -3.5659 -0.2179
 1491TIP3    H225965   2.171   2.638   1.322 -0.3214  0.3000  1.4342
 1492TIP3   OH225966   3.622   1.254  11.317  0.0224 -0.3816 -0.2028
 1492TIP3    H125967   3.628   1.159  11.307 -1.1540 -0.4208 -0.6132
 1492TIP3    H225968   3.597   1.286  11.230  2.9307  0.5874 -0.8043
 1493TIP3   OH225969   2.515   6.219   3.241 -0.3808  0.3773 -0.4663
 1493TIP3    H125970   2.595   6.166   3.240 -0.4581  0.2421  0.3747
 1493TIP3    H225971   2.499   6.238   3.148  0.0752 -0.4226 -0.7223
 1494TIP3   OH225972   4.518   0.077   1.389 -0.2548  0.0589 -0.2450
 1494TIP3    H125973   4.497   0.163   1.352 -1.6586 -0.3112 -0.3764
 1494TIP3    H225974   4.592   0.046   1.338  0.0853  1.0603 -0.3926
 1495TIP3   OH225975   0.056   2.623  14.914  0.3966  0.0551 -0.0526
 1495TIP3    H125976  -0.034   2.602  14.887  0.5068  1.0069 -1.2379
 1495TIP3    H225977   0.047   2.695  14.976  0.3079 -0.2068  0.2379
 1496TIP3   OH225978   1.379   6.398  12.203  0.5142  0.3414 -0.0016
 1496TIP3    H125979   1.432   6.476  12.187  0.2216  0.2048 -1.7602
 1496TIP3    H225980   1.438   6.324  12.189  0.2316  0.2169 -0.5736
 1497TIP3   OH225981   6.168   0.216   3.431  0.1183 -0.3754 -0.2608
 1497TIP3    H125982   6.110   0.177   3.497  0.4691  0.2743  0.4522
 1497TIP3    H225983   6.124   0.296   3.404 -0.0606 -0.6779 -0.8878
 1498TIP3   OH225984   2.016   0.329   4.430  0.5870  0.0842 -0.5470
 1498TIP3    H125985   1.988   0.300   4.517 -0.1970  1.7073 -0.2008
 1498TIP3    H225986   2.006   0.424   4.433 -3.3506  0.0436 -3.6243
 1499TIP3   OH225987   3.979   1.927   4.692 -0.0555 -0.0801  0.0772
 1499TIP3    H125988   4.035   1.936   4.615  0.4645  1.2701  0.5878
 1499TIP3    H225989   3.917   2.000   4.686 -0.5219 -0.4259  0.5333
 1500TIP3   OH225990   5.283   4.936   0.859  0.5758  0.1173 -0.6720
 1500TIP3    H125991   5.194   4.958   0.829  1.4701  2.1455 -2.0513
 1500TIP3    H225992   5.318   4.880   0.789  1.0165  0.8979 -1.0871
 1501TIP3   OH225993   2.313   4.542   3.578  0.0097  0.2483 -0.2693
 1501TIP3    H125994   2.223   4.545   3.546 -0.4825  0.7820  1.0746
 1501TIP3    H225995   2.354   4.470   3.530 -0.6430  1.0375 -2.0813
 1502TIP3   OH225996   1.493   1.268  13.672  0.7626 -0.3967  0.2772
 1502TIP3    H125997   1.496   1.307  13.759  1.5794 -0.0031  0.0856
 1502TIP3    H225998   1.418   1.309  13.629 -0.0643 -1.0892  1.0068
 1503TIP3   OH225999   0.019   1.823   4.132 -0.3806  0.3624 -0.2330
 1503TIP3    H126000   0.109   1.855   4.136 -0.3927  0.5338 -1.0993
 1503TIP3    H226001   0.027   1.728   4.131 -0.3243  0.2955  1.9332
 1504TIP3   OH226002   3.643   5.790   1.146 -0.6014  0.3288 -0.6234
 1504TIP3    H126003   3.626   5.883   1.131 -0.0687  0.6537  0.6646
 1504TIP3    H226004   3.719   5.788   1.205  0.2044 -0.9542 -1.6299
 1505TIP3   OH226005   0.338   0.269  16.324  0.1786 -0.4882 -0.3329
 1505TIP3    H126006   0.298   0.324  16.256  2.0814 -0.5001 -1.5302
 1505TIP3    H226007   0.415   0.319  16.352 -0.3900 -0.6344  1.6308
 1506TIP3   OH226008   4.936   4.397  12.258  0.4009 -0.2201  0.0307
 1506TIP3    H126009   4.876   4.353  12.199 -0.4227  1.0716 -0.1329
 1506TIP3    H226010   4.984   4.458  12.201  2.2700 -1.5713  0.0567
 1507TIP3   OH226011   1.481   0.899  11.512  0.0291  0.6012 -0.0135
 1507TIP3    H126012   1.552   0.945  11.469  1.2692 -1.4242 -0.2737
 1507TIP3    H226013   1.524   0.839  11.572 -1.3338 -1.8654 -1.3415
 1508TIP3   OH226014   1.137   3.881   5.026 -0.1340  0.5558  0.2882
 1508TIP3    H126015   1.140   3.798   5.072 -0.5435  2.0546  3.2715
 1508TIP3    H226016   1.143   3.858   4.934  2.6512 -2.5849  1.0752
 1509TIP3   OH226017   0.142   5.770  15.559  0.3419 -0.1480  0.6444
 1509TIP3    H126018   0.109   5.683  15.579 -0.6022  0.3903  1.5237
 1509TIP3    H226019   0.237   5.760  15.557  0.2044 -1.6572 -1.6114
 1510TIP3   OH226020   4.855   0.913   3.706  0.1358 -0.0655 -0.0105
 1510TIP3    H126021   4.775   0.939   3.752 -0.0124 -1.3728  0.5286
 1510TIP3    H226022   4.898   0.995   3.685 -1.2472  0.6642 -0.1313
 1511TIP3   OH226023   5.345   1.031   4.812  0.1624 -0.2383  0.6447
 1511TIP3    H126024   5.374   0.973   4.742 -1.9524 -0.3022 -0.2589
 1511TIP3    H226025   5.405   1.105   4.808  0.2842 -0.3906 -1.0564
 1512TIP3   OH226026   2.084   4.615   0.441  0.3545 -0.0770  0.8165
 1512TIP3    H126027   2.165   4.659   0.414  0.3663 -0.9575 -0.6732
 1512TIP3    H226028   2.064   4.555   0.369 -3.4499  2.4081 -0.4989
 1513TIP3   OH226029   3.813   2.926  11.161  0.8110 -0.1546  0.1850
 1513TIP3    H126030   3.789   2.953  11.250  0.5403  0.5216 -0.0846
 1513TIP3    H226031   3.856   3.003  11.124 -1.8933  0.7471 -1.3435
 1514TIP3   OH226032   0.656   4.238  16.791  0.1242  0.0550 -0.6836
 1514TIP3    H126033   0.606   4.206  16.716 -0.8863 -0.6009  0.2297
 1514TIP3    H226034   0.660   4.333  16.779 -0.6808  0.0366 -1.1812
 1515TIP3   OH226035   6.348   3.600  11.738  0.1890  0.1309 -0.6497
 1515TIP3    H126036   6.329   3.605  11.644  1.0306  1.1103 -0.7886
 1515TIP3    H226037   6.436   3.563  11.744 -0.5712 -1.7187 -0.1336
 1516TIP3   OH226038   4.921   5.648  11.142 -0.5659 -0.4988 -0.2875
 1516TIP3    H126039   4.884   5.674  11.058  0.1454 -2.1823 -1.1665
 1516TIP3    H226040   4.999   5.702  11.153 -1.2901  0.5361 -0.1366
 1517TIP3   OH226041   4.111   3.428  16.263  0.1230 -0.5312  0.4195
 1517TIP3    H126042   4.188   3.409  16.209  0.2744  0.4479  0.2845
 1517TIP3    H226043   4.065   3.497  16.215  0.9840  1.3809  2.2140
 1518TIP3   OH226044   3.266   0.008  14.320 -0.7693 -0.2878 -0.8619
 1518TIP3    H126045   3.342   0.067  14.322 -0.3795 -0.6466  3.0601
 1518TIP3    H226046   3.191   0.066  14.335 -0.5729 -0.4909  1.1590
 1519TIP3   OH226047   1.562   5.671  15.590  0.2575 -0.5931 -0.1036
 1519TIP3    H126048   1.511   5.735  15.640  0.8599  3.2056 -3.6858
 1519TIP3    H226049   1.545   5.587  15.632 -2.8052  1.5042  3.4492
 1520TIP3   OH226050   6.682   5.806  11.842  0.0309  0.8079 -0.0330
 1520TIP3    H126051   6.755   5.859  11.875  0.0426  1.0484 -0.4378
 1520TIP3    H226052   6.639   5.863  11.779 -2.6280  2.0810  2.6757
 1521TIP3   OH226053   5.318   1.507  13.692 -0.2900  0.2032 -1.2097
 1521TIP3    H126054   5.373   1.436  13.725 -0.7568  0.0302 -0.7732
 1521TIP3    H226055   5.347   1.521  13.602  2.2944  1.9522 -0.1973
 1522TIP3   OH226056   4.186   3.901   3.534 -0.7393  0.2060 -0.5277
 1522TIP3    H126057   4.276   3.920   3.562 -0.7320 -0.8418  0.1935
 1522TIP3    H226058   4.169   3.966   3.466  0.1927  1.1064  0.0547
 1523TIP3   OH226059   1.696   0.092  11.890  0.1361  0.3887 -0.3175
 1523TIP3    H126060   1.694   0.006  11.847 -0.0559  1.0069 -1.6003
 1523TIP3    H226061   1.752   0.145  11.834  0.7419  0.9543  0.7890
 1524TIP3   OH226062   6.090   0.699  14.854 -0.3057 -0.0665 -0.6650
 1524TIP3    H126063   6.037   0.738  14.924  1.1096  0.5061  0.1500
 1524TIP3    H226064   6.032   0.695  14.779 -1.4956  0.5347  0.1849
 1525TIP3   OH226065   0.627   5.120  14.338  0.2443  1.1085 -0.4412
 1525TIP3    H126066   0.642   5.045  14.397 -0.1483  0.9183 -0.5787
 1525TIP3    H226067   0.695   5.183  14.361  0.1872  0.9701  0.1155
 1526TIP3   OH226068   6.810   2.056   6.706 -0.0060  0.0331  0.1330
 1526TIP3    H126069   6.856   2.012   6.634 -1.4956 -1.6948  0.1609
 1526TIP3    H226070   6.723   2.016   6.707  0.1110 -0.3845  3.1977
 1527TIP3   OH226071   2.610   1.239   3.210  0.4178 -0.0463  0.3789
 1527TIP3    H126072   2.553   1.165   3.188 -1.6968  1.1004  1.6288
 1527TIP3    H226073   2.550   1.307   3.241  2.4713  1.2930  1.6857
 1528TIP3   OH226074   5.303   0.295   0.618  0.2693 -0.1600 -0.4626
 1528TIP3    H126075   5.296   0.234   0.544  0.9671  0.8626 -1.4047
 1528TIP3    H226076   5.214   0.299   0.653 -0.8638  1.6370 -3.1768
 1529TIP3   OH226077   2.982   0.657  15.024  0.2189  0.0245  0.1704
 1529TIP3    H126078   3.005   0.748  15.045 -0.9309  0.4685 -0.3710
 1529TIP3    H226079   2.963   0.659  14.930 -1.1566 -0.4672  0.4142
 1530TIP3   OH226080   6.685   6.500  14.410 -0.2657 -0.2226 -0.1890
 1530TIP3    H126081   6.620   6.455  14.464  0.3124 -0.7172  0.1107
 1530TIP3    H226082   6.758   6.439  14.405  0.7807  0.8919  0.6997
 1531TIP3   OH226083   4.105   2.244  16.192  0.2370  0.0625  0.1519
 1531TIP3    H126084   4.070   2.240  16.103  0.7723 -0.7577 -0.0380
 1531TIP3    H226085   4.176   2.179  16.193  1.9020  1.7930  0.4705
 1532TIP3   OH226086   1.084   2.708   5.944  0.0522  0.3276 -0.2126
 1532TIP3    H126087   0.991   2.688   5.956  0.0891  0.0521 -0.3704
 1532TIP3    H226088   1.110   2.752   6.026 -0.5147  1.5426 -0.6543
 1533TIP3   OH226089   3.857   0.361   2.394 -0.4906  0.7349  0.4892
 1533TIP3    H126090   3.800   0.437   2.407 -1.6584  0.1090 -0.7147
 1533TIP3    H226091   3.894   0.374   2.307 -0.5439  0.0157  0.3564
 1534TIP3   OH226092   3.032   5.468   2.400 -0.0154  0.0205  0.2529
 1534TIP3    H126093   2.995   5.554   2.382 -1.4433 -0.2560  1.5879
 1534TIP3    H226094   2.983   5.408   2.344  1.4332  0.1145 -1.1701
 1535TIP3   OH226095   5.462   6.160   6.418  0.4730  0.0199  0.1531
 1535TIP3    H126096   5.440   6.177   6.326  2.2976  0.1307 -0.3117
 1535TIP3    H226097   5.385   6.118   6.454 -0.2559 -0.1002 -1.4580
 1536TIP3   OH226098   3.913   5.878   2.458 -0.2173  0.2092 -0.0748
 1536TIP3    H126099   3.981   5.857   2.522  1.9856  1.8469 -1.7161
 1536TIP3    H226100   3.895   5.971   2.472 -0.4690  0.3318 -1.1322
 1537TIP3   OH226101   1.251   3.388  12.680  0.4984 -0.0983  0.0473
 1537TIP3    H126102   1.266   3.461  12.619 -0.0694  1.0413  1.2086
 1537TIP3    H226103   1.189   3.423  12.743  0.4728 -1.5096  0.8389
 1538TIP3   OH226104   6.827   6.195  14.854  0.5041  0.1112  0.2418
 1538TIP3    H126105   6.887   6.172  14.925  0.9089  1.1027  0.2354
 1538TIP3    H226106   6.871   6.267  14.808 -1.3265  1.8855  1.1281
 1539TIP3   OH226107   1.599   3.360  14.286 -0.5683  0.1983  0.6789
 1539TIP3    H126108   1.662   3.334  14.353  0.7991 -0.8390 -0.9399
 1539TIP3    H226109   1.516   3.370  14.333  0.4634  0.0811  2.5975
 1540TIP3   OH226110   5.664   1.909  10.525  0.0387  0.3322 -0.2782
 1540TIP3    H126111   5.753   1.897  10.492 -0.5284 -2.4828 -1.0727
 1540TIP3    H226112   5.632   1.988  10.481  2.3175  1.8487  0.6075
 1541TIP3   OH226113   4.810   0.793   0.730  0.0180  0.2962  0.2478
 1541TIP3    H126114   4.823   0.762   0.640 -2.2216 -0.2938  0.0780
 1541TIP3    H226115   4.813   0.889   0.723  1.3809  0.2449 -0.1651
 1542TIP3   OH226116   3.904   2.731  12.504 -0.2001  0.1527  0.4204
 1542TIP3    H126117   3.936   2.815  12.540 -1.4873  0.9758 -0.2825
 1542TIP3    H226118   3.831   2.756  12.448 -0.5796 -1.4657  0.1658
 1543TIP3   OH226119   5.667   2.846  11.968  0.1271  0.5841  0.8255
 1543TIP3    H126120   5.668   2.856  12.063 -0.1024  1.2138  0.7674
 1543TIP3    H226121   5.708   2.926  11.935 -0.1342  0.5406  0.3832
 1544TIP3   OH226122   2.916   5.287  16.001  0.4564  0.1321 -0.0868
 1544TIP3    H126123   2.950   5.302  16.089 -0.2480  2.2619 -0.1248
 1544TIP3    H226124   2.833   5.242  16.014  0.7599 -0.3192  0.2957
 1545TIP3   OH226125   0.996   4.137   6.316 -0.0808 -0.1045  0.0836
 1545TIP3    H126126   1.008   4.177   6.403 -0.7134 -1.3244  0.7463
 1545TIP3    H226127   1.017   4.045   6.329  0.0274 -0.2590 -1.1215
 1546TIP3   OH226128   5.275   4.993  14.820 -0.2080  0.3512 -0.2763
 1546TIP3    H126129   5.284   5.086  14.841  1.2512  0.2766 -0.4495
 1546TIP3    H226130   5.312   4.985  14.731 -0.3458 -0.3825 -0.2773
 1547TIP3   OH226131   3.378   1.000   4.421  0.4926  0.2232 -0.2561
 1547TIP3    H126132   3.423   0.996   4.506  0.1037  0.4752 -0.0350
 1547TIP3    H226133   3.425   1.068   4.373  0.9189 -0.1457 -0.3661
 1548TIP3   OH226134   3.102   1.227  13.562  0.7196 -0.1192 -0.5648
 1548TIP3    H126135   3.195   1.208  13.578  0.5299  0.7013  1.8355
 1548TIP3    H226136   3.060   1.220  13.647 -0.7870  2.9238 -0.9191
 1549TIP3   OH226137   4.636   6.739  14.945  0.3274 -0.1829  0.4906
 1549TIP3    H126138   4.596   6.659  14.977  0.1976 -0.3128  0.0218
 1549TIP3    H226139   4.624   6.803  15.015 -1.5063  0.0355  0.0165
 1550TIP3   OH226140   5.300   2.501   1.755 -0.0532  0.2011 -0.4283
 1550TIP3    H126141   5.358   2.546   1.816  0.5414  0.3899 -1.1196
 1550TIP3    H226142   5.356   2.480   1.680 -0.6323 -0.5359 -0.6645
 1551TIP3   OH226143   2.624   4.280  13.096  0.4166  0.4999  0.5041
 1551TIP3    H126144   2.631   4.193  13.135  1.2764  0.7020  0.8435
 1551TIP3    H226145   2.629   4.265  13.002 -0.1086  0.1281  0.5374
 1552TIP3   OH226146   6.723   3.868   1.332  0.1321  0.1032  0.2046
 1552TIP3    H126147   6.688   3.785   1.300 -0.1053 -0.3749  1.5938
 1552TIP3    H226148   6.813   3.870   1.301 -0.1601 -0.1961 -0.6878
 1553TIP3   OH226149   5.209   6.775   5.410 -0.1769  0.1065  0.1379
 1553TIP3    H126150   5.163   6.784   5.493  1.2617  2.7579  0.7753
 1553TIP3    H226151   5.163   6.833   5.350  0.8512  0.9468  0.1257
 1554TIP3   OH226152   1.369   0.531  11.781 -0.3443  0.0535 -0.3368
 1554TIP3    H126153   1.325   0.574  11.855  2.2113  0.6743  0.9343
 1554TIP3    H226154   1.369   0.438  11.803 -1.0260  0.0421 -0.3735
 1555TIP3   OH226155   4.770   4.127  15.193  0.5999 -0.1368  0.3929
 1555TIP3    H126156   4.683   4.103  15.161  1.4129 -0.8622 -1.4352
 1555TIP3    H226157   4.796   4.055  15.250  1.1156 -1.4132 -1.3484
 1556TIP3   OH226158   0.552   3.632  11.763 -0.1717  0.4723 -0.3877
 1556TIP3    H126159   0.546   3.590  11.849  0.7069 -0.8131 -0.9291
 1556TIP3    H226160   0.542   3.726  11.782  1.9644  0.4311  1.3773
 1557TIP3   OH226161   6.630   1.818   0.272 -0.0054  0.4485 -0.6027
 1557TIP3    H126162   6.636   1.753   0.343  0.0557  0.9390 -0.1564
 1557TIP3    H226163   6.652   1.768   0.193 -0.3195 -0.1644 -0.3176
 1558TIP3   OH226164   4.205   6.502  12.546 -0.5061 -0.1313  0.3623
 1558TIP3    H126165   4.233   6.417  12.582  0.8521  0.3951  0.6347
 1558TIP3    H226166   4.261   6.514  12.469  1.5108  1.8475  2.0103
 1559TIP3   OH226167   4.030   0.597   1.631 -0.8139  0.1344  0.2761
 1559TIP3    H126168   4.037   0.608   1.537  0.3954  3.3579  0.6413
 1559TIP3    H226169   4.046   0.503   1.645 -1.0286 -0.4433 -2.6592
 1560TIP3   OH226170   1.695   0.204   2.981  0.2603 -0.1743  0.7781
 1560TIP3    H126171   1.772   0.152   2.960  0.0360  0.5152 -2.1739
 1560TIP3    H226172   1.666   0.240   2.897 -1.1292  2.5845  2.2833
 1561TIP3   OH226173   6.630   5.807  12.751 -0.0512 -0.2221 -0.0143
 1561TIP3    H126174   6.710   5.787  12.702 -0.6881  2.0258 -2.1673
 1561TIP3    H226175   6.656   5.872  12.816  0.3179 -1.3690  1.0110
 1562TIP3   OH226176   6.827   5.764   0.250 -0.3396 -0.5397 -0.4180
 1562TIP3    H126177   6.831   5.683   0.199 -0.9499 -0.8968  0.0869
 1562TIP3    H226178   6.831   5.735   0.341 -0.9612 -0.0342 -0.2225
 1563TIP3   OH226179   2.845   6.584   3.965 -0.0061 -0.4193  0.2076
 1563TIP3    H126180   2.802   6.499   3.954 -0.2486 -0.1054 -1.6100
 1563TIP3    H226181   2.937   6.565   3.946 -0.1109 -0.2419 -0.5221
 1564TIP3   OH226182   0.368   2.412   1.524 -0.4820  0.1132  0.5677
 1564TIP3    H126183   0.333   2.491   1.484 -3.5479 -0.4906  1.8008
 1564TIP3    H226184   0.291   2.364   1.556  1.2664 -3.0236  0.5571
 1565TIP3   OH226185   5.629   1.447   3.821 -0.2884  0.6620  0.0595
 1565TIP3    H126186   5.604   1.484   3.906  1.2182  0.8834  0.4296
 1565TIP3    H226187   5.711   1.401   3.838 -0.4930 -0.1773 -1.0721
 1566TIP3   OH226188   4.970   5.551  13.666  0.6629 -0.1035 -0.2925
 1566TIP3    H126189   4.919   5.544  13.747  0.8883  2.2880  0.1251
 1566TIP3    H226190   4.906   5.572  13.599  0.6094 -1.0806 -0.5580
 1567TIP3   OH226191   2.305   4.303  16.223  0.7068  0.1345  0.4452
 1567TIP3    H126192   2.384   4.295  16.169 -0.2635 -0.9725 -0.9103
 1567TIP3    H226193   2.320   4.381  16.276  1.5687  1.5808 -1.7465
 1568TIP3   OH226194   1.088   1.592   4.271 -0.0594 -0.0521 -0.0242
 1568TIP3    H126195   1.032   1.667   4.292 -0.0867 -0.1245  0.1610
 1568TIP3    H226196   1.071   1.574   4.178 -0.0058  0.2106 -0.0867
 1569TIP3   OH226197   4.673   4.114  14.814 -0.8529 -0.0461 -0.0410
 1569TIP3    H126198   4.655   4.206  14.796 -1.1873 -0.2521 -0.8391
 1569TIP3    H226199   4.588   4.078  14.841 -0.9089 -0.2936 -0.5355
 1570TIP3   OH226200   1.848   5.149  14.709  0.2281 -0.0630 -0.0255
 1570TIP3    H126201   1.884   5.095  14.639  0.2654 -1.5582  1.1138
 1570TIP3    H226202   1.756   5.122  14.715 -0.0251  0.7536 -0.1330
 1571TIP3   OH226203   5.708   3.349   0.776  0.4240  0.6945 -0.4442
 1571TIP3    H126204   5.680   3.258   0.761 -0.9388  0.7846  1.1950
 1571TIP3    H226205   5.803   3.347   0.766  0.7662 -1.5008  1.9567
 1572TIP3   OH226206   1.318   3.271   1.419 -0.1945  0.4708  1.1338
 1572TIP3    H126207   1.319   3.357   1.377 -0.5612 -0.2096 -0.3428
 1572TIP3    H226208   1.250   3.277   1.486  0.3271  1.5615  1.5860
 1573TIP3   OH226209   2.989   6.796   1.490 -0.1404  0.8049 -0.6141
 1573TIP3    H126210   2.966   6.862   1.556 -0.4310 -0.2875  0.4149
 1573TIP3    H226211   2.912   6.790   1.434 -2.0298 -1.7692  1.9304
 1574TIP3   OH226212   0.932   5.425   0.889  0.2766  0.0828  0.0526
 1574TIP3    H126213   0.872   5.420   0.963  0.4312  0.0186  0.1731
 1574TIP3    H226214   0.880   5.463   0.818  0.2431  0.5350  0.3140
 1575TIP3   OH226215   2.055   1.887   1.831 -0.3371  0.6328  0.1440
 1575TIP3    H126216   2.021   1.893   1.920 -2.7129  2.5910 -0.8046
 1575TIP3    H226217   2.097   1.971   1.815  0.4287  0.1453 -0.4562
 1576TIP3   OH226218   1.956   6.562   1.232  0.6195  0.1341 -0.3158
 1576TIP3    H126219   1.882   6.617   1.210  0.5407  0.2459  0.2233
 1576TIP3    H226220   1.922   6.472   1.228 -0.0947  0.2543  1.8872
 1577TIP3   OH226221   2.969   2.136   0.322 -0.4194  1.0659 -0.0102
 1577TIP3    H126222   2.916   2.216   0.322 -1.9017  0.1338  0.2131
 1577TIP3    H226223   2.940   2.088   0.244  0.1942  0.5784  0.0492
 1578TIP3   OH226224   2.777   3.054  15.237  0.1661 -0.1216  0.4992
 1578TIP3    H126225   2.688   3.053  15.201 -0.1771 -0.6710  1.3185
 1578TIP3    H226226   2.764   3.071  15.331  1.0590  1.7058  0.3318
 1579TIP3   OH226227   3.861   3.752   0.578 -0.1960  0.2595  0.2623
 1579TIP3    H126228   3.886   3.818   0.643 -0.4058 -0.3127  0.9364
 1579TIP3    H226229   3.880   3.668   0.620  3.4408 -0.2223 -1.8418
 1580TIP3   OH226230   0.278   5.872  16.437  0.1190  0.0176 -0.0016
 1580TIP3    H126231   0.349   5.817  16.469  0.6511  0.9983  0.5128
 1580TIP3    H226232   0.311   5.908  16.354 -0.0708 -0.0986 -0.1298
 1581TIP3   OH226233   0.161   0.249  16.039  0.4806  0.3869  0.4031
 1581TIP3    H126234   0.105   0.262  15.963 -0.1683 -0.8054  0.6454
 1581TIP3    H226235   0.101   0.220  16.108  1.1951  0.4966  1.0838
 1582TIP3   OH226236   3.075   0.111  14.974 -0.4673  0.0524  0.0167
 1582TIP3    H126237   3.027   0.081  14.897  0.3887  0.4706 -0.6987
 1582TIP3    H226238   3.118   0.191  14.945 -2.5209  1.9244  1.8079
 1583TIP3   OH226239   5.268   3.772   4.426 -0.1794  0.7466  0.1667
 1583TIP3    H126240   5.270   3.768   4.330 -2.1975  2.0234  0.0097
 1583TIP3    H226241   5.302   3.859   4.446  1.2118  0.1024  0.7082
 1584TIP3   OH226242   2.356   3.313  11.313 -0.2459  0.2042 -0.3526
 1584TIP3    H126243   2.313   3.382  11.263 -0.0265  0.0628 -0.7463
 1584TIP3    H226244   2.449   3.325  11.295 -0.1757  0.0717 -0.0770
 1585TIP3   OH226245   3.686   2.451   4.556  0.6061  0.5279  0.2491
 1585TIP3    H126246   3.737   2.408   4.625 -0.6861  2.5369  2.5965
 1585TIP3    H226247   3.614   2.390   4.539  1.1343 -0.1560  0.4245
 1586TIP3   OH226248   2.570   2.365   0.107  0.4791  0.5285 -0.7986
 1586TIP3    H126249   2.515   2.431   0.150 -1.1974  0.4962 -2.7467
 1586TIP3    H226250   2.584   2.399   0.019 -0.3152 -1.5784 -1.8088
 1587TIP3   OH226251   3.286   0.760  15.461 -0.2367 -0.5932  0.2937
 1587TIP3    H126252   3.326   0.839  15.497 -0.3726 -0.5966  0.4520
 1587TIP3    H226253   3.192   0.772  15.476 -0.6492  0.7524 -2.5924
 1588TIP3   OH226254   3.834   6.736   6.745  0.1209 -0.5067 -0.6517
 1588TIP3    H126255   3.814   6.827   6.771  1.5845 -0.3613  0.0500
 1588TIP3    H226256   3.827   6.736   6.650  1.3710  0.6878 -0.7725
 1589TIP3   OH226257   1.705   2.411   0.851 -0.5520  0.1863  0.1398
 1589TIP3    H126258   1.764   2.339   0.829 -0.0963 -0.4740  3.0412
 1589TIP3    H226259   1.620   2.386   0.816 -0.0848 -1.0875 -0.1148
 1590TIP3   OH226260   5.734   4.017  15.893 -0.0694  0.5062 -0.2763
 1590TIP3    H126261   5.726   4.102  15.849 -1.9346  1.0799  1.0235
 1590TIP3    H226262   5.692   4.031  15.979  0.3223 -1.5091  0.2888
 1591TIP3   OH226263   4.207   0.299   4.768 -0.0930  0.1058 -0.2976
 1591TIP3    H126264   4.152   0.371   4.737  0.3287  0.1645 -0.9197
 1591TIP3    H226265   4.171   0.278   4.855 -0.6351  0.6215 -0.3862
 1592TIP3   OH226266   4.132   1.145   4.583 -0.0737  0.0433 -0.7189
 1592TIP3    H126267   4.107   1.149   4.490 -2.4910 -1.8416 -0.2551
 1592TIP3    H226268   4.051   1.163   4.630  0.3554 -2.0553  0.9816
 1593TIP3   OH226269   2.055   1.774  12.993  0.0196  0.1154 -0.2107
 1593TIP3    H126270   1.982   1.724  12.956  0.0765  0.0701 -0.2615
 1593TIP3    H226271   2.133   1.724  12.969  0.0696  0.1789 -0.1800
 1594TIP3   OH226272   0.410   2.396   3.104  0.4733  0.2599 -1.1824
 1594TIP3    H126273   0.506   2.399   3.105  0.5403 -1.0857 -1.2566
 1594TIP3    H226274   0.385   2.394   3.196  0.5717 -0.3346 -1.1648
 1595TIP3   OH226275   0.414   0.569  11.519  0.1596 -0.5098  0.5138
 1595TIP3    H126276   0.324   0.537  11.521  0.8118 -2.4253  0.9520
 1595TIP3    H226277   0.440   0.562  11.427 -0.7448  1.9993 -0.0082
 1596TIP3   OH226278   1.115   2.609  15.813 -0.1330 -0.7869  0.1132
 1596TIP3    H126279   1.143   2.692  15.851 -2.5931  1.6676 -2.8548
 1596TIP3    H226280   1.039   2.582  15.864 -0.1806 -0.4340  0.2246
 1597TIP3   OH226281   0.486   6.840  14.790  0.1556  0.3614 -0.1199
 1597TIP3    H126282   0.408   6.876  14.747  0.3542 -0.0846 -0.8636
 1597TIP3    H226283   0.559   6.869  14.736  0.5041  0.6671  0.5033
 1598TIP3   OH226284   1.633   3.442  11.764  0.1367 -0.6195 -0.2392
 1598TIP3    H126285   1.621   3.468  11.673  0.9126  0.1774 -0.1299
 1598TIP3    H226286   1.693   3.368  11.760 -1.0148 -1.5707 -0.4616
 1599TIP3   OH226287   1.630   1.968   0.139  0.1740  0.8255 -0.3676
 1599TIP3    H126288   1.669   2.006   0.218  1.9618 -1.2902 -0.1322
 1599TIP3    H226289   1.545   2.011   0.132 -1.7327 -1.2263  4.7749
 1600TIP3   OH226290   0.469   1.765   2.019  0.2762 -0.6227  0.4400
 1600TIP3    H126291   0.407   1.741   2.088  0.5463 -0.5146  0.7210
 1600TIP3    H226292   0.537   1.815   2.064  0.4705 -0.5781  0.1000
 1601TIP3   OH226293   1.983   1.083  14.718  0.2561  0.8961 -0.2885
 1601TIP3    H126294   1.894   1.064  14.687  0.2863  0.1306  0.0649
 1601TIP3    H226295   2.038   1.019  14.672  0.0231 -2.0485  3.0963
 1602TIP3   OH226296   5.575   2.735   4.281 -0.6377  0.1465 -0.2334
 1602TIP3    H126297   5.634   2.662   4.301  1.2026  1.1443 -1.6908
 1602TIP3    H226298   5.620   2.812   4.317 -1.6012  0.8069 -0.4127
 1603TIP3   OH226299   6.075   0.549  17.149 -0.0671  0.4106  0.2043
 1603TIP3    H126300   6.121   0.547  17.065 -1.4731 -1.9819 -0.6188
 1603TIP3    H226301   6.130   0.498  17.208 -0.1952  0.0898  0.0522
 1604TIP3   OH226302   2.492   2.515  15.324  0.4559 -0.1744 -0.3698
 1604TIP3    H126303   2.463   2.477  15.241 -0.1585  1.3053 -0.8540
 1604TIP3    H226304   2.429   2.482  15.388 -0.3071  0.3211 -0.8498
 1605TIP3   OH226305   3.229   4.978  16.922 -0.2408  0.1427  0.0465
 1605TIP3    H126306   3.255   4.986  17.014  0.4918 -0.5878 -0.0790
 1605TIP3    H226307   3.135   4.995  16.922 -0.0588  1.2218  0.7665
 1606TIP3   OH226308   5.627   0.803   0.586  0.0741 -0.1273 -0.0914
 1606TIP3    H126309   5.578   0.834   0.510  0.6208  0.9381 -0.0232
 1606TIP3    H226310   5.693   0.744   0.549  1.2680  1.4794 -0.6383
 1607TIP3   OH226311   3.203   5.727   4.070 -0.6607 -0.1889 -0.7594
 1607TIP3    H126312   3.178   5.732   3.978 -0.9354  0.2435 -0.6692
 1607TIP3    H226313   3.210   5.634   4.089  2.5988 -0.3437 -2.0482
 1608TIP3   OH226314   0.310   4.886   2.849  0.8006  0.4362  0.4060
 1608TIP3    H126315   0.385   4.827   2.857 -0.1283 -0.8096  0.2460
 1608TIP3    H226316   0.236   4.829   2.829 -0.3179  1.5558  1.1387
 1609TIP3   OH226317   4.670   5.409  10.544 -0.2553 -0.7659 -0.6033
 1609TIP3    H126318   4.628   5.490  10.515 -1.6697 -1.1289  0.3735
 1609TIP3    H226319   4.755   5.409  10.498 -0.9597  0.3734 -1.9867
 1610TIP3   OH226320   0.999   4.924   0.143  0.3790 -0.5981 -0.1866
 1610TIP3    H126321   1.069   4.878   0.189  1.4909  0.9122 -0.3403
 1610TIP3    H226322   0.947   4.964   0.213 -0.6024 -2.0143 -0.0505
 1611TIP3   OH226323   4.460   4.345  12.638 -0.0461  0.2335 -0.3207
 1611TIP3    H126324   4.509   4.374  12.715 -1.8624  1.7372  0.3492
 1611TIP3    H226325   4.514   4.276  12.599  1.6259  0.4764  1.4466
 1612TIP3   OH226326   3.907   1.488   0.564 -0.0636  0.0175  0.5080
 1612TIP3    H126327   3.832   1.467   0.619 -1.1863  2.0047 -0.1567
 1612TIP3    H226328   3.959   1.549   0.616 -0.1837  0.5057  0.0651
 1613TIP3   OH226329   0.709   0.871  13.279  0.0635 -0.1077 -0.1039
 1613TIP3    H126330   0.634   0.823  13.244  0.6716 -0.6464 -0.7111
 1613TIP3    H226331   0.731   0.825  13.359 -1.0831  0.8827  0.8171
 1614TIP3   OH226332   4.645   4.153  16.453 -0.0949 -0.2224  0.5056
 1614TIP3    H126333   4.595   4.221  16.408  0.3095 -0.8237 -0.8897
 1614TIP3    H226334   4.591   4.074  16.446  0.6561 -0.6835 -0.3061
 1615TIP3   OH226335   1.784   0.466   5.793  0.2290  0.0768  0.2279
 1615TIP3    H126336   1.693   0.475   5.821  0.1035  0.0309 -0.1687
 1615TIP3    H226337   1.829   0.538   5.837  0.5069 -1.3883  2.5082
 1616TIP3   OH226338   6.773   4.738  12.848  0.3925  0.3168 -0.4289
 1616TIP3    H126339   6.738   4.681  12.779  2.2424 -1.3208 -0.0864
 1616TIP3    H226340   6.730   4.822  12.833  0.0037 -0.2483 -2.9926
 1617TIP3   OH226341   5.449   0.708   4.970  0.5470 -0.1998 -0.3348
 1617TIP3    H126342   5.420   0.784   4.920  0.0906 -0.9952 -1.3233
 1617TIP3    H226343   5.538   0.692   4.939  0.7320  0.0745  0.0526
 1618TIP3   OH226344   1.071   1.732  11.538 -0.3990 -0.0613  0.3971
 1618TIP3    H126345   1.025   1.792  11.480  0.0508 -0.5625 -0.5121
 1618TIP3    H226346   1.017   1.728  11.617 -0.0733  2.0569  0.7753
 1619TIP3   OH226347   3.230   3.337  13.079  0.9411  0.0624  0.0918
 1619TIP3    H126348   3.237   3.425  13.044  0.0257 -0.0729 -0.4935
 1619TIP3    H226349   3.165   3.294  13.022  2.0928 -1.2981 -0.2755
 1620TIP3   OH226350   6.378   2.176  11.976  0.1748 -0.7519 -0.2221
 1620TIP3    H126351   6.295   2.185  11.930  0.9907 -0.1990 -1.6417
 1620TIP3    H226352   6.370   2.093  12.024 -0.5006 -1.6588 -1.8298
 1621TIP3   OH226353   2.415   5.078   1.662  0.0278  0.1193 -0.2960
 1621TIP3    H126354   2.450   5.103   1.576  1.3527  1.6498  0.6490
 1621TIP3    H226355   2.324   5.055   1.644 -0.2051  1.9729 -1.8726
 1622TIP3   OH226356   5.214   3.537  13.218  0.0872  0.2005 -0.1455
 1622TIP3    H126357   5.274   3.553  13.291  1.4629 -0.3094 -1.1190
 1622TIP3    H226358   5.221   3.443  13.202 -0.5085  0.2390 -0.6696
 1623TIP3   OH226359   3.843   6.270  14.720  0.6891  0.0263  0.0603
 1623TIP3    H126360   3.788   6.191  14.721  0.3841  0.2390  0.4212
 1623TIP3    H226361   3.882   6.271  14.633 -2.5555  1.7207 -1.5506
 1624TIP3   OH226362   4.137   3.086  10.702 -0.3363  0.4838 -0.2204
 1624TIP3    H126363   4.076   3.153  10.672  0.1252  0.7870 -0.4847
 1624TIP3    H226364   4.156   3.110  10.792  0.8223  1.4608 -0.6951
 1625TIP3   OH226365   5.423   1.844   0.444 -0.1260 -0.2660  0.6301
 1625TIP3    H126366   5.401   1.894   0.366 -0.7120  0.1669  1.0682
 1625TIP3    H226367   5.518   1.833   0.439 -0.1667 -0.3058 -0.1753
 1626TIP3   OH226368   1.938   4.503  13.246  0.0910 -0.4616 -0.1833
 1626TIP3    H126369   1.874   4.484  13.315  1.7047 -1.3815  1.1540
 1626TIP3    H226370   1.899   4.575  13.197 -2.6954 -2.0200 -0.4944
 1627TIP3   OH226371   2.092   6.150  15.940  0.1790  0.4414  0.1381
 1627TIP3    H126372   2.060   6.118  16.024  0.2992 -0.1900 -0.0480
 1627TIP3    H226373   2.161   6.211  15.962  2.1633 -1.7842  0.4969
 1628TIP3   OH226374   1.949   5.653  14.310  0.3358 -0.6076 -0.0381
 1628TIP3    H126375   1.994   5.728  14.349 -1.8892  0.0787  1.3735
 1628TIP3    H226376   1.888   5.623  14.378 -1.0083 -1.7804 -1.6713
 1629TIP3   OH226377   4.433   5.595   4.061  0.2656 -0.0467 -0.6133
 1629TIP3    H126378   4.463   5.638   4.141 -1.0596  1.3295 -0.8054
 1629TIP3    H226379   4.506   5.540   4.034  1.3545  0.7258  0.6486
 1630TIP3   OH226380   4.688   0.762  12.844  0.1084  0.3945  0.4332
 1630TIP3    H126381   4.723   0.803  12.765 -2.9077 -0.8237 -1.7437
 1630TIP3    H226382   4.712   0.670  12.836  0.7371  0.4407  1.5680
 1631TIP3   OH226383   1.922   3.130  12.336  0.2902  0.3578  0.3115
 1631TIP3    H126384   2.010   3.162  12.318  0.3191 -0.3136 -0.8350
 1631TIP3    H226385   1.922   3.109  12.429  1.1893  0.8194  0.4184
 1632TIP3   OH226386   2.092   3.268   6.191  0.1908  0.1301  0.1704
 1632TIP3    H126387   2.058   3.279   6.280 -0.5015 -1.7886  0.1964
 1632TIP3    H226388   2.139   3.349   6.173  1.9067 -0.1084  2.9743
 1633TIP3   OH226389   1.474   5.306  12.462  0.0435  0.2271 -1.0254
 1633TIP3    H126390   1.449   5.285  12.372 -0.5737 -1.0088 -0.5951
 1633TIP3    H226391   1.557   5.261  12.476 -1.1612 -1.8659 -0.1774
 1634TIP3   OH226392   6.230   5.360  14.670 -0.0183 -0.5946 -0.4199
 1634TIP3    H126393   6.172   5.420  14.623 -0.0203 -0.1211  0.1792
 1634TIP3    H226394   6.172   5.312  14.729  0.4104  1.2527  1.6161
 1635TIP3   OH226395   5.723   0.594  16.998 -0.2174 -0.2799 -0.2970
 1635TIP3    H126396   5.796   0.626  16.946 -0.4144 -2.3519 -2.0445
 1635TIP3    H226397   5.716   0.501  16.975 -2.8811 -0.3591  0.4002
 1636TIP3   OH226398   5.956   3.604   1.883 -0.1615 -0.0677 -0.1289
 1636TIP3    H126399   5.939   3.622   1.791 -2.5819  0.1493  0.2955
 1636TIP3    H226400   5.986   3.688   1.919  0.4972 -0.0787 -0.6275
 1637TIP3   OH226401   5.814   3.825   1.503  0.5087  0.0863 -0.3992
 1637TIP3    H126402   5.889   3.773   1.533  0.5632 -0.2576 -1.1178
 1637TIP3    H226403   5.788   3.784   1.421 -1.1188 -0.4373  0.3492
 1638TIP3   OH226404   1.930   6.351  13.030 -0.1402 -0.2353 -0.2085
 1638TIP3    H126405   1.864   6.303  12.979  0.2308  0.0707 -0.9831
 1638TIP3    H226406   2.006   6.294  13.029  0.8258  0.9816 -2.4338
 1639TIP3   OH226407   3.477   4.542   3.066  0.6275 -0.0543 -0.2670
 1639TIP3    H126408   3.398   4.597   3.059  1.5698  1.2100 -1.8867
 1639TIP3    H226409   3.523   4.576   3.142  0.5311  0.5050 -0.4524
 1640TIP3   OH226410   1.394   1.653  16.394 -0.0228 -0.2176  0.3906
 1640TIP3    H126411   1.435   1.569  16.411 -0.5417 -0.1217  2.3390
 1640TIP3    H226412   1.466   1.716  16.393  0.1288 -0.3522  1.5833
 1641TIP3   OH226413   5.532   2.121  15.476 -0.5736  0.8391  0.0575
 1641TIP3    H126414   5.457   2.100  15.420 -0.1899 -1.2535  0.2383
 1641TIP3    H226415   5.494   2.166  15.551 -1.4933  0.8574 -0.4029
 1642TIP3   OH226416   3.386   6.391  14.336  0.1811  0.0448  0.3267
 1642TIP3    H126417   3.437   6.344  14.402  0.7756 -2.1768 -1.5793
 1642TIP3    H226418   3.391   6.482  14.362  2.1643 -0.5150  2.1707
 1643TIP3   OH226419   2.321   4.648  11.118 -0.3036 -0.1807 -0.0324
 1643TIP3    H126420   2.277   4.671  11.199  1.9872 -1.5932  1.7622
 1643TIP3    H226421   2.328   4.552  11.121 -0.1728 -0.2683 -1.9205
 1644TIP3   OH226422   1.404   5.935   5.056 -0.5517  0.8859 -0.2807
 1644TIP3    H126423   1.479   5.954   4.999  0.2447  0.3276  0.5607
 1644TIP3    H226424   1.411   5.841   5.073  0.1366  1.2966  1.9966
 1645TIP3   OH226425   2.014   6.598   2.816 -0.3702  0.2781  0.5605
 1645TIP3    H126426   2.000   6.517   2.767  1.3840 -0.4763  1.1943
 1645TIP3    H226427   1.967   6.585   2.899  1.2352 -0.8548  1.3530
 1646TIP3   OH226428   1.616   0.749  13.745  0.2134  0.3586  0.0599
 1646TIP3    H126429   1.546   0.797  13.701  0.7593  2.1591  1.0506
 1646TIP3    H226430   1.576   0.717  13.826 -0.1273 -0.8558 -0.5619
 1647TIP3   OH226431   2.696   5.219   0.880  0.1189  0.0057 -0.0788
 1647TIP3    H126432   2.637   5.201   0.953  1.2217  0.5849  0.9927
 1647TIP3    H226433   2.765   5.154   0.889 -0.6866 -1.1514 -1.7671
 1648TIP3   OH226434   4.522   1.702  15.362  0.1178 -0.1551  0.1969
 1648TIP3    H126435   4.482   1.712  15.448  0.5161  0.0992  0.3566
 1648TIP3    H226436   4.448   1.687  15.303 -0.3860  1.7689  0.2491
 1649TIP3   OH226437   2.786   6.221  12.235 -0.1744 -0.2765 -0.3664
 1649TIP3    H126438   2.815   6.296  12.288 -1.3178 -0.8622  1.1500
 1649TIP3    H226439   2.759   6.156  12.299  0.1164 -1.7337 -1.6828
 1650TIP3   OH226440   5.999   6.678   0.559  0.6369 -0.0553  0.1521
 1650TIP3    H126441   5.920   6.659   0.509 -0.0294 -0.3397  1.2677
 1650TIP3    H226442   5.967   6.702   0.646  1.7758 -0.0678  0.5925
 1651TIP3   OH226443   3.619   4.364  15.926 -0.1916  0.2286  0.2092
 1651TIP3    H126444   3.588   4.397  16.011  0.3499 -0.6450  0.7661
 1651TIP3    H226445   3.638   4.443  15.875 -0.9802  0.7692  0.7208
 1652TIP3   OH226446   0.379   3.368   3.972  0.3879 -0.5084 -0.2452
 1652TIP3    H126447   0.386   3.402   4.061  0.6411  0.2499 -0.5519
 1652TIP3    H226448   0.417   3.436   3.917 -0.2929 -0.7262 -0.9933
 1653TIP3   OH226449   3.421   1.920   5.563  0.1033 -0.5023  0.1250
 1653TIP3    H126450   3.505   1.900   5.522  1.4031  0.1914  2.3183
 1653TIP3    H226451   3.390   1.998   5.518  1.9065  0.7394  0.9475
 1654TIP3   OH226452   5.950   0.219   2.725 -0.3301  0.0695 -0.1838
 1654TIP3    H126453   5.972   0.253   2.812  1.0256  0.0351 -0.4866
 1654TIP3    H226454   6.027   0.167   2.700 -1.0783 -0.6508 -1.0312
 1655TIP3   OH226455   6.540   4.819   5.401 -0.0159  0.3092  0.1284
 1655TIP3    H126456   6.565   4.727   5.391  0.1264  0.2813  0.6993
 1655TIP3    H226457   6.623   4.866   5.409  0.0948  0.9105 -3.2213
 1656TIP3   OH226458   4.179   0.119   5.495 -0.6084  0.8453  0.0041
 1656TIP3    H126459   4.188   0.026   5.477  0.1253  0.7780  0.6618
 1656TIP3    H226460   4.085   0.132   5.510 -0.6078  0.0310  0.8157
 1657TIP3   OH226461   3.119   4.620  12.564  0.4636  0.2197  0.3030
 1657TIP3    H126462   3.057   4.627  12.491  0.1053  0.9369  0.6624
 1657TIP3    H226463   3.205   4.614  12.523  0.1342 -1.1585 -0.2169
 1658TIP3   OH226464   4.307   3.325  11.151  0.2761 -0.3352 -0.0176
 1658TIP3    H126465   4.300   3.415  11.184  0.6456  0.1171 -1.1129
 1658TIP3    H226466   4.328   3.273  11.228  3.9173  1.0632  0.1353
 1659TIP3   OH226467   1.731   6.543   5.192  0.5711  0.0139  0.0795
 1659TIP3    H126468   1.660   6.553   5.129 -1.3688  0.2847  2.1997
 1659TIP3    H226469   1.764   6.455   5.177 -0.8211 -0.4521 -0.3737
 1660TIP3   OH226470   5.655   1.258   0.460  0.4005 -0.4037 -0.6639
 1660TIP3    H126471   5.577   1.249   0.405  0.8789 -1.0354 -1.2479
 1660TIP3    H226472   5.700   1.173   0.453 -0.0510 -0.8992  1.5108
 1661TIP3   OH226473   3.352   6.620  14.461 -0.1966 -0.0064 -0.0396
 1661TIP3    H126474   3.331   6.704  14.420  0.2871 -0.8610 -2.1506
 1661TIP3    H226475   3.275   6.599  14.513 -0.6423  1.3805 -0.1117
 1662TIP3   OH226476   5.128   6.635   2.425  0.1596 -0.3313 -0.2973
 1662TIP3    H126477   5.035   6.657   2.430  0.0687 -0.3265 -1.6470
 1662TIP3    H226478   5.130   6.551   2.379  0.8699  0.2812 -1.4306
 1663TIP3   OH226479   6.793   5.252  12.833  0.1426  0.2646  0.4723
 1663TIP3    H126480   6.730   5.266  12.905  0.8757 -1.8402  1.5994
 1663TIP3    H226481   6.877   5.277  12.870  0.3663  0.3986 -0.1178
 1664TIP3   OH226482   5.016   3.576  12.969 -0.5742  0.1620  0.1486
 1664TIP3    H126483   4.935   3.616  12.999 -0.4713 -0.0444  0.7097
 1664TIP3    H226484   5.070   3.568  13.048 -0.1220  0.0284 -0.1674
 1665TIP3   OH226485   2.538   3.718   1.826  0.4792 -0.4034 -0.1271
 1665TIP3    H126486   2.603   3.689   1.890 -1.0290 -1.1751  1.1437
 1665TIP3    H226487   2.473   3.766   1.878  0.8342  1.8121 -1.6024
 1666TIP3   OH226488   6.132   2.735   5.641  0.0559  0.4020 -0.4284
 1666TIP3    H126489   6.094   2.784   5.714  1.8061  0.3541  0.5572
 1666TIP3    H226490   6.058   2.688   5.603 -0.7436 -0.3923  1.9481
 1667TIP3   OH226491   4.653   5.927   5.585  0.5291 -0.2063 -0.0081
 1667TIP3    H126492   4.703   5.954   5.661  1.0757 -1.3215  0.0618
 1667TIP3    H226493   4.643   6.006   5.532  2.0169  0.1398  0.1840
 1668TIP3   OH226494   2.306   0.045  11.251  0.0738  0.4350 -0.3896
 1668TIP3    H126495   2.363   0.120  11.239  0.8320 -0.2224 -1.0031
 1668TIP3    H226496   2.228   0.065  11.199  1.3763 -0.3284 -2.7962
 1669TIP3   OH226497   2.716   6.492  13.995  0.0239  0.2567  0.4389
 1669TIP3    H126498   2.763   6.570  14.026 -1.8739  1.1678  1.1550
 1669TIP3    H226499   2.785   6.428  13.980  1.5146  1.5752  1.2995
 1670TIP3   OH226500   5.947   3.240  11.987  0.2421 -0.0830 -0.1896
 1670TIP3    H126501   5.942   3.330  11.955 -0.5320 -0.1426 -0.2446
 1670TIP3    H226502   5.884   3.236  12.058  3.3342  0.6247  2.8927
 1671TIP3   OH226503   0.777   3.304   4.139  0.7441  0.5236  0.2055
 1671TIP3    H126504   0.779   3.392   4.101 -0.4522  0.4771  0.0203
 1671TIP3    H226505   0.685   3.281   4.142  1.1022 -1.2237 -0.8914
 1672TIP3   OH226506   5.296   5.706  13.966  0.5143 -0.1867 -0.0049
 1672TIP3    H126507   5.257   5.749  14.042 -0.1870  1.3624 -1.1789
 1672TIP3    H226508   5.279   5.613  13.980  0.7392  0.0206  1.8924
 1673TIP3   OH226509   4.578   5.134  11.683 -0.1961  0.3989 -0.0031
 1673TIP3    H126510   4.520   5.202  11.717 -1.0021  0.3624 -1.2516
 1673TIP3    H226511   4.576   5.145  11.588 -0.1641 -1.2109 -0.2252
 1674TIP3   OH226512   2.915   5.635   5.189 -0.0736  0.4627  0.5883
 1674TIP3    H126513   2.865   5.579   5.130  1.6928  1.2306 -1.8250
 1674TIP3    H226514   2.961   5.575   5.247  1.3124 -0.6509 -1.5482
 1675TIP3   OH226515   3.081   0.753   1.774  0.1786 -0.0423 -0.1237
 1675TIP3    H126516   3.015   0.770   1.842 -0.3216  1.6108 -0.9549
 1675TIP3    H226517   3.164   0.780   1.814  0.1173 -0.5665  0.3635
 1676TIP3   OH226518   2.379   5.775   0.396 -0.7167 -0.0047  0.0933
 1676TIP3    H126519   2.291   5.761   0.362 -1.1712  3.1137 -0.3740
 1676TIP3    H226520   2.366   5.821   0.479  0.4764 -1.2607  1.0102
 1677TIP3   OH226521   4.143   5.310   5.342  0.5942  0.0905 -0.3456
 1677TIP3    H126522   4.083   5.336   5.412 -1.1999 -1.7786 -1.0980
 1677TIP3    H226523   4.200   5.244   5.382  0.2632 -0.2105 -0.3683
 1678TIP3   OH226524   3.735   2.644  12.173 -0.3903 -0.3809  0.6971
 1678TIP3    H126525   3.732   2.686  12.087  0.6700 -0.5898  0.5409
 1678TIP3    H226526   3.695   2.708  12.232 -0.3471  0.1281  0.1856
 1679TIP3   OH226527   0.181   1.453   3.291 -0.3960 -0.3952 -0.0960
 1679TIP3    H126528   0.142   1.468   3.205  0.1467  0.1773 -0.2506
 1679TIP3    H226529   0.148   1.524   3.345 -1.7017 -1.4315  0.5132
 1680TIP3   OH226530   6.652   6.822   3.142  0.3437 -0.3711  0.1395
 1680TIP3    H126531   6.607   6.826   3.057 -1.9782  0.4936  1.3174
 1680TIP3    H226532   6.733   6.871   3.129  0.5710 -1.1758 -1.8325
 1681TIP3   OH226533   0.139   3.547  16.114 -0.0979 -0.0613 -0.2146
 1681TIP3    H126534   0.124   3.506  16.199 -0.5514 -0.5722 -0.5304
 1681TIP3    H226535   0.069   3.512  16.059 -0.6284  1.3048 -0.4406
 1682TIP3   OH226536   5.650   2.401   2.342  0.7080 -0.1635  0.1863
 1682TIP3    H126537   5.562   2.415   2.307  0.3670  2.5514  1.7785
 1682TIP3    H226538   5.643   2.321   2.394 -0.5574 -0.5045 -0.4718
 1683TIP3   OH226539   3.915   1.033  14.294 -0.6135  0.2652  0.2022
 1683TIP3    H126540   3.970   1.005  14.220  0.4526 -0.4278  1.2227
 1683TIP3    H226541   3.879   0.951  14.329 -0.1132  0.4570  1.2013
 1684TIP3   OH226542   3.752   0.611   4.238 -0.3383  0.4604  0.3118
 1684TIP3    H126543   3.723   0.523   4.215 -0.6138  0.1211  1.8873
 1684TIP3    H226544   3.848   0.604   4.240 -0.3109  0.4476 -0.4385
 1685TIP3   OH226545   5.645   5.901  11.945  0.4158  0.2106  0.6081
 1685TIP3    H126546   5.698   5.922  11.868  1.4949  0.9195  1.5181
 1685TIP3    H226547   5.661   5.973  12.005 -0.2164 -0.4627  1.6060
 1686TIP3   OH226548   1.014   4.413   4.304 -0.3076  0.2703 -0.3848
 1686TIP3    H126549   0.978   4.465   4.232  1.0043 -0.0799 -1.3342
 1686TIP3    H226550   0.940   4.361   4.336 -0.9729  0.6112 -1.3304
 1687TIP3   OH226551   5.464   4.728  10.396 -0.6656  0.9720 -0.5829
 1687TIP3    H126552   5.478   4.818  10.364 -2.4148  2.2897  2.0191
 1687TIP3    H226553   5.511   4.725  10.479  0.6141 -1.0846 -1.3196
 1688TIP3   OH226554   1.470   0.542  15.052  0.0116  0.6160  0.0559
 1688TIP3    H126555   1.411   0.617  15.044  0.9040  1.2463 -0.7859
 1688TIP3    H226556   1.481   0.531  15.147 -0.1224  1.5614  0.1970
 1689TIP3   OH226557   3.556   0.853  17.122 -0.4144  0.5636 -0.0396
 1689TIP3    H126558   3.650   0.835  17.113 -0.1005  0.5376  2.5264
 1689TIP3    H226559   3.551   0.947  17.137 -0.9327  0.7455 -1.2333
 1690TIP3   OH226560   6.366   1.422   5.137 -0.0099 -0.6016  0.4672
 1690TIP3    H126561   6.358   1.514   5.111  0.0347 -0.4362  1.0134
 1690TIP3    H226562   6.403   1.378   5.061 -1.4885 -0.4615 -0.3668
 1691TIP3   OH226563   6.276   4.205   1.168 -0.2844  0.1484  0.0180
 1691TIP3    H126564   6.359   4.164   1.192 -0.3695  0.3764  0.7148
 1691TIP3    H226565   6.210   4.152   1.213 -0.3868  1.0885  1.0023
 1692TIP3   OH226566   6.137   3.312   1.898  0.1479 -0.2527 -0.0556
 1692TIP3    H126567   6.063   3.276   1.849  0.4644 -1.0356  0.0271
 1692TIP3    H226568   6.178   3.373   1.837 -1.8542  1.9464  0.6324
 1693TIP3   OH226569   0.528   5.214   1.655  0.1892  0.3065 -0.7138
 1693TIP3    H126570   0.494   5.196   1.742  0.8515  1.0605 -0.2825
 1693TIP3    H226571   0.486   5.295   1.628  0.7931  0.6601 -0.6273
 1694TIP3   OH226572   0.191   5.111   4.241  0.1374  0.0414 -0.2844
 1694TIP3    H126573   0.183   5.105   4.336  0.8959  1.6256 -0.0949
 1694TIP3    H226574   0.103   5.137   4.212 -0.7009 -2.5309 -0.2795
 1695TIP3   OH226575   4.556   1.025   1.705  0.2469 -0.0346 -0.1200
 1695TIP3    H126576   4.471   1.064   1.687 -0.4206 -2.1025 -1.9053
 1695TIP3    H226577   4.544   0.979   1.788 -0.3518 -0.1575 -0.2664
 1696TIP3   OH226578   4.180   6.160   1.070  0.4015  1.2216  0.3499
 1696TIP3    H126579   4.088   6.184   1.070 -0.3646 -1.4127 -0.4388
 1696TIP3    H226580   4.224   6.233   1.115 -2.0558  2.4317  0.9539
 1697TIP3   OH226581   6.356   6.474   3.967 -0.3555 -0.5824 -0.0924
 1697TIP3    H126582   6.339   6.392   4.014  1.0438 -1.1416 -0.5021
 1697TIP3    H226583   6.452   6.481   3.964 -0.4420  1.4170  0.4949
 1698TIP3   OH226584   5.110   5.934  15.176  0.0844  0.7006 -0.6417
 1698TIP3    H126585   5.028   5.895  15.145  0.2289 -0.6557  0.5882
 1698TIP3    H226586   5.093   5.958  15.267  1.4993 -1.1298  0.1720
 1699TIP3   OH226587   1.031   6.083  12.758  0.0360  0.1402  0.2907
 1699TIP3    H126588   1.100   6.076  12.824  0.8576  0.7504 -0.4702
 1699TIP3    H226589   1.078   6.080  12.675 -0.9658 -0.4314 -0.2702
 1700TIP3   OH226590   1.224   0.640   1.209  0.1966 -0.3528  0.0606
 1700TIP3    H126591   1.208   0.726   1.246 -0.9802 -0.4368 -0.1936
 1700TIP3    H226592   1.228   0.581   1.285  1.3627 -0.0332  0.2545
 1701TIP3   OH226593   1.048   5.565  11.685 -0.0269 -0.0574  0.1763
 1701TIP3    H126594   1.017   5.503  11.750 -1.4688  1.0139  0.5637
 1701TIP3    H226595   1.110   5.621  11.732  1.4861 -1.3136 -0.2404
 1702TIP3   OH226596   2.408   5.538   5.149 -0.0767 -0.2100  0.1673
 1702TIP3    H126597   2.351   5.536   5.226 -0.9916 -1.7746 -0.5081
 1702TIP3    H226598   2.476   5.601   5.172 -2.2385  2.0099  0.8762
 1703TIP3   OH226599   2.934   5.704  16.732  0.7986  0.3452  0.1258
 1703TIP3    H126600   2.838   5.710  16.727  0.6501 -1.5026  0.0118
 1703TIP3    H226601   2.966   5.772  16.672 -0.3267  3.1680  2.4605
 1704TIP3   OH226602   4.077   0.068   2.831  0.5965  0.3623  0.0492
 1704TIP3    H126603   4.023   0.035   2.903 -0.1640  0.9426 -0.2461
 1704TIP3    H226604   4.145   0.120   2.874  1.3692 -0.9364  0.4708
 1705TIP3   OH226605   3.614   5.056   4.631 -0.3436 -0.3659 -0.3458
 1705TIP3    H126606   3.579   5.080   4.717 -0.6632  0.4772 -0.6999
 1705TIP3    H226607   3.551   4.991   4.597 -0.0457 -0.9407  0.1769
 1706TIP3   OH226608   4.893   3.938  14.924  0.5335 -0.4706 -0.0105
 1706TIP3    H126609   4.828   3.997  14.888  2.1282  1.9160  0.7983
 1706TIP3    H226610   4.895   3.957  15.018  2.7628  0.0138 -0.0866
 1707TIP3   OH226611   5.875   5.649  11.894 -0.4045  0.9342 -0.3836
 1707TIP3    H126612   5.889   5.739  11.921  0.2352  0.9605 -0.7824
 1707TIP3    H226613   5.962   5.615  11.875 -0.4618 -0.2417  1.2120
 1708TIP3   OH226614   1.835   1.527   0.624 -0.1200  0.0285 -0.5845
 1708TIP3    H126615   1.881   1.476   0.557  0.5641 -0.5637  0.3245
 1708TIP3    H226616   1.879   1.612   0.624  1.2931 -0.6577  0.5536
 1709TIP3   OH226617   1.083   3.547  14.945 -0.5702  0.3044 -0.0861
 1709TIP3    H126618   1.011   3.518  15.000 -0.0799 -3.6524 -1.2180
 1709TIP3    H226619   1.148   3.581  15.007 -2.5155  2.1191  1.0928
 1710TIP3   OH226620   2.359   0.436   4.706 -0.2162 -0.3204  0.1306
 1710TIP3    H126621   2.342   0.349   4.670 -0.4077  1.0379 -3.4306
 1710TIP3    H226622   2.454   0.444   4.706 -0.2275 -0.1320 -0.6606
 1711TIP3   OH226623   0.469   1.951   3.781 -0.1587  0.5744  0.3322
 1711TIP3    H126624   0.425   1.915   3.857 -0.0689 -0.8458 -0.2534
 1711TIP3    H226625   0.468   2.045   3.794 -1.8867  0.4678  1.1262
 1712TIP3   OH226626   3.786   4.212  15.149  0.0843  0.4861 -0.3353
 1712TIP3    H126627   3.727   4.286  15.135 -0.8830 -0.0726  0.6475
 1712TIP3    H226628   3.847   4.242  15.217  0.7698  0.9570 -1.1372
 1713TIP3   OH226629   0.203   6.299  13.242 -0.0628 -0.4432 -0.7557
 1713TIP3    H126630   0.172   6.209  13.229  0.0941 -0.5708 -0.2567
 1713TIP3    H226631   0.139   6.338  13.301  0.7612 -0.7436  0.3772
 1714TIP3   OH226632   4.651   4.410  14.807 -1.2331  0.0348 -0.1505
 1714TIP3    H126633   4.569   4.457  14.789 -0.9226  0.5177 -0.3325
 1714TIP3    H226634   4.659   4.411  14.902 -1.4656 -0.0617 -0.1286
 1715TIP3   OH226635   4.445   1.630  16.946  0.2738 -0.2897  0.1298
 1715TIP3    H126636   4.405   1.624  16.859  2.6982  1.5018 -1.2395
 1715TIP3    H226637   4.499   1.552  16.952  1.6601  0.5428 -0.9065
 1716TIP3   OH226638   5.316   3.309  13.358  0.2614 -0.0855 -0.6985
 1716TIP3    H126639   5.338   3.216  13.359 -1.3649 -0.4920  0.0604
 1716TIP3    H226640   5.357   3.345  13.436  1.3228 -0.0273 -1.2573
 1717TIP3   OH226641   0.159   1.515  14.127 -0.2267 -0.0830  0.2859
 1717TIP3    H126642   0.135   1.425  14.103 -1.7710  0.3999 -0.1039
 1717TIP3    H226643   0.230   1.538  14.068  2.0901 -1.9406  2.1597
 1718TIP3   OH226644   3.661   4.796   2.319  0.0183 -0.5117  0.1433
 1718TIP3    H126645   3.666   4.770   2.227  1.5107  2.0487 -0.5949
 1718TIP3    H226646   3.573   4.772   2.347 -0.7190 -0.6622 -2.1669
 1719TIP3   OH226647   2.069   1.075   4.458 -0.0605 -0.7408 -0.0957
 1719TIP3    H126648   2.005   1.131   4.413 -2.3916 -0.2283  3.4579
 1719TIP3    H226649   2.148   1.129   4.462 -0.5141  0.0845 -1.4678
 1720TIP3   OH226650   2.425   0.524   3.197 -0.3658 -0.2593  0.6921
 1720TIP3    H126651   2.366   0.467   3.245 -0.5583  0.4660  1.3454
 1720TIP3    H226652   2.367   0.582   3.147 -0.1927 -0.0394  0.7452
 1721TIP3   OH226653   0.581   0.369  16.369  0.2713 -0.0424  0.4064
 1721TIP3    H126654   0.668   0.408  16.362  0.5071 -0.7761 -1.1361
 1721TIP3    H226655   0.532   0.429  16.425  0.9087  1.9383 -1.0496
 1722TIP3   OH226656   5.071   3.487  12.395 -0.5747 -0.1344  0.5033
 1722TIP3    H126657   5.076   3.578  12.424  0.0595  0.4977 -1.4729
 1722TIP3    H226658   5.010   3.489  12.321 -0.2527 -1.2631  0.1914
 1723TIP3   OH226659   3.663   1.932   4.206  0.1977 -0.8507 -0.2648
 1723TIP3    H126660   3.725   1.950   4.136 -1.1472  1.0558 -1.0497
 1723TIP3    H226661   3.717   1.923   4.285  1.5305 -0.1017 -1.0629
 1724TIP3   OH226662   1.268   4.713   5.284 -0.2875 -0.1220  0.4117
 1724TIP3    H126663   1.214   4.790   5.264 -0.3221 -0.7270 -2.1116
 1724TIP3    H226664   1.358   4.743   5.271 -0.3450 -0.7596 -1.8510
 1725TIP3   OH226665   4.375   0.213  15.761 -0.3847  0.1930 -0.2055
 1725TIP3    H126666   4.299   0.156  15.773  0.2701 -0.5423  0.5960
 1725TIP3    H226667   4.389   0.251  15.848  0.1246  0.3677 -0.3663
 1726TIP3   OH226668   3.084   5.894  15.167  0.1314 -0.3128  0.1878
 1726TIP3    H126669   3.017   5.911  15.233 -1.0456 -0.9478 -0.8116
 1726TIP3    H226670   3.111   5.803  15.183 -1.3155 -1.0333 -1.1443
 1727TIP3   OH226671   0.559   4.972  15.893  0.2022 -0.5698 -0.2298
 1727TIP3    H126672   0.572   4.878  15.886  0.3721 -0.6129  0.5668
 1727TIP3    H226673   0.464   4.983  15.900  0.0854 -0.5766 -1.6654
 1728TIP3   OH226674   3.733   0.331   4.718  0.5637 -0.1599  0.1029
 1728TIP3    H126675   3.768   0.334   4.807  0.9589  0.4678 -0.0608
 1728TIP3    H226676   3.808   0.353   4.662  0.1835  0.0367 -0.3411
 1729TIP3   OH226677   5.165   1.284   1.404 -0.1643  0.2509 -0.1634
 1729TIP3    H126678   5.141   1.279   1.311  1.7270 -1.6513 -0.6086
 1729TIP3    H226679   5.260   1.293   1.404 -0.1367  0.2497  1.6086
 1730TIP3   OH226680   5.012   6.197   0.630  0.5242 -0.0044  0.5178
 1730TIP3    H126681   5.037   6.110   0.600  1.5310  0.2301  0.6670
 1730TIP3    H226682   4.941   6.223   0.570  0.6430 -0.6605  0.0811
 1731TIP3   OH226683   6.046   5.643  16.640 -0.1432  0.2893  0.5119
 1731TIP3    H126684   6.036   5.738  16.649  0.8850  0.4385  0.2868
 1731TIP3    H226685   5.957   5.610  16.630 -0.4418  1.3653 -0.6200
 1732TIP3   OH226686   5.827   2.800  12.642  0.0546 -0.5500  0.0298
 1732TIP3    H126687   5.852   2.884  12.682  1.0194 -0.7411 -0.1473
 1732TIP3    H226688   5.909   2.762  12.612 -0.5053 -1.0115 -0.9839
 1733TIP3   OH226689   0.454   6.254   5.417  0.3453  0.2645 -0.7682
 1733TIP3    H126690   0.459   6.169   5.374 -0.4608 -0.2140  0.0463
 1733TIP3    H226691   0.436   6.316   5.346 -0.1675 -0.3994 -1.2260
 1734TIP3   OH226692   1.187   3.205  10.650  0.5217 -0.4174 -0.0197
 1734TIP3    H126693   1.150   3.117  10.659  1.7474 -0.8746  0.8595
 1734TIP3    H226694   1.113   3.264  10.665 -0.1450 -1.2946  0.2268
 1735TIP3   OH226695   3.325   6.676   0.951  0.1645 -0.4970 -0.3426
 1735TIP3    H126696   3.268   6.619   1.002  0.8856 -1.8761 -1.0079
 1735TIP3    H226697   3.339   6.629   0.869 -0.2346  1.2520 -1.4558
 1736TIP3   OH226698   5.836   2.967  14.347 -0.1445  0.3776 -0.2252
 1736TIP3    H126699   5.870   2.947  14.260 -0.5368  1.4384 -0.6286
 1736TIP3    H226700   5.818   3.061  14.346  0.9278  0.6430  1.3728
 1737TIP3   OH226701   3.248   1.146   2.074  0.1265 -0.5720 -0.4598
 1737TIP3    H126702   3.164   1.132   2.119  0.8355 -1.3898  0.6665
 1737TIP3    H226703   3.227   1.135   1.982 -0.7743 -2.0622 -0.1144
 1738TIP3   OH226704   5.475   1.017  10.954 -0.6072 -0.2084  0.0244
 1738TIP3    H126705   5.465   1.047  11.044 -0.0256 -0.8064  0.2938
 1738TIP3    H226706   5.514   0.930  10.961 -0.9649 -0.4529 -0.7930
 1739TIP3   OH226707   4.355   1.568   0.125  0.0410  0.2002 -0.0375
 1739TIP3    H126708   4.302   1.521   0.060 -1.9036  0.8841  0.9732
 1739TIP3    H226709   4.435   1.590   0.079 -0.0813 -1.8203 -1.3254
 1740TIP3   OH226710   0.741   1.492   0.069  0.4093  0.5192  0.7103
 1740TIP3    H126711   0.722   1.483   0.162  0.6913 -0.1107  0.7091
 1740TIP3    H226712   0.813   1.554   0.065  1.3268 -0.5064  1.0089
 1741TIP3   OH226713   5.157   3.371  16.465 -0.1840 -0.0836  0.7746
 1741TIP3    H126714   5.153   3.464  16.444 -2.0040 -0.1507  0.6583
 1741TIP3    H226715   5.250   3.352  16.471  0.2850  1.3440 -0.9893
 1742TIP3   OH226716   4.676   4.736   1.011  0.4274  0.2442 -0.0657
 1742TIP3    H126717   4.655   4.643   0.997 -0.5619  0.2691  1.0456
 1742TIP3    H226718   4.649   4.753   1.102 -1.6659  2.1858 -0.9577
 1743TIP3   OH226719   0.130   0.119   3.489 -0.1678  0.3622  0.4917
 1743TIP3    H126720   0.196   0.067   3.445 -1.2901 -0.7396  0.0569
 1743TIP3    H226721   0.142   0.208   3.454  0.4533 -0.0195 -0.2871
 1744TIP3   OH226722   1.055   6.023   4.537 -0.5889  0.8529 -0.1100
 1744TIP3    H126723   1.147   6.041   4.521 -0.7123  0.9252 -0.7921
 1744TIP3    H226724   1.054   5.961   4.610 -0.0439  1.4896  0.4440
 1745TIP3   OH226725   2.648   2.138   3.676 -0.2215 -0.2595  0.1816
 1745TIP3    H126726   2.605   2.156   3.592 -0.0037 -2.5410 -0.4652
 1745TIP3    H226727   2.740   2.125   3.654 -0.4192 -2.5367  0.4557
 1746TIP3   OH226728   2.808   3.333  14.931  0.2375 -0.0453 -0.3893
 1746TIP3    H126729   2.896   3.372  14.935  0.6716 -0.8721 -1.6618
 1746TIP3    H226730   2.752   3.404  14.899  0.5530  0.2843 -0.2198
 1747TIP3   OH226731   0.335   2.724   0.963  0.6590  0.0585 -0.2225
 1747TIP3    H126732   0.265   2.790   0.970  1.5403  0.9748  0.2721
 1747TIP3    H226733   0.301   2.660   0.900  0.4281  1.8603 -2.0772
 1748TIP3   OH226734   4.438   1.105   1.302 -0.5439 -0.3605 -0.4312
 1748TIP3    H126735   4.412   1.125   1.212  0.0226  1.5335 -0.2166
 1748TIP3    H226736   4.516   1.051   1.293 -0.4656 -0.1489 -1.0909
 1749TIP3   OH226737   3.668   3.429   3.697 -0.6982 -0.7136 -0.3806
 1749TIP3    H126738   3.679   3.487   3.622  0.0193 -0.7561 -0.3191
 1749TIP3    H226739   3.599   3.369   3.671  0.2377 -1.3810 -1.4300
 1750TIP3   OH226740   0.116   5.326  12.378  0.0304 -0.1156  0.0219
 1750TIP3    H126741   0.029   5.315  12.341  1.1901 -3.2041 -2.1861
 1750TIP3    H226742   0.130   5.248  12.432  2.0962 -0.7196 -1.2756
 1751TIP3   OH226743   3.595   5.755  13.446 -0.2124  0.5545 -0.0582
 1751TIP3    H126744   3.546   5.837  13.448 -0.5473  0.4106 -1.4798
 1751TIP3    H226745   3.545   5.699  13.387  0.3271 -0.4795  0.4489
 1752TIP3   OH226746   6.506   0.942  14.299  0.3694  0.0645  0.1518
 1752TIP3    H126747   6.496   0.962  14.392 -0.6345  1.5246 -0.2329
 1752TIP3    H226748   6.473   0.853  14.289 -2.3086  0.9053  0.7589
 1753TIP3   OH226749   3.319   0.510  15.591  0.7276 -0.2722 -0.0942
 1753TIP3    H126750   3.293   0.592  15.547 -0.4164 -0.4740  0.1858
 1753TIP3    H226751   3.342   0.451  15.519  1.3226  0.2034 -0.3094
 1754TIP3   OH226752   4.195   5.595  16.043 -0.0605 -0.1148  0.0513
 1754TIP3    H126753   4.174   5.571  15.953 -2.0366 -0.0944  0.4576
 1754TIP3    H226754   4.247   5.521  16.075  0.3728 -0.2845 -0.9913
 1755TIP3   OH226755   6.044   1.666   3.244  0.0387 -0.5097  0.1644
 1755TIP3    H126756   5.961   1.680   3.288  1.0038 -1.5030  2.4415
 1755TIP3    H226757   6.103   1.732   3.282  0.2975  0.2758 -1.5121
 1756TIP3   OH226758   6.429   6.314  12.461 -0.3777 -0.4636 -0.5363
 1756TIP3    H126759   6.493   6.313  12.389  0.5545  1.1937  0.2191
 1756TIP3    H226760   6.367   6.383  12.437 -0.6569 -0.6076 -0.2326
 1757TIP3   OH226761   4.200   6.634  11.266 -0.4925 -0.4169  0.9304
 1757TIP3    H126762   4.121   6.687  11.254 -1.0708 -1.1799  1.2855
 1757TIP3    H226763   4.227   6.610  11.177 -1.5637 -1.4287  0.8453
 1758TIP3   OH226764   3.699   5.668  16.635  0.5803  0.6132  0.3688
 1758TIP3    H126765   3.765   5.691  16.570 -0.2264  0.5422 -0.4904
 1758TIP3    H226766   3.635   5.739  16.630  0.4177  0.5121  0.9551
 1759TIP3   OH226767   5.353   1.448   4.628 -0.2479  0.0822 -0.1123
 1759TIP3    H126768   5.280   1.409   4.675 -0.7144 -0.1080 -0.9665
 1759TIP3    H226769   5.316   1.527   4.588 -0.6715 -1.2329 -2.5080
 1760TIP3   OH226770   3.867   4.629  12.510  0.2396  0.2587 -0.1526
 1760TIP3    H126771   3.931   4.586  12.567  0.0595  2.6086  2.0220
 1760TIP3    H226772   3.920   4.681  12.449  0.4927  1.7702  1.2912
 1761TIP3   OH226773   2.550   5.144  11.238  0.0841 -0.1223 -0.4957
 1761TIP3    H126774   2.472   5.199  11.224  0.1797 -0.2482 -1.5898
 1761TIP3    H226775   2.609   5.168  11.167  0.8307 -0.4137  0.0232
 1762TIP3   OH226776   1.321   5.167  11.933  0.3051 -0.0525  0.2103
 1762TIP3    H126777   1.296   5.119  12.013  1.6942 -0.0814  0.6602
 1762TIP3    H226778   1.250   5.148  11.871 -0.2780 -0.8994  1.0909
 1763TIP3   OH226779   5.971   1.220   0.708 -0.0609  0.1188  0.5282
 1763TIP3    H126780   5.983   1.127   0.688 -0.1853 -0.4489  2.7528
 1763TIP3    H226781   6.059   1.252   0.729  0.3992  1.2190 -2.5930
 1764TIP3   OH226782   0.216   6.226   0.454  0.5177 -0.1194 -0.2633
 1764TIP3    H126783   0.140   6.171   0.469 -0.2267  0.8672 -0.3183
 1764TIP3    H226784   0.227   6.226   0.359  0.2381  0.1925 -0.2964
 1765TIP3   OH226785   3.231   3.945   1.338 -0.6355 -0.0064 -0.3664
 1765TIP3    H126786   3.171   3.871   1.345 -0.1122 -0.4742 -0.7372
 1765TIP3    H226787   3.174   4.021   1.328 -1.1768 -0.3815 -0.1795
 1766TIP3   OH226788   5.226   2.123   2.206 -0.1429 -0.3288 -0.7629
 1766TIP3    H126789   5.237   2.042   2.157  1.7854 -0.5549 -0.0555
 1766TIP3    H226790   5.134   2.145   2.196 -0.9698 -3.1427 -0.1596
 1767TIP3   OH226791   3.432   3.795   0.199 -0.0685  0.5395 -0.6536
 1767TIP3    H126792   3.434   3.763   0.109  0.3214 -0.9796 -0.1246
 1767TIP3    H226793   3.504   3.751   0.243 -2.4759 -1.7402  1.3590
 1768TIP3   OH226794   2.182   0.662   4.710 -0.6395 -0.2955 -0.1052
 1768TIP3    H126795   2.226   0.579   4.728 -0.2850  0.0604  0.7444
 1768TIP3    H226796   2.254   0.725   4.700 -0.9249  0.0896  0.2215
 1769TIP3   OH226797   6.478   1.761  14.938  0.2774  0.5194 -0.4820
 1769TIP3    H126798   6.552   1.816  14.913  0.2620  0.4561 -0.6670
 1769TIP3    H226799   6.508   1.713  15.015  0.2683  0.8356 -0.2799
 1770TIP3   OH226800   4.314   5.036   5.301 -0.6720  0.9734 -0.2010
 1770TIP3    H126801   4.326   5.046   5.396 -0.6345  1.5290 -0.2579
 1770TIP3    H226802   4.390   5.080   5.263 -0.6620  0.7068 -0.4883
 1771TIP3   OH226803   1.198   5.819   3.909 -0.0415 -0.2820 -0.4356
 1771TIP3    H126804   1.112   5.810   3.868 -0.5026  0.7681  0.2724
 1771TIP3    H226805   1.179   5.834   4.001  0.5907  4.7088 -0.8377
 1772TIP3   OH226806   6.107   6.606  16.959  0.1477  0.5391  0.4719
 1772TIP3    H126807   6.098   6.516  16.929 -0.2769  0.7172  0.0592
 1772TIP3    H226808   6.018   6.640  16.962  0.3706  1.2754 -0.4280
 1773TIP3   OH226809   4.206   5.904  15.462 -0.0654 -0.3785 -0.2217
 1773TIP3    H126810   4.275   5.965  15.491  1.4949 -1.6097 -1.1848
 1773TIP3    H226811   4.125   5.955  15.469  0.8200  0.9097  1.6050
 1774TIP3   OH226812   0.148   1.205  16.537 -0.6448  0.0016 -0.0778
 1774TIP3    H126813   0.142   1.111  16.553  2.9655 -0.2234  0.8466
 1774TIP3    H226814   0.198   1.212  16.456  0.4763  1.0934  0.6736
 1775TIP3   OH226815   0.350   1.325  15.596 -0.5406  1.0457  0.4252
 1775TIP3    H126816   0.390   1.245  15.561 -1.0764  1.4703 -1.2345
 1775TIP3    H226817   0.412   1.395  15.575 -1.7559  1.6051 -1.5471
 1776TIP3   OH226818   2.999   6.576  11.832 -0.3490  0.7926  0.2170
 1776TIP3    H126819   2.927   6.568  11.894 -0.4032  1.8602  0.3043
 1776TIP3    H226820   3.051   6.496  11.845 -0.2865  1.0624  1.7345
 1777TIP3   OH226821   5.698   0.560  13.030 -0.3880  0.1578 -0.1520
 1777TIP3    H126822   5.792   0.541  13.027 -0.2151  1.0011 -0.3676
 1777TIP3    H226823   5.662   0.498  13.093  0.1647 -0.7816 -0.7441
 1778TIP3   OH226824   2.967   4.090  16.759  0.1850 -0.7112 -0.4362
 1778TIP3    H126825   3.017   4.017  16.721  2.2787  1.1229 -1.4307
 1778TIP3    H226826   3.028   4.133  16.818 -1.0559  0.1464  0.2706
 1779TIP3   OH226827   2.537   6.150  13.243  0.3219 -0.0028 -0.0832
 1779TIP3    H126828   2.510   6.080  13.303  1.9712 -1.4192 -0.9027
 1779TIP3    H226829   2.508   6.230  13.286 -1.4806 -1.1381  0.9854
 1780TIP3   OH226830   5.615   4.796  14.157 -0.6649 -0.4815 -0.3891
 1780TIP3    H126831   5.604   4.827  14.067  0.3941  0.7150 -0.1414
 1780TIP3    H226832   5.684   4.852  14.193  0.5564 -2.4278  0.4656
 1781TIP3   OH226833   1.293   6.349  12.493  0.3192 -0.6450  0.1291
 1781TIP3    H126834   1.258   6.271  12.535  0.8806 -1.1533 -0.3388
 1781TIP3    H226835   1.363   6.317  12.436  2.1942  0.4171  1.7149
 1782TIP3   OH226836   3.223   0.525  11.856 -0.0766 -0.5309 -0.2019
 1782TIP3    H126837   3.295   0.509  11.918 -1.1942 -1.1350  0.9777
 1782TIP3    H226838   3.252   0.601  11.805  0.9252 -0.0758  0.9911
 1783TIP3   OH226839   5.598   1.868  10.979 -0.0111 -0.1940  0.2268
 1783TIP3    H126840   5.524   1.845  11.035  0.3405 -1.0383  0.3670
 1783TIP3    H226841   5.662   1.798  10.994 -0.0028 -0.5656 -1.4119
 1784TIP3   OH226842   2.674   6.709  13.764 -0.1635  0.0125 -0.3372
 1784TIP3    H126843   2.732   6.637  13.789  0.7790 -0.5998 -3.7672
 1784TIP3    H226844   2.713   6.786  13.805  0.8393 -0.9426  0.5690
 1785TIP3   OH226845   2.928   4.698  12.356 -0.2012  0.1484  0.4571
 1785TIP3    H126846   2.874   4.776  12.357 -0.1333  0.2446 -1.0243
 1785TIP3    H226847   2.999   4.718  12.295 -0.5747 -1.2977 -0.5065
 1786TIP3   OH226848   2.945   6.801   3.149  0.1520  0.0916  0.3132
 1786TIP3    H126849   3.024   6.834   3.192 -0.5189 -0.0639  1.7144
 1786TIP3    H226850   2.890   6.768   3.221 -0.8029 -0.6304 -0.7112
 1787TIP3   OH226851   2.453   1.423  12.712  0.0309 -1.3507  0.2370
 1787TIP3    H126852   2.410   1.339  12.700 -0.4669 -1.3732  1.8982
 1787TIP3    H226853   2.382   1.485  12.728  0.4534 -0.8293  0.1366
 1788TIP3   OH226854   1.982   6.566   4.640  0.3115 -0.3062  0.0218
 1788TIP3    H126855   1.930   6.563   4.560  0.4552 -1.3998 -0.0490
 1788TIP3    H226856   1.926   6.612   4.703 -1.1178 -2.1882  0.2007
 1789TIP3   OH226857   0.128   3.948   5.057 -0.2664  0.3438  0.1233
 1789TIP3    H126858   0.142   3.941   4.963 -0.9134  1.1721 -0.0438
 1789TIP3    H226859   0.208   3.912   5.096  0.7232  1.4941 -0.7521
 1790TIP3   OH226860   6.391   6.539  11.417 -0.4737 -0.2955 -0.5332
 1790TIP3    H126861   6.408   6.512  11.507 -2.0775 -1.5336 -0.5525
 1790TIP3    H226862   6.320   6.602  11.424  0.1522  0.4623 -0.8681
 1791TIP3   OH226863   6.611   0.818  12.380  0.2986  1.0315 -0.0683
 1791TIP3    H126864   6.688   0.768  12.409 -0.6826 -1.5980 -1.6838
 1791TIP3    H226865   6.582   0.864  12.459  2.2660  0.4267  1.0866
 1792TIP3   OH226866   2.357   2.553  13.303 -0.1539 -0.0666  0.5623
 1792TIP3    H126867   2.396   2.550  13.215  0.9197  1.2991  0.9540
 1792TIP3    H226868   2.374   2.467  13.340  2.7275  0.4957  0.7683
 1793TIP3   OH226869   2.901   2.244  16.085  0.2765  0.4728  0.0110
 1793TIP3    H126870   2.821   2.227  16.035 -0.6886  0.7025  1.4102
 1793TIP3    H226871   2.944   2.159  16.091  0.7283  0.5419 -1.6661
 1794TIP3   OH226872   1.574   4.379   5.364 -0.2661  0.0245 -0.0284
 1794TIP3    H126873   1.602   4.295   5.400 -0.5171  0.2122  0.6258
 1794TIP3    H226874   1.637   4.442   5.399  0.0309  0.0933 -0.6645
 1795TIP3   OH226875   2.007   0.681  14.950 -0.3162  0.0139 -0.4037
 1795TIP3    H126876   2.072   0.701  15.017  0.3396 -2.0061 -0.3720
 1795TIP3    H226877   2.056   0.685  14.868 -0.4789 -0.2171 -0.5103
 1796TIP3   OH226878   6.099   3.728  14.034  0.1462  0.0693  0.0195
 1796TIP3    H126879   6.187   3.762  14.017  0.2225 -0.1274  0.0228
 1796TIP3    H226880   6.078   3.677  13.955  0.2090 -0.2442  0.2056
 1797TIP3   OH226881   2.968   4.125  15.643 -0.5551 -0.2658 -0.0233
 1797TIP3    H126882   2.920   4.120  15.560  1.0985  1.5879 -1.1708
 1797TIP3    H226883   2.998   4.035  15.658 -1.1448 -0.7005 -1.2707
 1798TIP3   OH226884   4.370   5.288   0.040 -0.1431  0.3304 -0.5086
 1798TIP3    H126885   4.297   5.322  -0.011 -0.5413  1.6746  0.9029
 1798TIP3    H226886   4.354   5.319   0.129  1.7680  0.0420 -0.0226
 1799TIP3   OH226887   4.298   1.233   3.922  0.2240  0.3041  0.0326
 1799TIP3    H126888   4.357   1.307   3.907  0.2287  0.2255 -0.3314
 1799TIP3    H226889   4.328   1.195   4.005 -0.3684  1.2798  0.7156
 1800TIP3   OH226890   1.736   6.137   1.692 -0.1214 -0.2361 -0.1843
 1800TIP3    H126891   1.767   6.227   1.687  1.9924 -0.8697  0.6119
 1800TIP3    H226892   1.720   6.112   1.601  1.8668  0.1221 -0.6784
 1801TIP3   OH226893   4.116   3.935  13.703  0.1770  0.6945  0.1027
 1801TIP3    H126894   4.197   3.884  13.705  0.5783  1.3418  0.6443
 1801TIP3    H226895   4.062   3.891  13.637  1.0540  0.3915 -0.4342
 1802TIP3   OH226896   5.466   2.243   4.115  0.4638 -0.1473 -0.6857
 1802TIP3    H126897   5.541   2.223   4.170  0.9806  1.5263 -0.7464
 1802TIP3    H226898   5.503   2.261   4.029 -0.1020 -0.1797 -0.9431
 1803TIP3   OH226899   6.631   1.203  11.985 -0.1802  0.1923 -0.3218
 1803TIP3    H126900   6.565   1.135  11.984  0.9835 -0.9780 -0.0624
 1803TIP3    H226901   6.688   1.181  12.059 -0.1671  1.8325  0.1992
 1804TIP3   OH226902   1.461   2.574  16.856 -0.1258 -0.0227  0.4849
 1804TIP3    H126903   1.445   2.665  16.880  0.7480 -0.2636  2.0917
 1804TIP3    H226904   1.554   2.570  16.833  0.2462 -0.7788  1.9578
 1805TIP3   OH226905   6.611   5.079  12.215 -0.2705 -0.0540 -0.5927
 1805TIP3    H126906   6.682   5.142  12.228 -0.9292  0.8837 -1.3326
 1805TIP3    H226907   6.641   5.025  12.142 -0.4117  0.5314 -1.1032
 1806TIP3   OH226908   4.580   2.162   2.773  0.1448  0.1554  0.1756
 1806TIP3    H126909   4.490   2.151   2.801  0.5000  0.0917  1.3247
 1806TIP3    H226910   4.611   2.239   2.820  0.4790  0.5962 -0.7491
 1807TIP3   OH226911   4.778   6.616   2.469  0.5082 -0.1929 -0.1221
 1807TIP3    H126912   4.746   6.668   2.543 -0.7019 -1.5622  0.3484
 1807TIP3    H226913   4.734   6.653   2.393  2.3157  1.7136 -0.3526
 1808TIP3   OH226914   0.262   5.348   6.335  0.0580  0.0914  0.3451
 1808TIP3    H126915   0.314   5.368   6.412  0.3771 -0.6639  0.3365
 1808TIP3    H226916   0.208   5.273   6.361  0.9457 -0.8652 -0.4852
 1809TIP3   OH226917   5.476   1.758   3.348  0.4534 -0.2852  0.4414
 1809TIP3    H126918   5.493   1.688   3.412  4.0724  0.1098  0.0862
 1809TIP3    H226919   5.473   1.713   3.264  0.3970 -0.2711  0.4359
 1810TIP3   OH226920   1.534   2.168   6.380  0.2812 -0.5972  0.1063
 1810TIP3    H126921   1.537   2.249   6.329  0.3247 -0.8857 -0.3579
 1810TIP3    H226922   1.442   2.159   6.405 -0.1727 -1.5207 -1.7005
 1811TIP3   OH226923   0.283   0.121  12.147 -0.5557 -0.0784 -0.0253
 1811TIP3    H126924   0.299   0.181  12.074  2.3515  0.3163  0.8369
 1811TIP3    H226925   0.311   0.169  12.224 -1.0680 -1.4524  1.0524
 1812TIP3   OH226926   6.672   3.048  12.895  0.4418  0.3527  0.3269
 1812TIP3    H126927   6.616   3.037  12.972  0.2601 -1.7351 -0.0482
 1812TIP3    H226928   6.621   3.104  12.836 -0.0326  0.7689  1.1167
 1813TIP3   OH226929   3.333   5.265  12.214  0.0381  0.2439  0.2274
 1813TIP3    H126930   3.317   5.243  12.122 -0.4833 -0.3009  0.4443
 1813TIP3    H226931   3.258   5.318  12.239  0.1807  0.3924  0.3398
 1814TIP3   OH226932   3.345   5.731  16.878 -0.0485 -0.4585 -0.9431
 1814TIP3    H126933   3.309   5.699  16.795 -2.6446 -0.7675  0.2037
 1814TIP3    H226934   3.343   5.654  16.935  0.3333  0.0975 -0.1668
 1815TIP3   OH226935   3.307   6.236  11.118 -0.3323 -0.6293 -0.3676
 1815TIP3    H126936   3.355   6.276  11.045  0.5307 -1.6636 -0.3987
 1815TIP3    H226937   3.372   6.229  11.188 -1.6297  2.2309  1.3122
 1816TIP3   OH226938   1.301   3.764   0.234 -0.3158 -0.0643 -0.0465
 1816TIP3    H126939   1.348   3.815   0.299 -1.1362  0.4889  0.1215
 1816TIP3    H226940   1.318   3.809   0.151 -0.3533 -0.0079 -0.0234
 1817TIP3   OH226941   2.977   5.803  13.104 -0.0730  0.3187  0.1228
 1817TIP3    H126942   2.914   5.735  13.127 -0.0104  0.5680  1.0772
 1817TIP3    H226943   3.053   5.756  13.071 -0.5685 -0.0030 -0.5937
 1818TIP3   OH226944   0.933   5.203  12.271 -0.3384  0.1388 -0.0093
 1818TIP3    H126945   0.884   5.125  12.247  0.3896 -0.3127 -0.0743
 1818TIP3    H226946   0.873   5.276  12.256 -0.1858 -0.1728 -2.5304
 1819TIP3   OH226947   6.463   4.930  12.951 -0.3072 -0.2521  0.3686
 1819TIP3    H126948   6.481   5.019  12.923 -0.5271 -0.4907 -0.5515
 1819TIP3    H226949   6.449   4.937  13.046  1.4651  0.4112  0.6173
 1820TIP3   OH226950   5.798   5.224  16.921  0.5598  0.1761  0.6650
 1820TIP3    H126951   5.718   5.245  16.873  0.5798  1.0688  0.9967
 1820TIP3    H226952   5.854   5.301  16.909  1.2440 -0.3110  0.6938
 1821TIP3   OH226953   4.206   5.955   2.029  0.5950 -0.3096 -0.4974
 1821TIP3    H126954   4.288   5.966   1.980  0.8694 -1.7393 -0.3934
 1821TIP3    H226955   4.228   5.895   2.100 -0.0914  0.8190  0.7168
 1822TIP3   OH226956   5.377   6.388  15.773 -0.3676 -0.1968  0.9099
 1822TIP3    H126957   5.354   6.296  15.781  0.4279 -0.2852  3.0220
 1822TIP3    H226958   5.320   6.433  15.835 -0.2596  0.6447  0.4234
 1823TIP3   OH226959   3.524   4.467  13.628 -0.3009  0.0759 -0.1267
 1823TIP3    H126960   3.455   4.403  13.643  1.0504 -0.9693  2.1861
 1823TIP3    H226961   3.598   4.415  13.598 -0.1388  1.0192 -1.4077
 1824TIP3   OH226962   5.819   5.469   3.697 -0.2242  0.7683 -0.1745
 1824TIP3    H126963   5.748   5.504   3.751 -0.1967 -0.5629  0.7770
 1824TIP3    H226964   5.846   5.389   3.741  1.2907  0.7729 -0.9975
 1825TIP3   OH226965   4.140   0.313  17.027 -0.3906  0.1501  0.2933
 1825TIP3    H126966   4.206   0.343  16.965 -0.0676 -1.1532 -0.0336
 1825TIP3    H226967   4.184   0.244  17.077 -1.1150  0.1424  0.9484
 1826TIP3   OH226968   6.431   1.217  16.734 -0.6640  0.1619 -0.1620
 1826TIP3    H126969   6.433   1.233  16.828 -1.7285 -1.0375  0.1004
 1826TIP3    H226970   6.522   1.202  16.709 -0.5901 -1.9875  1.1695
 1827TIP3   OH226971   0.246   5.144   5.665  0.1897  0.2585 -0.0151
 1827TIP3    H126972   0.333   5.135   5.627  0.3389 -2.0631  0.6944
 1827TIP3    H226973   0.260   5.134   5.759 -0.8101  0.0779  0.1290
 1828TIP3   OH226974   2.813   3.966   1.505 -0.3996 -0.3094 -0.0100
 1828TIP3    H126975   2.734   4.003   1.463 -1.6739 -0.3980  2.1690
 1828TIP3    H226976   2.859   4.043   1.540  0.9658 -0.1791 -1.9330
 1829TIP3   OH226977   1.383   6.603   0.788  0.1475  0.0023  0.1274
 1829TIP3    H126978   1.358   6.572   0.875  1.6836  1.5286  1.1531
 1829TIP3    H226979   1.416   6.691   0.801  2.1386 -0.3764 -1.7294
 1830TIP3   OH226980   3.808   0.949  15.267 -0.2118 -0.1118 -0.3730
 1830TIP3    H126981   3.804   0.936  15.172 -0.0294  1.8011 -0.6718
 1830TIP3    H226982   3.733   1.005  15.286  0.8584  1.1504  0.2903
 1831TIP3   OH226983   2.048   4.398   1.100 -0.4548 -0.2506  0.4559
 1831TIP3    H126984   2.137   4.415   1.130 -0.6227 -0.3226  1.0129
 1831TIP3    H226985   2.044   4.303   1.090  0.0722 -0.1061 -1.3331
 1832TIP3   OH226986   0.432   0.262   0.982 -0.8774  0.1274  0.5448
 1832TIP3    H126987   0.406   0.311   0.904  0.5668  0.1928  0.0848
 1832TIP3    H226988   0.487   0.191   0.948 -0.2149  0.1699  1.5040
 1833TIP3   OH226989   0.382   5.121   0.681  0.1654 -0.2032 -0.0831
 1833TIP3    H126990   0.376   5.062   0.756 -1.0766 -0.7246 -0.5571
 1833TIP3    H226991   0.398   5.063   0.607  2.0415  0.3699 -0.1603
 1834TIP3   OH226992   1.824   6.190  11.157  0.0334 -0.0745  0.2791
 1834TIP3    H126993   1.775   6.107  11.152  1.8524 -1.1194 -1.5567
 1834TIP3    H226994   1.905   6.167  11.202  0.7197  0.6121 -0.5723
 1835TIP3   OH226995   6.627   6.199   4.456  0.2594 -0.2928 -0.4048
 1835TIP3    H126996   6.590   6.267   4.513 -0.7618 -0.9903 -0.2196
 1835TIP3    H226997   6.637   6.242   4.371  0.7091  0.4189 -0.0057
 1836TIP3   OH226998   5.702   2.284  12.248  0.6134 -0.9845  0.4200
 1836TIP3    H126999   5.639   2.217  12.275 -0.1095  0.2313  1.8689
 1836TIP3    H227000   5.647   2.358  12.220  1.4031 -0.8280 -0.7981
 1837TIP3   OH227001   2.344   4.165   1.863  0.4209 -0.0780 -0.1630
 1837TIP3    H127002   2.304   4.240   1.819 -0.3401  0.3539  1.2223
 1837TIP3    H227003   2.421   4.145   1.810  0.5291  1.5512 -0.6707
 1838TIP3   OH227004   4.860   3.115   5.005 -0.2201 -0.0595  0.0733
 1838TIP3    H127005   4.880   3.075   5.090 -0.5761 -0.6570 -0.1263
 1838TIP3    H227006   4.794   3.181   5.026 -2.3184 -1.9957 -0.0912
 1839TIP3   OH227007   3.540   3.413   2.632 -0.5246  0.2892  0.2537
 1839TIP3    H127008   3.478   3.434   2.563 -1.4988 -0.5329  0.8463
 1839TIP3    H227009   3.563   3.321   2.617 -0.7569  0.0943  0.9940
 1840TIP3   OH227010   2.050   0.139  16.931  0.2028 -0.1436  0.1885
 1840TIP3    H127011   2.045   0.213  16.991 -0.1335  1.2939 -1.5242
 1840TIP3    H227012   2.142   0.113  16.933  1.2783  2.9390 -2.0559
 1841TIP3   OH227013   0.095   6.368   3.896  0.6918  0.0037  0.0686
 1841TIP3    H127014   0.012   6.359   3.849 -0.3511 -0.9748  1.9993
 1841TIP3    H227015   0.136   6.445   3.856 -0.2438 -0.5836 -2.2017
 1842TIP3   OH227016   3.582   4.862   1.221  0.0536  0.0896 -0.4037
 1842TIP3    H127017   3.586   4.773   1.186  0.1059  0.2688 -0.8640
 1842TIP3    H227018   3.540   4.913   1.151  0.5478  0.5389 -0.3768
 1843TIP3   OH227019   5.422   3.055  14.263  0.2957 -0.2819 -0.4314
 1843TIP3    H127020   5.483   3.128  14.256 -1.1803  1.2197  1.3346
 1843TIP3    H227021   5.336   3.096  14.255 -0.5721 -1.8526  0.5202
 1844TIP3   OH227022   2.161   2.091   2.091  0.3023  0.0086 -0.4402
 1844TIP3    H127023   2.066   2.083   2.086  0.3522 -0.9278 -0.0849
 1844TIP3    H227024   2.180   2.176   2.052 -0.9033  1.3780  1.7495
 1845TIP3   OH227025   6.442   1.918  16.661 -0.0950  0.3837  0.7512
 1845TIP3    H127026   6.504   1.856  16.698 -0.4463 -0.2147  0.3566
 1845TIP3    H227027   6.376   1.863  16.618  1.4383  0.9768 -2.7371
 1846TIP3   OH227028   3.207   1.821  16.332  0.2851 -0.8167  0.0966
 1846TIP3    H127029   3.237   1.890  16.272 -1.4472  2.6759  2.8624
 1846TIP3    H227030   3.287   1.790  16.375  1.1462 -0.9011 -1.4968
 1847TIP3   OH227031   3.627   0.870  13.689  0.3587  0.0191 -0.1940
 1847TIP3    H127032   3.597   0.916  13.767  0.2228 -0.6689  0.1709
 1847TIP3    H227033   3.646   0.781  13.719  1.4851  0.0677 -0.6945
 1848TIP3   OH227034   3.947   6.525   1.479  0.0624  0.6109  0.3914
 1848TIP3    H127035   4.039   6.503   1.463  0.1072  0.5155  0.7605
 1848TIP3    H227036   3.904   6.512   1.395 -0.1975 -2.3135  0.8838
 1849TIP3   OH227037   3.332   5.849  15.478  0.4641 -0.3567  0.4417
 1849TIP3    H127038   3.426   5.867  15.482  0.1062  2.0311 -0.3450
 1849TIP3    H227039   3.296   5.921  15.426 -2.0437 -0.1040  2.3395
 1850TIP3   OH227040   5.931   0.532   2.103 -0.0094 -0.0780 -0.3381
 1850TIP3    H127041   5.860   0.576   2.151  0.1935  1.2242 -1.1898
 1850TIP3    H227042   5.986   0.603   2.070  0.4110 -0.9697 -1.6552
 1851TIP3   OH227043   1.313   6.609   4.518 -0.4971  0.0703 -0.5543
 1851TIP3    H127044   1.264   6.624   4.437 -3.4294  0.7435  1.1710
 1851TIP3    H227045   1.347   6.520   4.509 -1.2906 -0.1116 -2.2512
 1852TIP3   OH227046   5.107   3.390   0.707  0.2979 -0.2115  0.4123
 1852TIP3    H127047   5.094   3.471   0.756  2.0222 -0.7602  1.8709
 1852TIP3    H227048   5.113   3.418   0.616  1.2839  1.3785  0.9254
 1853TIP3   OH227049   6.156   3.000   5.176 -0.1433  0.3458  0.6708
 1853TIP3    H127050   6.235   3.002   5.123  0.3023  2.0895  1.3585
 1853TIP3    H227051   6.088   3.035   5.119 -0.3823 -0.8188  0.2021
 1854TIP3   OH227052   3.860   2.642  13.098 -0.0334  0.2741 -0.5634
 1854TIP3    H127053   3.833   2.581  13.030  0.1166 -1.2201  0.6512
 1854TIP3    H227054   3.947   2.612  13.123 -0.6950 -0.1918  1.3266
 1855TIP3   OH227055   0.374   4.266   5.455  0.0227 -0.3197  0.2905
 1855TIP3    H127056   0.334   4.288   5.371 -0.1352 -3.5909 -0.6297
 1855TIP3    H227057   0.387   4.351   5.498 -1.6303  1.3463 -2.1940
 1856TIP3   OH227058   4.268   1.698  12.328  0.2584  0.3529 -0.0783
 1856TIP3    H127059   4.219   1.754  12.389 -0.0377 -0.3205  0.3186
 1856TIP3    H227060   4.238   1.726  12.241  0.2794  0.9529  0.1002
 1857TIP3   OH227061   4.519   6.641  13.995  0.6724  0.1791  0.7970
 1857TIP3    H127062   4.550   6.683  13.914 -1.2498  0.1720  0.0097
 1857TIP3    H227063   4.424   6.645  13.989  0.4861  0.0072  3.0085
 1858TIP3   OH227064   4.732   0.485  12.497  0.1583  0.2424 -0.4187
 1858TIP3    H127065   4.797   0.554  12.482 -1.0850  1.4616 -0.4084
 1858TIP3    H227066   4.784   0.408  12.520  1.6677  0.7330 -1.9736
 1859TIP3   OH227067   5.333   0.472  12.250  0.4215  0.2842  0.6804
 1859TIP3    H127068   5.428   0.488  12.243  0.2200  1.6466  0.6395
 1859TIP3    H227069   5.306   0.455  12.159  0.2078  2.8153  0.1871
 1860TIP3   OH227070   3.129   2.732   1.445 -0.9565  0.1149  0.1467
 1860TIP3    H127071   3.127   2.645   1.485 -0.1916  0.3116  0.6399
 1860TIP3    H227072   3.051   2.776   1.479 -2.1662 -0.8508 -1.2566
 1861TIP3   OH227073   5.734   6.322   3.817 -0.0048  0.0103  0.1627
 1861TIP3    H127074   5.810   6.280   3.859  0.0705 -1.3015 -1.2183
 1861TIP3    H227075   5.750   6.314   3.724 -2.0859 -0.7761 -0.1879
 1862TIP3   OH227076   3.550   1.893   5.846 -0.1426  0.0641 -0.5691
 1862TIP3    H127077   3.522   1.846   5.768  3.0654 -0.6950 -1.4392
 1862TIP3    H227078   3.551   1.828   5.916 -2.1320  0.5282 -0.0590
 1863TIP3   OH227079   2.782   0.062  12.538 -0.7682  0.5598 -0.6540
 1863TIP3    H127080   2.786   0.090  12.447 -1.7455  1.3157 -0.4837
 1863TIP3    H227081   2.696   0.019  12.547 -0.7774  0.6906 -0.0395
 1864TIP3   OH227082   1.845   4.397  12.985 -0.0618 -0.2920 -0.0103
 1864TIP3    H127083   1.882   4.405  13.073 -0.1858  0.8696 -0.0565
 1864TIP3    H227084   1.811   4.307  12.982 -1.6407  0.1830  1.7597
 1865TIP3   OH227085   3.876   3.079  14.420 -0.0966 -0.1065 -0.0815
 1865TIP3    H127086   3.931   3.157  14.424  2.0262 -1.5200  0.2673
 1865TIP3    H227087   3.909   3.031  14.344 -0.6590 -1.1372  0.3132
 1866TIP3   OH227088   5.412   0.198  14.369 -0.1379  0.5667  0.3498
 1866TIP3    H127089   5.478   0.128  14.364 -0.3666  0.3767 -0.1561
 1866TIP3    H227090   5.374   0.200  14.281  1.1829  2.6298 -0.2514
 1867TIP3   OH227091   2.187   3.545   2.429  0.7605 -0.2333 -0.0980
 1867TIP3    H127092   2.173   3.478   2.495  0.8192 -1.6717 -1.4852
 1867TIP3    H227093   2.167   3.501   2.346 -0.0786  1.7123 -0.9980
 1868TIP3   OH227094   3.374   1.204   1.482  0.3199 -0.0845  0.0859
 1868TIP3    H127095   3.451   1.260   1.492 -0.1725  0.6180  0.0909
 1868TIP3    H227096   3.391   1.154   1.403 -0.4403  2.1814 -1.6343
 1869TIP3   OH227097   2.912   4.090  14.558  0.0936  0.0305 -0.0541
 1869TIP3    H127098   2.958   4.145  14.621  0.6060 -0.1629 -0.2572
 1869TIP3    H227099   2.830   4.137  14.541 -1.3301 -1.1723  2.7428
 1870TIP3   OH227100   6.041   1.214  12.951  0.5196  0.3753  0.2389
 1870TIP3    H127101   5.960   1.207  12.901  0.1719  1.6635  0.5709
 1870TIP3    H227102   6.110   1.190  12.889  0.0722  1.5763 -0.7739
 1871TIP3   OH227103   3.885   1.335  13.514  0.1983 -0.3307 -0.4075
 1871TIP3    H127104   3.843   1.280  13.579 -1.5154  0.0049 -1.1618
 1871TIP3    H227105   3.978   1.325  13.530 -0.1568 -0.5233  1.8475
 1872TIP3   OH227106   4.711   0.790  15.791 -0.2987 -0.6794 -0.3987
 1872TIP3    H127107   4.759   0.709  15.773  0.7132 -0.2216  0.1615
 1872TIP3    H227108   4.625   0.761  15.822  0.1841 -1.5490  0.1608
 1873TIP3   OH227109   6.764   3.237  14.967  0.3600  0.0778  1.1590
 1873TIP3    H127110   6.792   3.156  14.925  0.3627  1.0574 -0.8861
 1873TIP3    H227111   6.797   3.231  15.056  1.4463 -1.6057  0.6921
 1874TIP3   OH227112   0.156   0.188   4.797 -0.4276 -0.1817 -0.5598
 1874TIP3    H127113   0.216   0.252   4.758 -0.9001 -0.5953 -2.0387
 1874TIP3    H227114   0.201   0.104   4.786  0.4489 -0.0965  1.8832
 1875TIP3   OH227115   6.658   0.663   4.992  0.3485 -0.1594  0.4064
 1875TIP3    H127116   6.679   0.697   5.079  0.8678  0.1769  0.1589
 1875TIP3    H227117   6.736   0.614   4.966  0.5314  0.4251 -0.1952
 1876TIP3   OH227118   0.846   2.968  13.851 -0.8538  0.0680  0.1349
 1876TIP3    H127119   0.859   3.002  13.762  2.7622  0.5254  0.6734
 1876TIP3    H227120   0.813   2.879  13.838  0.7489 -0.3232 -1.7845
 1877TIP3   OH227121   2.392   1.229  12.031  0.2925 -0.6669 -0.0895
 1877TIP3    H127122   2.471   1.250  12.080 -0.3964 -0.2687  0.8838
 1877TIP3    H227123   2.322   1.232  12.096 -0.4719 -1.4053 -0.8547
 1878TIP3   OH227124   1.005   5.072  14.700  0.0999 -0.2572 -0.0819
 1878TIP3    H127125   0.938   5.030  14.755 -0.3055 -0.2571 -0.5672
 1878TIP3    H227126   1.056   5.000  14.664  0.0705 -0.2808 -0.0757
 1879TIP3   OH227127   6.569   4.035  16.412  0.1206  0.0429  0.0934
 1879TIP3    H127128   6.519   3.967  16.367  0.2497 -1.5994  2.2983
 1879TIP3    H227129   6.503   4.083  16.463 -0.3403  3.0925 -2.9423
 1880TIP3   OH227130   2.957   0.188  11.227  0.1609  0.6726  0.3893
 1880TIP3    H127131   2.919   0.240  11.156  0.4158  1.6357  0.9397
 1880TIP3    H227132   2.957   0.098  11.193  1.9696  1.3375 -1.5864
 1881TIP3   OH227133   6.345   0.799   1.966  0.5020 -0.1288 -0.1594
 1881TIP3    H127134   6.382   0.810   2.054  0.6478 -1.5339 -0.0141
 1881TIP3    H227135   6.422   0.794   1.909  0.4688 -0.8212 -0.1489
 1882TIP3   OH227136   4.255   2.910   3.169  0.1534 -0.2516 -0.2395
 1882TIP3    H127137   4.258   2.993   3.217  1.0723 -0.0791 -0.5767
 1882TIP3    H227138   4.206   2.851   3.227  1.0991 -0.0055  0.8605
 1883TIP3   OH227139   4.814   6.667  13.023 -0.1833  0.0979 -0.1664
 1883TIP3    H127140   4.815   6.587  12.970 -0.4870 -0.6561  0.9337
 1883TIP3    H227141   4.802   6.637  13.113  0.4854  1.3450  0.3682
 1884TIP3   OH227142   3.778   2.539   5.269  0.6420  0.8338 -0.6956
 1884TIP3    H127143   3.691   2.571   5.247  1.2841  2.1724 -1.3464
 1884TIP3    H227144   3.839   2.602   5.230  1.8893  1.1927  1.6052
 1885TIP3   OH227145   6.246   4.111  16.147 -0.8401 -0.3765 -0.1630
 1885TIP3    H127146   6.240   4.146  16.236  2.2896 -0.2599  0.1101
 1885TIP3    H227147   6.190   4.167  16.095  0.1591  1.9600  1.1346
 1886TIP3   OH227148   1.949   4.973  12.706  0.7084 -0.0027 -0.4823
 1886TIP3    H127149   2.032   4.934  12.678  1.4255  1.4660 -0.4867
 1886TIP3    H227150   1.952   4.970  12.802  0.9496  0.4050 -0.4754
 1887TIP3   OH227151   0.985   0.993  15.560 -0.2203  0.6535  0.1369
 1887TIP3    H127152   1.011   1.059  15.496  0.3844  1.8240  1.5179
 1887TIP3    H227153   0.933   1.042  15.624 -1.7037 -0.6882  0.0138
 1888TIP3   OH227154   0.219   2.830  13.446  0.3541 -0.3760  0.0174
 1888TIP3    H127155   0.255   2.909  13.486  2.7744 -1.6601  0.5538
 1888TIP3    H227156   0.269   2.819  13.365  1.4971 -2.3748  0.9199
 1889TIP3   OH227157   3.093   0.703  16.775 -0.3007 -0.3415 -0.3593
 1889TIP3    H127158   3.004   0.677  16.750 -1.1862  2.4875 -0.5379
 1889TIP3    H227159   3.102   0.674  16.865 -1.0011 -1.5750 -0.6620
 1890TIP3   OH227160   2.479   6.354  11.786 -0.2838 -0.0684  0.3470
 1890TIP3    H127161   2.496   6.296  11.860 -0.7847  0.9363  1.2787
 1890TIP3    H227162   2.562   6.359  11.739  0.0742 -0.6268  0.9122
 1891TIP3   OH227163   1.758   0.064   6.622 -0.3080 -0.7125  0.2824
 1891TIP3    H127164   1.805   0.136   6.581 -0.9466  0.2415  1.1906
 1891TIP3    H227165   1.815   0.034   6.693  0.1099 -1.3443 -0.3088
 1892TIP3   OH227166   6.488   3.863  15.636 -0.0829  0.5186  1.0559
 1892TIP3    H127167   6.545   3.862  15.559  0.8394  1.3819  1.7080
 1892TIP3    H227168   6.533   3.806  15.699  0.8505  2.3433  2.0981
 1893TIP3   OH227169   3.572   2.266   1.836 -0.3260  0.1126 -0.1732
 1893TIP3    H127170   3.619   2.326   1.778 -1.3634  0.6161 -0.5038
 1893TIP3    H227171   3.555   2.189   1.782  1.0252 -0.5198  0.2574
 1894TIP3   OH227172   1.240   2.182  13.808  0.1872  0.2301 -0.1520
 1894TIP3    H127173   1.297   2.244  13.853  1.0618  0.5749 -1.6528
 1894TIP3    H227174   1.200   2.131  13.878  0.3976  1.6525  1.0695
 1895TIP3   OH227175   1.909   4.714   3.802 -0.6430 -0.0630 -0.1631
 1895TIP3    H127176   1.965   4.637   3.813 -1.3849 -0.7720 -1.1837
 1895TIP3    H227177   1.916   4.761   3.885  1.4047 -0.1643 -0.2364
 1896TIP3   OH227178   6.179   5.302  14.308  0.2506 -0.5957 -0.1728
 1896TIP3    H127179   6.272   5.280  14.305  0.5189  0.4470  0.0396
 1896TIP3    H227180   6.157   5.297  14.401  0.5121  0.7553 -0.0247
 1897TIP3   OH227181   0.022   4.106   3.770 -0.0727 -0.7351 -0.1200
 1897TIP3    H127182  -0.043   4.068   3.829 -0.8776  0.2988 -0.3107
 1897TIP3    H227183   0.029   4.197   3.797 -0.6182 -0.1862 -1.7329
 1898TIP3   OH227184   1.351   1.821   1.369 -0.5897  0.2780 -0.2042
 1898TIP3    H127185   1.280   1.848   1.427 -0.8949 -0.9471  0.0020
 1898TIP3    H227186   1.376   1.734   1.399  2.6307  1.5331  1.3310
 1899TIP3   OH227187   0.039   6.715   1.605  0.6228  0.3559  0.3531
 1899TIP3    H127188   0.025   6.809   1.614 -1.1224  0.2460 -0.7399
 1899TIP3    H227189   0.089   6.706   1.523  0.0385  0.3064 -0.0067
 1900TIP3   OH227190   1.135   1.953   4.387  0.2161 -0.0026 -0.2329
 1900TIP3    H127191   1.113   1.863   4.411 -0.2040 -0.3639 -1.8613
 1900TIP3    H227192   1.053   2.001   4.396 -0.0572 -0.2413 -1.3499
 1901TIP3   OH227193   1.531   0.652  11.214 -0.2294 -0.0455  0.5218
 1901TIP3    H127194   1.442   0.687  11.216 -0.3717 -0.3855  2.1533
 1901TIP3    H227195   1.523   0.569  11.167 -0.6944  0.1434  0.2613
 1902TIP3   OH227196   2.666   2.621   4.175 -0.6621  0.0047  0.0908
 1902TIP3    H127197   2.643   2.709   4.205  0.1847 -0.0736  1.0319
 1902TIP3    H227198   2.608   2.605   4.101 -0.1997  1.7361 -0.7159
 1903TIP3   OH227199   3.421   4.333  14.779 -0.3401  0.1148 -0.5015
 1903TIP3    H127200   3.413   4.316  14.873  0.7369  0.3340 -0.3552
 1903TIP3    H227201   3.433   4.428  14.773  0.6747 -0.0119 -0.7623
 1904TIP3   OH227202   1.743   3.030   1.872 -0.9779 -0.1818 -0.1964
 1904TIP3    H127203   1.775   3.092   1.806 -0.3544 -0.6880 -0.3797
 1904TIP3    H227204   1.794   3.050   1.950 -0.7252 -0.5032 -0.2763
 1905TIP3   OH227205   1.096   0.827   3.126 -0.4145 -0.4240  0.3496
 1905TIP3    H127206   1.031   0.835   3.197 -0.2833 -0.4669  0.4758
 1905TIP3    H227207   1.156   0.760   3.158  0.1415  0.1789  0.5768
 1906TIP3   OH227208   6.649   1.350  15.529  0.2467  0.4537 -0.1090
 1906TIP3    H127209   6.652   1.360  15.624 -2.3217 -2.4718  0.4438
 1906TIP3    H227210   6.655   1.256  15.515 -1.1502  0.6781 -2.7131
 1907TIP3   OH227211   6.326   1.947  12.201  0.1095  0.0248  0.4475
 1907TIP3    H127212   6.272   2.000  12.260  1.2623  0.2851  1.3077
 1907TIP3    H227213   6.416   1.963  12.230  1.1263  2.7094 -3.3490
 1908TIP3   OH227214   3.152   4.078   4.188 -0.2749  0.1304  0.5008
 1908TIP3    H127215   3.246   4.070   4.205 -0.1794  0.5918  0.2139
 1908TIP3    H227216   3.141   4.168   4.157 -0.9556  0.3885  1.4583
 1909TIP3   OH227217   2.701   3.641   3.743  0.4732 -0.5920 -0.1782
 1909TIP3    H127218   2.764   3.706   3.711  1.0855 -1.0738  0.0210
 1909TIP3    H227219   2.753   3.584   3.799 -0.4354 -0.1210  1.2115
 1910TIP3   OH227220   3.427   3.868   3.939  0.1130  0.8244 -0.3584
 1910TIP3    H127221   3.419   3.812   3.862  1.6900  1.1346 -0.7770
 1910TIP3    H227222   3.493   3.826   3.993 -0.5504  0.9329  0.5648
 1911TIP3   OH227223   4.098   5.296   6.129  0.0294 -0.1025  0.4641
 1911TIP3    H127224   4.050   5.256   6.202 -0.3216  1.2991  1.0363
 1911TIP3    H227225   4.071   5.387   6.130 -1.5815 -0.4404 -2.7596
 1912TIP3   OH227226   0.726   1.411   1.398  0.1591  0.2674  0.2251
 1912TIP3    H127227   0.701   1.353   1.469  2.0981 -0.5150  0.3133
 1912TIP3    H227228   0.797   1.366   1.353  0.2239  1.5776 -1.0732
 1913TIP3   OH227229   3.488   6.359   2.662  0.4540  0.2057  0.4922
 1913TIP3    H127230   3.547   6.309   2.605 -0.4153  0.5709 -0.7847
 1913TIP3    H227231   3.546   6.406   2.722  1.5019  0.8562 -0.9715
 1914TIP3   OH227232   2.749   5.171  15.203 -0.0888  0.2893 -0.6500
 1914TIP3    H127233   2.713   5.157  15.291 -2.0587  1.6957 -1.1550
 1914TIP3    H227234   2.692   5.120  15.146 -0.0251  0.9400 -1.3002
 1915TIP3   OH227235   1.606   5.013   5.900  0.1429 -0.6200 -0.0464
 1915TIP3    H127236   1.652   5.044   5.979  0.4378 -2.8384  0.7265
 1915TIP3    H227237   1.626   4.920   5.896  0.6277 -0.4865 -3.1187
 1916TIP3   OH227238   3.053   2.995  16.568  0.7446 -0.6477  0.1523
 1916TIP3    H127239   3.102   3.076  16.552  0.9376 -0.7723  0.1142
 1916TIP3    H227240   3.003   2.981  16.488  0.3893 -0.3421  0.3129
 1917TIP3   OH227241   2.027   4.762   4.164  0.2807 -0.2192  0.0007
 1917TIP3    H127242   1.996   4.744   4.253 -0.0017  1.1571  0.2073
 1917TIP3    H227243   1.970   4.833   4.133  0.6093 -0.4357 -1.1440
 1918TIP3   OH227244   1.454   6.095  13.807 -0.5308  0.3208  0.0444
 1918TIP3    H127245   1.404   6.151  13.748  0.8785 -1.7399 -3.4571
 1918TIP3    H227246   1.534   6.145  13.826 -0.8266  0.8652 -0.1362
 1919TIP3   OH227247   5.250   1.371  15.946  0.2702 -0.3526  0.3122
 1919TIP3    H127248   5.342   1.394  15.961 -0.2351  1.4028  0.9414
 1919TIP3    H227249   5.213   1.361  16.033  0.1894 -2.7331  0.0845
 1920TIP3   OH227250   5.307   4.569   1.526  0.2328  0.0046 -0.1270
 1920TIP3    H127251   5.313   4.654   1.482  0.9609 -0.1308 -0.3035
 1920TIP3    H227252   5.391   4.558   1.570 -0.1192 -0.3128  0.4794
 1921TIP3   OH227253   5.692   3.661  14.157 -0.2074 -0.7005  0.2910
 1921TIP3    H127254   5.753   3.589  14.173 -1.0430 -1.7561 -1.0203
 1921TIP3    H227255   5.610   3.633  14.198 -0.5332 -0.5036 -0.2162
 1922TIP3   OH227256   2.881   1.935  12.685 -0.4747  0.3672 -0.4461
 1922TIP3    H127257   2.949   1.882  12.727 -0.9864 -0.2063 -0.3178
 1922TIP3    H227258   2.899   1.928  12.591  0.7186  1.7141 -0.3441
 1923TIP3   OH227259   5.469   5.600   1.801 -0.0329 -0.3795  0.5048
 1923TIP3    H127260   5.402   5.564   1.743  0.2118 -0.7086  0.4198
 1923TIP3    H227261   5.498   5.681   1.759  0.4236 -0.8162 -0.0448
 1924TIP3   OH227262   1.432   2.631  16.504 -0.1447 -0.4222 -0.4147
 1924TIP3    H127263   1.372   2.684  16.450 -1.1252 -1.5609 -0.5023
 1924TIP3    H227264   1.517   2.674  16.495 -0.8312  0.9226 -0.7532
 1925TIP3   OH227265   4.164   6.501  13.527  0.4517 -0.4269  0.2650
 1925TIP3    H127266   4.148   6.411  13.502  0.2181 -0.0370 -1.0721
 1925TIP3    H227267   4.142   6.505  13.621 -0.2003 -1.5796  0.1709
 1926TIP3   OH227268   5.000   2.751   2.673 -0.2295 -0.3393 -0.1255
 1926TIP3    H127269   4.947   2.672   2.663 -1.5398  0.5674 -0.6111
 1926TIP3    H227270   5.028   2.772   2.584  0.1953 -0.3092  0.0145
 1927TIP3   OH227271   6.470   1.706   4.151 -0.1161  0.5275 -0.0704
 1927TIP3    H127272   6.478   1.660   4.234 -0.7680  1.2476  0.3965
 1927TIP3    H227273   6.426   1.643   4.093 -1.0694  0.5768  0.5828
 1928TIP3   OH227274   6.274   4.776   3.843 -0.4681 -0.5080 -0.0260
 1928TIP3    H127275   6.325   4.795   3.922  0.0472 -0.4840 -0.3582
 1928TIP3    H227276   6.325   4.710   3.797  1.1036  1.9376 -2.0866
 1929TIP3   OH227277   6.496   2.467   1.630 -0.0607 -0.2030 -0.3335
 1929TIP3    H127278   6.407   2.441   1.651  0.2378 -1.0737 -0.0887
 1929TIP3    H227279   6.525   2.402   1.566 -0.3280  1.3392 -2.0923
 1930TIP3   OH227280   1.897   2.139   4.650  0.0567  0.3237  0.1864
 1930TIP3    H127281   1.975   2.122   4.598 -1.2836 -2.6324 -1.1377
 1930TIP3    H227282   1.836   2.181   4.589  0.9262  3.8800  1.5670
 1931TIP3   OH227283   6.293   0.120  11.834 -0.0673 -0.0245 -0.0624
 1931TIP3    H127284   6.265   0.205  11.801 -1.0287 -1.2750 -2.8001
 1931TIP3    H227285   6.225   0.096  11.898 -0.8551  0.4684 -0.6835
 1932TIP3   OH227286   4.275   3.420   2.858  0.1869 -0.3252  0.3345
 1932TIP3    H127287   4.213   3.464   2.800  0.0363 -3.1495 -1.9240
 1932TIP3    H227288   4.360   3.457   2.835 -0.0703 -0.2602 -0.5417
 1933TIP3   OH227289   1.092   2.394   1.733  0.6477  0.0943  0.1365
 1933TIP3    H127290   1.125   2.402   1.644 -0.2796  0.2747 -0.2048
 1933TIP3    H227291   1.019   2.333   1.727  1.0401 -0.4749  0.9128
 1934TIP3   OH227292   1.238   5.157   3.301  0.1956 -0.1349  0.3340
 1934TIP3    H127293   1.172   5.114   3.247 -2.4635  2.1157  1.5628
 1934TIP3    H227294   1.252   5.097   3.374 -0.1824 -0.7946 -0.1232
 1935TIP3   OH227295   2.388   4.690   5.957  0.4300 -0.0814  0.0508
 1935TIP3    H127296   2.365   4.711   5.867 -0.5956  0.3748  0.3992
 1935TIP3    H227297   2.342   4.756   6.009 -1.6495 -2.2263  1.0920
 1936TIP3   OH227298   4.521   2.760   0.046 -0.1714 -0.1146 -0.0759
 1936TIP3    H127299   4.427   2.742   0.042 -0.0481 -1.1020  0.8626
 1936TIP3    H227300   4.560   2.700  -0.017 -0.1776  0.3630 -0.5357
 1937TIP3   OH227301   4.485   0.211  13.691 -0.8163 -0.0651 -0.3356
 1937TIP3    H127302   4.451   0.251  13.771 -1.4470  0.4363 -0.8512
 1937TIP3    H227303   4.472   0.277  13.623 -0.5182 -0.5821 -0.9026
 1938TIP3   OH227304   3.462   0.414   2.480 -0.6055  0.5419  0.3098
 1938TIP3    H127305   3.406   0.342   2.454  0.6999 -0.6096  0.6011
 1938TIP3    H227306   3.472   0.403   2.575  0.4906  0.4453  0.1885
 1939TIP3   OH227307   6.509   4.670   5.116  0.0722  0.6359 -0.0114
 1939TIP3    H127308   6.515   4.584   5.075  0.6295  0.0201  1.2938
 1939TIP3    H227309   6.600   4.699   5.122 -0.0055  0.7273  0.7487
 1940TIP3   OH227310   5.394   6.102  11.525  0.1398 -0.3485 -0.2511
 1940TIP3    H127311   5.470   6.107  11.583  0.9315 -1.8106 -1.1140
 1940TIP3    H227312   5.326   6.061  11.579  0.9721 -2.0220 -0.3915
 1941TIP3   OH227313   6.795   1.135  13.975 -0.6798  0.0872 -0.4853
 1941TIP3    H127314   6.781   1.133  14.070 -0.6730 -2.0448 -0.4923
 1941TIP3    H227315   6.733   1.070  13.941 -1.4402  1.5627 -2.0807
 1942TIP3   OH227316   1.709   3.086   3.550  0.6018 -0.4641 -0.2304
 1942TIP3    H127317   1.751   3.161   3.592 -0.6641  1.2434 -1.8304
 1942TIP3    H227318   1.642   3.058   3.613 -0.1092  0.9347 -0.3189
 1943TIP3   OH227319   1.446   5.092   5.679 -0.0184 -0.0465  0.2998
 1943TIP3    H127320   1.360   5.068   5.714  0.3776 -1.4151  0.3843
 1943TIP3    H227321   1.508   5.050   5.739  0.6969  0.2428 -0.2290
 1944TIP3   OH227322   6.588   2.938   5.710  0.7421  0.9502  0.1519
 1944TIP3    H127323   6.666   2.891   5.739  0.6520 -0.1129 -1.2279
 1944TIP3    H227324   6.515   2.887   5.746  0.6648  0.8297 -0.1692
 1945TIP3   OH227325   2.177   4.968  15.370  0.0733  0.3108 -0.4325
 1945TIP3    H127326   2.219   5.043  15.328  0.1989 -0.3015 -1.4164
 1945TIP3    H227327   2.144   4.915  15.298  0.1588 -0.6862  0.2388
 1946TIP3   OH227328   1.628   4.654  11.698  0.3600  0.1480 -0.0388
 1946TIP3    H127329   1.566   4.697  11.756 -0.0847  0.3415 -0.6456
 1946TIP3    H227330   1.704   4.636  11.753 -0.2735 -0.1930  0.7469
 1947TIP3   OH227331   1.166   1.392  12.283 -0.1381  0.5058 -0.0544
 1947TIP3    H127332   1.110   1.317  12.304 -1.9124  1.6998 -0.2259
 1947TIP3    H227333   1.157   1.450  12.359 -0.5245  1.4800 -0.8180
 1948TIP3   OH227334   5.168   2.188  12.771 -0.0659 -0.3002  0.2206
 1948TIP3    H127335   5.187   2.096  12.787  4.7311  0.1352 -1.2572
 1948TIP3    H227336   5.127   2.189  12.684 -0.8938 -1.0375  0.5871
 1949TIP3   OH227337   3.396   6.695   1.259 -0.2051  0.3175 -0.4620
 1949TIP3    H127338   3.328   6.747   1.216  0.1359  0.8861 -0.3228
 1949TIP3    H227339   3.460   6.676   1.190  0.7571  1.9213 -0.0716
 1950TIP3   OH227340   2.534   3.544  12.845  0.2814  0.0334 -0.2543
 1950TIP3    H127341   2.619   3.515  12.880  0.9558  1.6151 -0.5039
 1950TIP3    H227342   2.556   3.584  12.761 -0.7283  0.4326 -0.3298
 1951TIP3   OH227343   3.409   5.446   6.130 -0.5353  0.0271 -0.2375
 1951TIP3    H127344   3.380   5.497   6.205  1.0371  2.7785 -1.3446
 1951TIP3    H227345   3.503   5.433   6.145 -0.2110  0.5696 -1.6595
 1952TIP3   OH227346   1.672   3.534   4.085  0.4962 -0.4726  0.1169
 1952TIP3    H127347   1.704   3.623   4.103 -0.7873  0.2680 -1.0782
 1952TIP3    H227348   1.701   3.516   3.996  1.0378 -1.4192  0.4663
 1953TIP3   OH227349   2.638   1.294  12.176 -0.3050 -0.9428 -0.8171
 1953TIP3    H127350   2.639   1.347  12.256 -2.0728 -0.6648 -0.9241
 1953TIP3    H227351   2.665   1.207  12.205  2.2723 -0.1523 -0.5658
 1954TIP3   OH227352   5.701   3.157   3.847  0.2267 -0.1224  0.4620
 1954TIP3    H127353   5.680   3.247   3.820 -1.3964 -0.9981 -1.5023
 1954TIP3    H227354   5.736   3.166   3.935 -0.1203  2.4161  0.4193
 1955TIP3   OH227355   4.613   5.269  13.373 -0.5055  0.3724 -0.0040
 1955TIP3    H127356   4.533   5.217  13.364 -0.6213  0.5332  0.0893
 1955TIP3    H227357   4.586   5.347  13.422 -1.1288  2.2758 -3.0970
 1956TIP3   OH227358   3.302   4.447  10.586 -0.5209  0.5132 -0.0907
 1956TIP3    H127359   3.294   4.539  10.611 -0.2465  0.6080 -0.3434
 1956TIP3    H227360   3.225   4.405  10.625 -0.5554  0.8157  0.1742
 1957TIP3   OH227361   1.868   3.396   1.101  0.1751 -0.3174 -0.1392
 1957TIP3    H127362   1.949   3.443   1.120  0.1755 -1.0427  1.8733
 1957TIP3    H227363   1.889   3.304   1.119 -1.3886 -0.3840  1.6563
 1958TIP3   OH227364   6.289   0.234   0.028 -0.0900 -0.0286  0.0686
 1958TIP3    H127365   6.256   0.241   0.118 -1.2725  0.9262 -0.4104
 1958TIP3    H227366   6.339   0.315   0.015  2.4190 -1.3621  0.7156
 1959TIP3   OH227367   4.320   6.818   5.034  0.3633 -0.6131  0.4993
 1959TIP3    H127368   4.390   6.767   5.074  2.3738  0.6724 -1.2205
 1959TIP3    H227369   4.309   6.893   5.092 -0.2600 -1.2270  1.2186
 1960TIP3   OH227370   6.637   2.653  11.279 -0.0406  0.3274  0.2861
 1960TIP3    H127371   6.721   2.659  11.234  0.0928  1.6147  0.6510
 1960TIP3    H227372   6.584   2.596  11.224  1.0072 -0.3514 -0.0462
 1961TIP3   OH227373   4.652   4.271   5.566 -0.1050 -0.2420  0.1338
 1961TIP3    H127374   4.583   4.219   5.608 -0.2069 -0.9063 -0.8414
 1961TIP3    H227375   4.695   4.210   5.507  0.8871  0.3514  0.2311
 1962TIP3   OH227376   5.302   1.941   1.853  0.1863 -0.4571 -0.5104
 1962TIP3    H127377   5.290   2.035   1.870 -0.2032 -0.5609 -0.1946
 1962TIP3    H227378   5.338   1.906   1.935  0.3350 -0.5828 -0.6293
 1963TIP3   OH227379   3.993   3.412   3.431 -0.1950  0.4208 -0.1410
 1963TIP3    H127380   3.928   3.460   3.380  0.7680  0.7400 -1.1038
 1963TIP3    H227381   4.059   3.477   3.453  0.6395 -0.2472 -0.6199
 1964TIP3   OH227382   3.902   0.089   2.409  0.5082  0.4646  0.0602
 1964TIP3    H127383   3.894   0.184   2.405  1.4914  0.5350 -0.4286
 1964TIP3    H227384   3.819   0.059   2.447 -1.0126  1.2733 -2.4488
 1965TIP3   OH227385   4.041   4.237   5.527  0.3395 -0.2208 -0.0882
 1965TIP3    H127386   4.085   4.201   5.450 -0.1828  1.7436 -1.3861
 1965TIP3    H227387   3.948   4.224   5.509  0.2450 -0.4845  0.5947
 1966TIP3   OH227388   0.632   1.105   0.968 -0.8075  0.4938 -0.1619
 1966TIP3    H127389   0.550   1.077   1.008  0.6502  1.6222  4.1162
 1966TIP3    H227390   0.615   1.193   0.936 -2.0417 -0.4830 -2.4539
 1967TIP3   OH227391   6.725   2.274  13.173  0.0511 -0.3609  0.1391
 1967TIP3    H127392   6.765   2.338  13.115 -0.5050  0.3405  0.5140
 1967TIP3    H227393   6.688   2.326  13.245  0.2991 -1.1660  0.8743
 1968TIP3   OH227394   1.318   1.694   4.524 -0.0810  0.6953 -0.0296
 1968TIP3    H127395   1.335   1.783   4.556 -0.3995  0.1386  1.8289
 1968TIP3    H227396   1.248   1.661   4.580  0.9215 -1.1713  0.2149
 1969TIP3   OH227397   1.872   1.784   2.130  0.1867  0.4733 -0.2253
 1969TIP3    H127398   1.949   1.731   2.109 -0.7735 -0.8118 -0.5787
 1969TIP3    H227399   1.900   1.874   2.115  1.2583 -0.0492 -1.4961
 1970TIP3   OH227400   4.177   2.871  15.351 -0.4523  0.4052 -0.5395
 1970TIP3    H127401   4.093   2.832  15.378 -0.7864  1.9269  0.7368
 1970TIP3    H227402   4.240   2.799  15.357 -0.8088  0.2554  2.9165
 1971TIP3   OH227403   4.268   2.005   0.116  0.0806  0.6331  0.3454
 1971TIP3    H127404   4.241   2.083   0.067 -1.5538  0.1536  0.4380
 1971TIP3    H227405   4.323   1.956   0.054  0.7100  1.5944  0.1193
 1972TIP3   OH227406   5.780   4.531  16.017 -0.6184  0.7043  0.2662
 1972TIP3    H127407   5.714   4.598  16.039 -0.4513  0.7339  0.6932
 1972TIP3    H227408   5.730   4.449  16.014 -1.0789  1.0015 -1.5892
 1973TIP3   OH227409   5.018   0.016  12.857 -0.3432  0.2222 -0.3390
 1973TIP3    H127410   5.015   0.110  12.842 -2.1740  0.1935 -0.4461
 1973TIP3    H227411   5.019   0.007  12.952 -0.8710  0.3633 -0.3156
 1974TIP3   OH227412   1.583   4.249   1.930  0.4667  0.2027  0.0938
 1974TIP3    H127413   1.617   4.314   1.868  0.7914  0.9113  0.9905
 1974TIP3    H227414   1.546   4.180   1.875  0.8380  0.7673 -0.8844
 1975TIP3   OH227415   0.195   1.870   4.511 -0.5754 -0.2509 -0.2959
 1975TIP3    H127416   0.240   1.833   4.435 -0.7151 -2.9322  0.8046
 1975TIP3    H227417   0.119   1.914   4.475 -0.0663 -0.5475 -1.7904
 1976TIP3   OH227418   6.560   6.432   4.611  0.0252 -0.5181  0.6508
 1976TIP3    H127419   6.512   6.422   4.693  0.1865  0.1983  0.8441
 1976TIP3    H227420   6.554   6.526   4.592  1.0041 -0.4875  0.4672
 1977TIP3   OH227421   3.325   5.826  11.198 -0.0951 -0.5850  0.1955
 1977TIP3    H127422   3.360   5.884  11.265  1.8296 -0.1649 -1.0725
 1977TIP3    H227423   3.286   5.884  11.133  2.3000 -0.5297 -1.3393
 1978TIP3   OH227424   4.539   2.304   0.948  0.0957 -0.1609 -0.2202
 1978TIP3    H127425   4.458   2.254   0.946 -0.8638  1.2908  0.2969
 1978TIP3    H227426   4.608   2.239   0.937 -1.1737 -1.2476 -2.6034
 1979TIP3   OH227427   0.701   3.926  16.454  0.1773  0.4169  0.0622
 1979TIP3    H127428   0.682   4.010  16.414  3.2506  1.7643  1.1345
 1979TIP3    H227429   0.732   3.948  16.542 -1.0250 -2.0291  1.1968
 1980TIP3   OH227430   5.307   3.201   5.515  0.8150 -0.5289 -0.4934
 1980TIP3    H127431   5.353   3.213   5.431  0.7169  0.6128 -0.3948
 1980TIP3    H227432   5.214   3.208   5.492  0.7401 -1.2823 -0.4454
 1981TIP3   OH227433   5.406   2.207   2.840  0.2073 -0.2132  0.1732
 1981TIP3    H127434   5.319   2.215   2.801  1.0097  1.6460 -1.3817
 1981TIP3    H227435   5.394   2.236   2.930 -0.8877 -0.5924  0.1730
 1982TIP3   OH227436   4.876   3.144   2.970 -0.1644 -0.2381 -0.2642
 1982TIP3    H127437   4.872   3.239   2.976 -0.0760 -0.2369 -0.2148
 1982TIP3    H227438   4.938   3.127   2.899  0.3865 -0.2610  0.2102
 1983TIP3   OH227439   5.849   4.272  14.327 -0.5215 -0.2174  0.5718
 1983TIP3    H127440   5.774   4.327  14.304  0.1250 -0.1097 -1.4305
 1983TIP3    H227441   5.925   4.320  14.296  0.3308 -0.7986  1.6782
 1984TIP3   OH227442   2.357   0.711   5.750 -0.0557  0.2016  0.3719
 1984TIP3    H127443   2.370   0.748   5.663 -0.0123  1.4853  0.9014
 1984TIP3    H227444   2.428   0.748   5.802  0.1977 -0.9247  0.8537
 1985TIP3   OH227445   5.419   2.619   2.228 -0.2555  0.4467  0.2790
 1985TIP3    H127446   5.449   2.661   2.147 -0.5836  1.1847  0.5321
 1985TIP3    H227447   5.379   2.537   2.199  1.2452 -0.1790 -0.1426
 1986TIP3   OH227448   5.246   3.075  11.949 -0.1888  0.3407 -0.5670
 1986TIP3    H127449   5.191   2.998  11.937 -2.7043  2.0626 -0.7679
 1986TIP3    H227450   5.276   3.097  11.861  1.1517 -0.7425 -0.4275
 1987TIP3   OH227451   3.188   4.113   1.644 -0.0354  0.2280 -0.0691
 1987TIP3    H127452   3.229   4.132   1.559 -1.3097  2.4317 -0.2755
 1987TIP3    H227453   3.258   4.125   1.708  0.6381 -0.2424 -0.6932
 1988TIP3   OH227454   5.141   0.897  11.780  0.3789  1.0460  0.3709
 1988TIP3    H127455   5.099   0.856  11.705  0.1440  0.5052  0.7909
 1988TIP3    H227456   5.203   0.832  11.812  1.5886  1.8442 -0.2573
 1989TIP3   OH227457   5.781   5.966  11.721 -0.1939 -0.2985 -0.1445
 1989TIP3    H127458   5.798   5.938  11.631  0.3058 -2.4906  0.5560
 1989TIP3    H227459   5.868   5.983  11.758 -0.2872 -0.6607  0.2620
 1990TIP3   OH227460   5.623   2.583   3.746  0.1237  0.6381  0.0931
 1990TIP3    H127461   5.532   2.599   3.721  0.1765 -0.3479 -0.8096
 1990TIP3    H227462   5.675   2.616   3.672  0.4887  0.9326  0.4731
 1991TIP3   OH227463   2.124   6.459  16.899  0.2295 -0.4825  0.0487
 1991TIP3    H127464   2.174   6.453  16.817  0.7357 -0.1520  0.3262
 1991TIP3    H227465   2.091   6.549  16.900 -0.0623 -0.5880  0.0493
 1992TIP3   OH227466   5.918   2.406  16.038  0.8777 -0.1860 -0.6215
 1992TIP3    H127467   5.965   2.367  16.112 -0.9877 -0.6754  0.3732
 1992TIP3    H227468   5.980   2.401  15.965  2.0756 -1.5124  0.4218
 1993TIP3   OH227469   6.169   6.581  15.931 -0.2602  0.1477  0.1592
 1993TIP3    H127470   6.252   6.543  15.962  1.8602  3.8245 -0.4635
 1993TIP3    H227471   6.117   6.505  15.904  2.8990 -2.3635  0.4798
 1994TIP3   OH227472   1.551   4.482  13.177 -0.5664 -0.3179 -0.2540
 1994TIP3    H127473   1.494   4.550  13.213 -0.5533  0.4302 -1.6051
 1994TIP3    H227474   1.538   4.487  13.083  0.1663 -1.5586 -0.4408
 1995TIP3   OH227475   3.094   5.733   1.606 -0.4665  0.1849 -0.6932
 1995TIP3    H127476   3.184   5.745   1.635 -0.8491  0.7960  0.2814
 1995TIP3    H227477   3.044   5.717   1.686 -0.9572 -2.1120 -1.3635
 1996TIP3   OH227478   4.112   4.565  13.054  0.1082 -0.2468  0.3742
 1996TIP3    H127479   4.152   4.500  13.111 -1.2949 -2.2112 -0.7831
 1996TIP3    H227480   4.050   4.612  13.111  0.1163 -0.8679  0.9023
 1997TIP3   OH227481   0.573   4.078  11.496  0.2736 -0.3164 -0.3771
 1997TIP3    H127482   0.564   4.139  11.569 -0.7135 -0.4922 -0.3378
 1997TIP3    H227483   0.639   4.118  11.439  0.9549 -0.1155  0.5305
 1998TIP3   OH227484   6.020   3.692  10.563  0.1658  0.0370  0.1808
 1998TIP3    H127485   5.943   3.712  10.511  0.5751  0.1024 -0.4125
 1998TIP3    H227486   6.057   3.777  10.586  1.8191  0.0818 -2.2108
 1999TIP3   OH227487   0.311   4.545   3.444 -0.0623 -0.1516  0.0418
 1999TIP3    H127488   0.298   4.594   3.525  1.6475  1.1664 -0.4190
 1999TIP3    H227489   0.248   4.473   3.449 -0.3485  0.1805  2.2972
 2000TIP3   OH227490   6.409   4.603  16.980  0.1252  0.2285  0.1077
 2000TIP3    H127491   6.482   4.556  16.940  0.9514  0.8546  0.8264
 2000TIP3    H227492   6.417   4.583  17.074 -1.6764 -1.0943  0.0327
 2001TIP3   OH227493   2.147   5.418   1.294 -0.2607 -0.8664  0.0446
 2001TIP3    H127494   2.147   5.451   1.384  0.4308  0.1345 -0.2992
 2001TIP3    H227495   2.238   5.392   1.279  0.4435  1.9890 -1.3745
 2002TIP3   OH227496   2.696   3.720  14.803 -0.1873 -0.4006  0.5220
 2002TIP3    H127497   2.643   3.659  14.854  0.1554 -0.5445  0.7138
 2002TIP3    H227498   2.659   3.717  14.715 -1.1110  0.2387  0.8762
 2003TIP3   OH227499   3.537   5.077   2.621  0.8791 -0.1138 -0.0180
 2003TIP3    H127500   3.463   5.078   2.682  0.6096 -0.9473 -0.3206
 2003TIP3    H227501   3.499   5.106   2.538  0.9803 -0.1450 -0.0744
 2004TIP3   OH227502   5.542   4.307  13.149 -0.0297  0.1232 -0.1180
 2004TIP3    H127503   5.540   4.212  13.134  0.2091  0.0441  0.3090
 2004TIP3    H227504   5.630   4.334  13.122  0.6236 -0.1212  1.5914
 2005TIP3   OH227505   3.785   3.811   2.712  0.3818 -0.0205  0.4158
 2005TIP3    H127506   3.703   3.837   2.755 -3.1012 -1.1842 -4.5445
 2005TIP3    H227507   3.795   3.718   2.733  1.3969  0.4388  2.1688
 2006TIP3   OH227508   1.419   1.125  16.399 -0.1210 -0.4624  0.0173
 2006TIP3    H127509   1.467   1.046  16.421 -1.4312 -1.3862 -0.3588
 2006TIP3    H227510   1.452   1.149  16.312  2.0288  0.8357  1.1039
 2007TIP3   OH227511   0.230   4.500   3.125  0.7409 -0.1997 -0.3235
 2007TIP3    H127512   0.154   4.468   3.172  1.0630 -0.2531  0.1687
 2007TIP3    H227513   0.274   4.559   3.186  1.4338 -0.6552 -0.3597
 2008TIP3   OH227514   6.243   1.464   2.519 -0.1436  0.0226  0.4649
 2008TIP3    H127515   6.296   1.447   2.441 -0.1800 -0.0394  0.4541
 2008TIP3    H227516   6.293   1.424   2.591 -0.2108 -0.0966  0.4447
 2009TIP3   OH227517   3.139   4.156  11.660  0.1224 -0.5028 -0.0350
 2009TIP3    H127518   3.197   4.231  11.672  0.8003 -1.0695  0.3501
 2009TIP3    H227519   3.143   4.109  11.744 -0.3146 -0.9523 -0.2605
 2010TIP3   OH227520   6.453   4.242  13.392 -0.0068 -1.0758  0.5167
 2010TIP3    H127521   6.517   4.231  13.462  0.8414 -0.7136 -0.1856
 2010TIP3    H227522   6.502   4.283  13.320 -0.3659 -3.1834 -1.0178
 2011TIP3   OH227523   5.151   0.467   2.721 -0.4524 -0.7001  0.2017
 2011TIP3    H127524   5.182   0.504   2.804 -0.6705 -1.5652  0.6757
 2011TIP3    H227525   5.075   0.520   2.697  0.8564  0.9370 -0.5630
 2012TIP3   OH227526   6.485   3.823   5.606 -0.7692 -0.0770 -0.2904
 2012TIP3    H127527   6.440   3.827   5.690 -0.1530  0.6566  0.0166
 2012TIP3    H227528   6.465   3.735   5.573  0.7820 -1.2708  1.6670
 2013TIP3   OH227529   1.221   5.985   1.543 -0.3324 -0.4286  0.3709
 2013TIP3    H127530   1.137   6.030   1.544  0.1873  0.5567  1.6463
 2013TIP3    H227531   1.251   5.987   1.634  0.8127 -1.2691  0.0393
 2014TIP3   OH227532   4.167   0.983   2.891  0.3308  0.0237 -0.0065
 2014TIP3    H127533   4.243   1.024   2.850  0.3176 -0.0252 -0.0799
 2014TIP3    H227534   4.198   0.896   2.916  0.1253 -0.2156 -0.5755
 2015TIP3   OH227535   1.595   4.888  14.401  0.5584 -0.3289 -0.3448
 2015TIP3    H127536   1.538   4.900  14.477  1.6732  0.6978  0.3600
 2015TIP3    H227537   1.684   4.899  14.435  1.0779  0.3753 -1.8365
 2016TIP3   OH227538   1.420   5.700  12.798 -0.7926 -0.1243 -0.9765
 2016TIP3    H127539   1.469   5.645  12.737 -1.3101  1.1241 -2.5789
 2016TIP3    H227540   1.333   5.660  12.803 -0.6378 -0.4386 -0.7385
 2017TIP3   OH227541   0.653   2.143   5.054 -0.0619 -0.5046  0.4028
 2017TIP3    H127542   0.594   2.133   5.129  0.0540 -1.3246  0.3909
 2017TIP3    H227543   0.736   2.106   5.084 -0.1924 -1.4030 -0.3416
 2018TIP3   OH227544   1.769   4.244   5.978  0.7526  0.0620  0.2849
 2018TIP3    H127545   1.713   4.288   5.914  1.8243  0.2577 -0.5300
 2018TIP3    H227546   1.832   4.195   5.926  0.9590 -0.6806  1.1948
 2019TIP3   OH227547   5.811   5.486  16.344  0.2616  0.2209 -0.3147
 2019TIP3    H127548   5.847   5.507  16.258  0.8283  0.9756  0.0924
 2019TIP3    H227549   5.853   5.404  16.369 -1.5060 -1.1738 -1.6623
 2020TIP3   OH227550   6.768   4.903   5.049 -0.2418  0.3011 -0.3718
 2020TIP3    H127551   6.762   4.998   5.051 -0.4955  0.3139 -1.3367
 2020TIP3    H227552   6.849   4.883   5.097 -1.2105  0.8732  1.5895
 2021TIP3   OH227553   5.893   2.250  10.057 -0.5219 -0.2432  0.0783
 2021TIP3    H127554   5.987   2.262  10.047 -0.3417 -0.7373  1.0340
 2021TIP3    H227555   5.857   2.338  10.049 -0.0758 -0.1556 -1.1196
 2022TIP3   OH227556   1.305   6.349  16.789 -0.1459 -0.2945  0.6162
 2022TIP3    H127557   1.297   6.426  16.846 -1.1406 -0.7624  1.1274
 2022TIP3    H227558   1.369   6.376  16.723 -0.7970  1.1488  0.5159
 2023TIP3   OH227559   3.599   2.051  13.121  0.1513  0.3272 -0.2090
 2023TIP3    H127560   3.657   2.126  13.109  0.6991 -0.1371 -0.5122
 2023TIP3    H227561   3.515   2.090  13.144 -0.4201  1.2061 -3.3193
 2024TIP3   OH227562   6.484   1.660   5.854 -0.3012 -0.2017  0.3494
 2024TIP3    H127563   6.458   1.683   5.943  1.4681  0.1000  0.8224
 2024TIP3    H227564   6.477   1.742   5.805 -0.3398 -0.1448  0.4505
 2025TIP3   OH227565   0.740   2.205  13.540  0.3454 -0.0978 -0.0335
 2025TIP3    H127566   0.777   2.277  13.490  0.6558  0.1387  0.5347
 2025TIP3    H227567   0.736   2.237  13.630 -0.1219 -0.5545  0.1149
 2026TIP3   OH227568   5.387   2.578   4.624 -0.7139 -0.0006 -0.2972
 2026TIP3    H127569   5.298   2.575   4.589  0.2042 -1.7331 -2.7602
 2026TIP3    H227570   5.381   2.537   4.710 -2.5876  1.7752  0.5054
 2027TIP3   OH227571   6.827   3.163   5.199 -0.2022  0.3366  0.3110
 2027TIP3    H127572   6.836   3.140   5.291 -0.6768 -0.3936  0.1819
 2027TIP3    H227573   6.751   3.114   5.169 -0.7985  1.5012 -0.1669
 2028TIP3   OH227574   6.246   4.237  13.126  0.2031  0.2117  0.7310
 2028TIP3    H127575   6.272   4.171  13.190  0.1196 -0.9004 -0.3474
 2028TIP3    H227576   6.166   4.276  13.163 -0.2798 -0.9490  0.9560
 2029TIP3   OH227577   0.880   3.832   1.439 -0.1084 -0.1811 -0.1860
 2029TIP3    H127578   0.880   3.832   1.344  1.2069 -0.9819 -0.2098
 2029TIP3    H227579   0.880   3.739   1.463  0.2236  0.0043  0.5850
 2030TIP3   OH227580   5.252   5.490   3.408 -0.5631 -0.3209 -0.2831
 2030TIP3    H127581   5.344   5.464   3.404 -0.4638  0.1313 -1.8351
 2030TIP3    H227582   5.204   5.411   3.384 -0.5711 -0.5315  0.4308
 2031TIP3   OH227583   6.263   3.512  15.582 -0.0756  0.2994 -0.3003
 2031TIP3    H127584   6.352   3.522  15.550  0.1819 -0.5360  0.1138
 2031TIP3    H227585   6.269   3.443  15.649 -0.7675  1.2702  0.7974
 2032TIP3   OH227586   6.610   5.723   3.328  0.6674 -0.0745  0.2735
 2032TIP3    H127587   6.566   5.672   3.395 -1.3451  0.8519 -0.2495
 2032TIP3    H227588   6.695   5.681   3.317 -0.4207 -2.5745  0.6893
 2033TIP3   OH227589   4.032   3.004  16.150 -0.2178 -0.0721  0.6802
 2033TIP3    H127590   4.020   3.056  16.229  0.8387  2.7278 -0.8297
 2033TIP3    H227591   3.966   3.037  16.089 -1.6058 -2.7934  0.5962
 2034TIP3   OH227592   4.123   3.500  14.451  0.4724  0.0143  0.4181
 2034TIP3    H127593   4.159   3.583  14.421  0.1479 -0.4695 -1.4500
 2034TIP3    H227594   4.044   3.524  14.500 -1.8965  0.8057 -3.3482
 2035TIP3   OH227595   6.395   2.497   5.857  0.0170  0.2308  0.4111
 2035TIP3    H127596   6.365   2.468   5.943  1.7170 -1.0726  0.6000
 2035TIP3    H227597   6.393   2.418   5.803  0.3298  0.7452 -0.3701
 2036TIP3   OH227598   1.869   4.666  14.366 -0.3447  0.2542 -0.7283
 2036TIP3    H127599   1.894   4.735  14.428  0.2434 -0.1135 -0.5466
 2036TIP3    H227600   1.896   4.700  14.281  0.7480 -0.1103 -0.5409
 2037TIP3   OH227601   3.610   3.490   5.023 -0.3355 -0.7644 -0.4763
 2037TIP3    H127602   3.523   3.482   4.983  0.9124 -1.1310 -3.3801
 2037TIP3    H227603   3.640   3.577   4.999 -0.5751  0.1299  2.1741
 2038TIP3   OH227604   3.900   0.229  12.723  0.4124 -0.1179  0.2842
 2038TIP3    H127605   3.893   0.248  12.629 -0.1095  1.1846  0.5774
 2038TIP3    H227606   3.810   0.210  12.750  0.3140  1.0712  0.8347
 2039TIP3   OH227607   1.951   0.876  11.043  0.1106  0.2961  0.2495
 2039TIP3    H127608   1.954   0.955  11.097  0.7298  0.3607  0.1276
 2039TIP3    H227609   1.858   0.865  11.020 -0.0476  0.6834  0.7103
 2040TIP3   OH227610   2.453   6.489  14.073  0.1122  0.5209  0.2632
 2040TIP3    H127611   2.539   6.500  14.034  0.1403 -2.1175 -0.6039
 2040TIP3    H227612   2.399   6.453  14.003 -1.6942  2.0092  0.8168
 2041TIP3   OH227613   6.534   3.933   2.436 -0.2941  0.2225 -0.1218
 2041TIP3    H127614   6.561   3.986   2.360  2.3217 -1.2288 -0.2996
 2041TIP3    H227615   6.543   3.992   2.511  2.8245  0.0835 -0.2810
 2042TIP3   OH227616   0.829   4.803  15.406  0.1481 -0.0448  0.3329
 2042TIP3    H127617   0.854   4.881  15.454  1.0843  0.0363 -0.2723
 2042TIP3    H227618   0.912   4.762  15.382 -0.2997 -1.8176  1.5663
 2043TIP3   OH227619   6.151   6.701  11.446 -0.0818  0.1889 -0.0393
 2043TIP3    H127620   6.093   6.629  11.469 -1.1464  1.1731  0.4575
 2043TIP3    H227621   6.140   6.764  11.518 -2.0036  2.4975 -2.1674
 2044TIP3   OH227622   5.996   2.332  13.452 -0.4379 -0.1761 -0.5367
 2044TIP3    H127623   5.986   2.368  13.541  0.2107 -0.4998 -0.3281
 2044TIP3    H227624   6.018   2.240  13.466 -2.6244 -0.8431 -1.0826
 2045TIP3   OH227625   1.563   4.922  11.476  0.8373 -0.0913  0.0661
 2045TIP3    H127626   1.495   4.883  11.531  0.7093  0.3340  0.2151
 2045TIP3    H227627   1.588   5.002  11.522 -0.2185  0.9775 -1.1582
 2046TIP3   OH227628   5.126   6.009   5.193 -0.0823 -0.4749 -0.1557
 2046TIP3    H127629   5.137   6.076   5.125  0.8473  1.1182  1.4950
 2046TIP3    H227630   5.049   6.037   5.242  0.4708 -0.4454  0.7199
 2047TIP3   OH227631   5.144   5.993   5.799  0.2321 -0.6028  0.1555
 2047TIP3    H127632   5.234   6.024   5.789 -0.6085  2.3815  0.5891
 2047TIP3    H227633   5.120   6.015   5.889 -1.6914  1.2283 -0.6988
 2048TIP3   OH227634   6.154   3.847  16.683  0.4769  0.3623  0.2577
 2048TIP3    H127635   6.235   3.800  16.700  0.0992 -0.3188  0.2447
 2048TIP3    H227636   6.085   3.785  16.710 -0.0249  1.1504  0.8510
 2049TIP3   OH227637   5.462   1.755  13.136  0.3445 -0.9081  0.2942
 2049TIP3    H127638   5.520   1.686  13.104  2.5519  0.8630  0.1871
 2049TIP3    H227639   5.496   1.777  13.223  2.0261  2.2880 -0.9881
 2050TIP3   OH227640   6.030   2.309  10.910 -0.1423 -0.0105  0.2347
 2050TIP3    H127641   6.085   2.317  10.832 -0.5000 -1.0910 -0.1473
 2050TIP3    H227642   6.080   2.250  10.967 -1.2696 -1.7175 -0.4817
 2051TIP3   OH227643   1.253   2.767  11.975 -0.1648 -0.1815 -0.1709
 2051TIP3    H127644   1.203   2.766  12.057 -0.0111  0.9025 -0.0437
 2051TIP3    H227645   1.306   2.847  11.981 -0.8009  0.3887 -1.7076
 2052TIP3   OH227646   3.907   1.388   4.525 -0.0072  0.1490  0.2055
 2052TIP3    H127647   3.951   1.471   4.545  2.2217 -1.0493  0.5168
 2052TIP3    H227648   3.958   1.350   4.454 -0.6076 -1.2595  0.4953
 2053TIP3   OH227649   3.180   0.979   1.244  0.6006 -0.2065  0.2148
 2053TIP3    H127650   3.100   0.984   1.192  0.5933 -3.1716 -0.2126
 2053TIP3    H227651   3.178   1.058   1.299 -2.3829  0.0175 -0.0792
 2054TIP3   OH227652   5.301   1.262   2.111  0.7115 -0.1596  0.0708
 2054TIP3    H127653   5.271   1.326   2.175  0.8838  0.9883 -0.9594
 2054TIP3    H227654   5.312   1.312   2.030  1.7185 -1.3139 -0.5419
 2055TIP3   OH227655   4.455   6.810  16.623  0.1495  0.5089  0.3771
 2055TIP3    H127656   4.436   6.717  16.634  0.2366  0.3987 -0.3676
 2055TIP3    H227657   4.370   6.853  16.635 -0.3766  0.1264 -1.6227
 2056TIP3   OH227658   5.179   4.948  16.693  0.4067  0.3120 -0.5883
 2056TIP3    H127659   5.142   5.005  16.625  0.6295  0.8309 -0.2783
 2056TIP3    H227660   5.259   4.993  16.721 -1.2863  1.8383  2.3175
 2057TIP3   OH227661   0.731   2.643   3.184 -0.5558 -0.5910 -0.1445
 2057TIP3    H127662   0.700   2.733   3.178  2.2801  0.4654 -0.5020
 2057TIP3    H227663   0.747   2.630   3.278  0.3328 -0.2056 -0.2330
 2058TIP3   OH227664   0.333   6.276  14.388  0.4622  0.4534  0.4291
 2058TIP3    H127665   0.333   6.199  14.332  2.5868 -0.1623  1.1603
 2058TIP3    H227666   0.363   6.347  14.331  2.1182 -0.0642  0.6055
 2059TIP3   OH227667   0.663   2.088  16.713  0.4110 -0.4150 -0.0078
 2059TIP3    H127668   0.575   2.050  16.710  0.8694 -1.5604  0.3683
 2059TIP3    H227669   0.655   2.171  16.665 -0.3548 -1.5631 -2.0114
 2060TIP3   OH227670   1.117   1.295   0.833 -0.0760  0.5971 -0.0568
 2060TIP3    H127671   1.124   1.290   0.928  2.2127  0.7827 -0.1537
 2060TIP3    H227672   1.051   1.362   0.817 -1.4531 -0.3425  1.3534
 2061TIP3   OH227673   5.885   5.626  14.091  0.6070 -0.1832  0.4932
 2061TIP3    H127674   5.895   5.557  14.157  1.4436 -1.7935 -1.2468
 2061TIP3    H227675   5.794   5.619  14.063  0.0132  1.0324  1.9596
 2062TIP3   OH227676   1.229   4.283  13.602  0.5148 -0.3163  0.0013
 2062TIP3    H127677   1.229   4.327  13.517 -0.2218  1.8882  1.0652
 2062TIP3    H227678   1.321   4.281  13.628  0.6494 -0.1825 -0.4517
 2063TIP3   OH227679   2.803   4.232  11.230  0.3465  0.1918  0.3629
 2063TIP3    H127680   2.738   4.295  11.198 -0.2309 -0.8552 -0.5843
 2063TIP3    H227681   2.756   4.150  11.238  0.8810  0.0030  2.3866
 2064TIP3   OH227682   5.754   5.238  12.527  0.2896  0.0100 -0.2538
 2064TIP3    H127683   5.724   5.312  12.580  0.3213 -0.4003  0.3584
 2064TIP3    H227684   5.676   5.209  12.480  0.0879 -0.0778  0.1311
 2065TIP3   OH227685   6.020   6.092   2.625 -0.3108  0.3009 -0.1134
 2065TIP3    H127686   6.059   6.168   2.669  1.7347 -1.9990  2.3882
 2065TIP3    H227687   5.940   6.075   2.674 -0.8954  0.9462 -0.8278
 2066TIP3   OH227688   4.184   6.349  11.525 -0.8232  0.3741 -0.1710
 2066TIP3    H127689   4.120   6.383  11.588 -1.1228  0.2319 -0.3980
 2066TIP3    H227690   4.132   6.318  11.451 -0.6901 -1.9484  0.6350
 2067TIP3   OH227691   6.370   5.380   0.624 -0.2527 -0.1064 -0.1830
 2067TIP3    H127692   6.406   5.422   0.703  0.3591 -2.3191  0.8055
 2067TIP3    H227693   6.366   5.287   0.647  1.1186 -1.0181 -3.2130
 2068TIP3   OH227694   1.097   0.540   0.954  0.4456  0.0465 -0.0739
 2068TIP3    H127695   1.147   0.533   1.035 -0.1564 -1.0515  0.2139
 2068TIP3    H227696   1.093   0.634   0.936  1.1951  0.2459  0.7800
 2069TIP3   OH227697   1.547   4.553  11.427  0.6154 -0.1602 -0.0095
 2069TIP3    H127698   1.579   4.560  11.517 -0.5041 -0.5778  0.4345
 2069TIP3    H227699   1.546   4.459  11.408  2.7852 -0.0061 -1.2069
 2070TIP3   OH227700   2.292   1.927  11.398 -0.2591 -0.3746  0.5157
 2070TIP3    H127701   2.355   1.861  11.368 -2.1228 -2.3467  0.7474
 2070TIP3    H227702   2.264   1.971  11.318  2.5513  1.7597  0.5324
 2071TIP3   OH227703   4.032   4.648  16.591  0.3261 -0.4786  0.3134
 2071TIP3    H127704   3.949   4.664  16.636  1.1413  1.1823  1.3458
 2071TIP3    H227705   4.099   4.663  16.659  1.6159  2.2462 -1.3919
 2072TIP3   OH227706   3.064   1.712  14.501 -0.2423 -0.2152  0.5814
 2072TIP3    H127707   3.112   1.794  14.499  3.6219 -2.2102  1.4971
 2072TIP3    H227708   3.062   1.687  14.594 -2.1018 -0.8371  0.4323
 2073TIP3   OH227709   1.711   4.768  12.911 -0.3724  0.6871 -0.1386
 2073TIP3    H127710   1.617   4.780  12.917 -0.3716  0.6900 -0.1310
 2073TIP3    H227711   1.748   4.856  12.925 -0.3901  0.7931 -0.7308
 2074TIP3   OH227712   3.603   2.188   3.360 -0.4278 -0.5235  0.2306
 2074TIP3    H127713   3.684   2.196   3.410 -0.0155 -2.1283 -0.1220
 2074TIP3    H227714   3.598   2.096   3.338 -1.3920 -0.1168 -1.3816
 2075TIP3   OH227715   2.883   4.821  15.057 -0.5036 -0.3439  0.3685
 2075TIP3    H127716   2.925   4.746  15.100  3.1822  1.2642 -0.0487
 2075TIP3    H227717   2.893   4.893  15.119 -0.9495  0.5729 -0.5917
 2076TIP3   OH227718   0.100   1.061   0.271 -0.1498  0.0746  0.0680
 2076TIP3    H127719   0.115   1.036   0.362  0.3611  0.3362  0.0569
 2076TIP3    H227720   0.062   0.983   0.231 -0.9658  0.1524  0.6527
 2077TIP3   OH227721   0.723   4.427  14.694 -0.5813  0.2358 -0.4600
 2077TIP3    H127722   0.736   4.338  14.662  0.0387 -0.3704  1.3767
 2077TIP3    H227723   0.811   4.458  14.716 -1.0393  0.2874  1.4546
 2078TIP3   OH227724   3.971   1.754  16.530 -0.3807 -0.6210 -0.1365
 2078TIP3    H127725   3.937   1.842  16.549 -1.1493 -0.8026 -0.6064
 2078TIP3    H227726   3.919   1.725  16.455 -2.3500 -2.7413  1.9216
 2079TIP3   OH227727   1.503   2.181   2.659 -0.4606  0.3865 -0.0925
 2079TIP3    H127728   1.451   2.126   2.600  1.3414 -3.5673  1.6517
 2079TIP3    H227729   1.474   2.156   2.747  2.2387  0.1881  0.8342
 2080TIP3   OH227730   3.077   2.776  10.389  0.0503 -0.2717  0.0193
 2080TIP3    H127731   2.998   2.753  10.340 -0.1500  0.3885  0.0320
 2080TIP3    H227732   3.051   2.849  10.444 -0.1879 -1.9512  2.3058
 2081TIP3   OH227733   4.024   2.093  13.662  0.1513 -0.2490 -0.2622
 2081TIP3    H127734   4.091   2.146  13.706  1.6226  1.6014 -4.2435
 2081TIP3    H227735   3.944   2.144  13.671  0.4459  0.1535  0.1802
 2082TIP3   OH227736   3.866   2.091   5.007  0.3580  0.5958 -0.4060
 2082TIP3    H127737   3.828   2.006   4.984  0.3981  0.6872 -0.8063
 2082TIP3    H227738   3.794   2.153   4.996  0.2911  0.5980  0.0196
 2083TIP3   OH227739   1.127   2.655  11.533  0.4152 -0.0640  0.4051
 2083TIP3    H127740   1.072   2.721  11.575  1.8943  1.7363 -0.3057
 2083TIP3    H227741   1.160   2.602  11.605 -1.0511 -0.2613  0.9692
 2084TIP3   OH227742   4.500   2.585  16.164 -0.3837 -0.1831  0.5994
 2084TIP3    H127743   4.410   2.603  16.135  0.3609 -0.3116 -2.0472
 2084TIP3    H227744   4.536   2.671  16.186 -0.4315  0.2090 -0.7480
 2085TIP3   OH227745   5.116   5.419  16.043 -0.5039 -0.2137  0.3988
 2085TIP3    H127746   5.042   5.410  15.983 -0.1339 -0.0926 -0.0864
 2085TIP3    H227747   5.187   5.371  16.001 -0.4272 -0.7078  1.0765
 2086TIP3   OH227748   4.540   4.865  11.742  0.0544  0.1024  0.6573
 2086TIP3    H127749   4.448   4.884  11.759 -0.2366  0.1793 -0.9099
 2086TIP3    H227750   4.578   4.950  11.720 -0.0915 -0.2612 -1.1798
 2087TIP3   OH227751   0.475   0.673   6.316 -0.1672 -0.2865 -0.5418
 2087TIP3    H127752   0.431   0.651   6.398  1.6194  1.1506  0.9075
 2087TIP3    H227753   0.523   0.594   6.292  0.2164 -0.3776  0.4768
 2088TIP3   OH227754   2.000   0.658   4.496 -0.4367  0.5490 -0.1527
 2088TIP3    H127755   2.066   0.656   4.566 -0.4970 -2.1437 -0.0395
 2088TIP3    H227756   1.925   0.704   4.534 -0.0402  0.1604  1.1526
 2089TIP3   OH227757   2.004   3.764   2.469 -0.2184 -0.1414 -0.2275
 2089TIP3    H127758   2.022   3.843   2.418  0.5082  0.4696  0.9325
 2089TIP3    H227759   2.075   3.704   2.447  0.4813  0.3801  0.5641
 2090TIP3   OH227760   0.799   6.001   4.929 -0.0211  0.7215 -0.0439
 2090TIP3    H127761   0.709   6.014   4.900 -0.3777 -0.8950  0.2681
 2090TIP3    H227762   0.811   6.064   5.000 -0.5251  1.7044 -0.7913
 2091TIP3   OH227763   1.441   3.158  14.393 -0.4540 -0.4857 -0.1711
 2091TIP3    H127764   1.427   3.164  14.488 -0.9453 -0.7266 -0.2249
 2091TIP3    H227765   1.353   3.157  14.356 -0.2583  1.3607 -0.7610
 2092TIP3   OH227766   1.374   0.007  14.896  0.7656 -0.2254 -0.0284
 2092TIP3    H127767   1.442   0.057  14.849  0.7523  0.8148  1.0192
 2092TIP3    H227768   1.398  -0.085  14.881  2.7764  0.1102  0.8064
 2093TIP3   OH227769   2.361   5.277  10.983  0.2765 -0.0185  0.1230
 2093TIP3    H127770   2.424   5.214  10.948  1.2270  0.4121  1.0211
 2093TIP3    H227771   2.411   5.329  11.046 -0.8388  0.7131  0.4318
 2094TIP3   OH227772   4.035   4.526   0.781  0.1802  0.1997  0.6577
 2094TIP3    H127773   4.024   4.605   0.728  0.6353  0.2029  0.5692
 2094TIP3    H227774   3.952   4.518   0.828  0.3300  1.0533  1.0915
 2095TIP3   OH227775   2.663   2.908  13.595  0.0887 -0.2941  0.2461
 2095TIP3    H127776   2.570   2.888  13.596  0.2148 -1.6180 -2.5528
 2095TIP3    H227777   2.702   2.844  13.654 -0.6162 -1.0358 -0.0718
 2096TIP3   OH227778   2.330   2.688   5.080 -0.2320  0.4334 -0.1000
 2096TIP3    H127779   2.394   2.757   5.065  0.1841  0.1077  0.1714
 2096TIP3    H227780   2.321   2.645   4.995  0.7391 -0.2254  0.1138
 2097TIP3   OH227781   4.379   2.773   3.923 -0.4449  0.2681  0.6651
 2097TIP3    H127782   4.428   2.721   3.986 -0.3347  1.2261  1.4012
 2097TIP3    H227783   4.430   2.767   3.842  0.1578  0.1360  1.0484
 2098TIP3   OH227784   3.186   5.581  15.461 -0.1385  0.1673 -0.2931
 2098TIP3    H127785   3.254   5.516  15.445  0.4009  0.4546  0.7352
 2098TIP3    H227786   3.234   5.662  15.478 -0.6142  0.0102  2.1836
 2099TIP3   OH227787   5.315   6.544   2.147 -0.4931  0.4810  0.5811
 2099TIP3    H127788   5.382   6.527   2.081  0.3090 -1.4087  1.7738
 2099TIP3    H227789   5.336   6.631   2.180  1.0788  0.1601  0.5275
 2100TIP3   OH227790   4.734   0.578   5.146  0.2524  0.2849 -0.4099
 2100TIP3    H127791   4.732   0.663   5.103  0.5648  0.6976  0.3667
 2100TIP3    H227792   4.644   0.564   5.176  0.3555  0.6955  0.1132
 2101TIP3   OH227793   4.135   3.162   6.062 -0.0927 -0.5680 -0.1197
 2101TIP3    H127794   4.123   3.255   6.080 -0.0729 -0.8817  1.7239
 2101TIP3    H227795   4.228   3.147   6.077 -0.0578 -0.8474 -0.6138
 2102TIP3   OH227796   4.275   2.219  16.614 -0.2329  0.3925  0.1322
 2102TIP3    H127797   4.244   2.157  16.549  0.8021 -0.9636  0.8671
 2102TIP3    H227798   4.347   2.266  16.571  1.8108 -1.8855  0.8012
 2103TIP3   OH227799   3.472   3.570  13.275  0.2203  0.4446  0.3113
 2103TIP3    H127800   3.564   3.551  13.295 -0.0058 -0.7177  0.2958
 2103TIP3    H227801   3.442   3.620  13.351  0.6055 -0.0207  0.7866
 2104TIP3   OH227802   3.812   3.241  11.971  0.5584  0.5351  0.5099
 2104TIP3    H127803   3.891   3.217  12.019  1.7746  2.6267 -0.2969
 2104TIP3    H227804   3.837   3.235  11.878 -0.4634  0.5032  0.2221
 2105TIP3   OH227805   2.922   2.125   3.571 -0.7096 -0.1774 -0.1974
 2105TIP3    H127806   2.947   2.099   3.660 -0.5830 -1.0714 -0.4887
 2105TIP3    H227807   2.922   2.221   3.574 -0.7692 -0.1939  0.7828
 2106TIP3   OH227808   2.272   6.021   0.932 -0.2733  0.0721 -0.1092
 2106TIP3    H127809   2.281   5.928   0.952 -2.1973  0.3786  2.8357
 2106TIP3    H227810   2.352   6.043   0.884  0.9431 -2.7729  0.4149
 2107TIP3   OH227811   5.594   0.887  12.676  0.5012  0.7002 -0.6296
 2107TIP3    H127812   5.681   0.915  12.649  1.2164 -1.4506 -0.7489
 2107TIP3    H227813   5.579   0.932  12.760  3.2602 -1.4781  1.2048
 2108TIP3   OH227814   1.652   3.997  11.225  0.5887  0.2873  0.2632
 2108TIP3    H127815   1.722   3.982  11.162  0.1061 -1.2355  0.0456
 2108TIP3    H227816   1.682   3.952  11.305  0.5097  0.8861  0.6372
 2109TIP3   OH227817   4.785   0.631   0.954 -0.8555  0.5053  0.5455
 2109TIP3    H127818   4.845   0.680   1.011 -0.2397 -1.2747  1.5105
 2109TIP3    H227819   4.784   0.681   0.872  1.6103  0.8639  0.6470
 2110TIP3   OH227820   5.439   3.544   3.650 -0.4876  0.0362 -0.0707
 2110TIP3    H127821   5.442   3.454   3.617  0.8110  0.5885 -1.6363
 2110TIP3    H227822   5.504   3.546   3.721 -0.8615 -0.3673  0.2847
 2111TIP3   OH227823   3.254   2.043   0.330  0.0567 -0.1300  0.0662
 2111TIP3    H127824   3.274   2.131   0.298 -0.6514 -0.3432 -1.0056
 2111TIP3    H227825   3.158   2.038   0.329  0.0903 -1.4776 -1.5664
 2112TIP3   OH227826   3.155   3.964  16.235  0.6328 -0.3914 -0.3690
 2112TIP3    H127827   3.094   4.026  16.197 -2.0781 -3.8265 -2.1570
 2112TIP3    H227828   3.241   3.993  16.205 -0.1825  3.3990  0.4486
 2113TIP3   OH227829   1.110   6.472   4.206 -0.2730  0.4959  0.2014
 2113TIP3    H127830   1.078   6.446   4.293  0.9647 -0.3245  0.4579
 2113TIP3    H227831   1.201   6.499   4.222  0.4366 -1.0030 -1.0164
 2114TIP3   OH227832   1.122   4.212  11.092 -0.1536  0.2518  0.3161
 2114TIP3    H127833   1.045   4.267  11.105  0.8464  2.4927 -2.1614
 2114TIP3    H227834   1.089   4.132  11.051 -1.2149  1.1117 -0.5519
 2115TIP3   OH227835   1.160   4.045  14.972  0.0662 -0.2295 -0.1542
 2115TIP3    H127836   1.255   4.049  14.976  0.2607 -2.8117 -0.5148
 2115TIP3    H227837   1.135   3.991  15.047 -1.0104 -0.4508 -0.6564
 2116TIP3   OH227838   6.599   4.677  11.685 -0.1783 -0.1189 -0.3427
 2116TIP3    H127839   6.651   4.597  11.693  0.9263  0.5842 -0.3295
 2116TIP3    H227840   6.599   4.695  11.591  1.2837  0.9519 -0.1605
 2117TIP3   OH227841   0.380   0.385   4.754  0.0325  0.1576  0.1372
 2117TIP3    H127842   0.405   0.472   4.722  1.0205  0.1189  0.7737
 2117TIP3    H227843   0.433   0.324   4.703 -0.8866 -0.1110 -0.5326
 2118TIP3   OH227844   5.139   2.775  14.004 -0.1416 -0.6460  0.1788
 2118TIP3    H127845   5.214   2.726  13.973 -1.3111 -2.8900  0.6666
 2118TIP3    H227846   5.077   2.708  14.034 -1.3952  1.1757  1.9640
 2119TIP3   OH227847   5.024   3.048  16.395  0.2213 -0.1505  0.2494
 2119TIP3    H127848   5.016   3.112  16.324 -0.4347 -2.0153 -1.4640
 2119TIP3    H227849   5.114   3.015  16.387 -0.7033 -2.4976 -1.7871
 2120TIP3   OH227850   0.204   2.716  16.376 -0.0444 -0.0524 -0.9271
 2120TIP3    H127851   0.285   2.741  16.331 -0.2888  1.7093 -0.4585
 2120TIP3    H227852   0.222   2.733  16.469 -0.4765 -1.0378 -0.6474
 2121TIP3   OH227853   2.076   6.221  12.312  0.1988  0.3704  0.0618
 2121TIP3    H127854   2.135   6.146  12.324 -0.7040 -0.1568  1.5164
 2121TIP3    H227855   2.075   6.264  12.398  1.1308  2.4124 -0.8873
 2122TIP3   OH227856   6.567   0.527   3.152  0.4121 -0.4053  0.4532
 2122TIP3    H127857   6.567   0.514   3.057  1.4325 -2.0425  0.6368
 2122TIP3    H227858   6.561   0.438   3.188  0.4443  0.1654  1.9263
 2123TIP3   OH227859   3.797   4.568  17.117  0.2156 -0.2855  0.0867
 2123TIP3    H127860   3.789   4.511  17.194  1.1492 -0.1738  0.2770
 2123TIP3    H227861   3.849   4.517  17.055  0.8715  0.2600  0.1742
 2124TIP3   OH227862   5.699   4.035   0.812  0.0424 -0.1076  0.1855
 2124TIP3    H127863   5.777   4.058   0.863 -1.0910  4.1749  0.4249
 2124TIP3    H227864   5.731   4.023   0.723  1.1241  0.6868  0.4453
 2125TIP3   OH227865   6.752   3.856  11.590 -0.4605 -0.0449  0.3507
 2125TIP3    H127866   6.707   3.785  11.637 -1.8467  1.5094  1.5153
 2125TIP3    H227867   6.719   3.850  11.500  1.4392 -2.4227 -0.3015
 2126TIP3   OH227868   0.841   2.023   4.422  0.0434  0.4931 -0.2978
 2126TIP3    H127869   0.747   2.017   4.437  0.2042  1.3749  1.3403
 2126TIP3    H227870   0.851   2.096   4.361 -0.2634  1.6916  1.0234
 2127TIP3   OH227871   4.583   1.874  14.565  0.2459  0.3855  0.2070
 2127TIP3    H127872   4.545   1.874  14.477 -0.3498 -0.9773  0.4392
 2127TIP3    H227873   4.580   1.966  14.592  0.6649  0.8561 -1.2778
 2128TIP3   OH227874   1.492   2.072   3.439  0.6775 -0.3826 -0.6525
 2128TIP3    H127875   1.512   2.139   3.373 -0.7431  1.4574  0.6712
 2128TIP3    H227876   1.577   2.034   3.461  1.6828  1.6200 -0.8532
 2129TIP3   OH227877   3.876   6.140   3.749 -0.3111  0.2943 -0.0798
 2129TIP3    H127878   3.801   6.163   3.804  1.1763  1.8562  1.4060
 2129TIP3    H227879   3.898   6.221   3.703  1.3408  0.2799  0.6264
 2130TIP3   OH227880   6.457   4.466  16.688 -0.0510  0.1389  0.2878
 2130TIP3    H127881   6.537   4.459  16.636 -0.6699  1.2678 -0.8497
 2130TIP3    H227882   6.461   4.391  16.748  1.2920 -0.4738 -0.5319
 2131TIP3   OH227883   4.973   1.091   0.038 -0.3658  0.1982  0.4368
 2131TIP3    H127884   4.926   1.071   0.118 -0.8821 -0.5839 -0.0467
 2131TIP3    H227885   4.922   1.048  -0.031  1.5134 -1.4151 -0.0290
 2132TIP3   OH227886   5.920   5.960   1.463 -0.0328 -0.5586  0.1785
 2132TIP3    H127887   5.970   5.896   1.413  1.8173 -1.6109  3.1496
 2132TIP3    H227888   5.983   6.028   1.487 -1.0531  0.3452  0.4368
 2133TIP3   OH227889   1.750   0.489   2.845 -0.3334 -0.0780  0.0229
 2133TIP3    H127890   1.810   0.466   2.775  1.7666 -0.6438  1.9103
 2133TIP3    H227891   1.663   0.472   2.808  0.7313 -1.5841 -1.9812
 2134TIP3   OH227892   1.490   5.894   4.279 -0.7032 -0.3299  0.3332
 2134TIP3    H127893   1.421   5.916   4.217  1.2548  2.0636 -1.2067
 2134TIP3    H227894   1.551   5.840   4.229 -0.6140 -0.9676  1.1258
 2135TIP3   OH227895   4.769   2.248  15.288  0.2141 -0.6897  0.0381
 2135TIP3    H127896   4.783   2.205  15.372 -0.5481  1.0392  1.0983
 2135TIP3    H227897   4.674   2.257  15.281  0.1305 -2.2287 -1.8004
 2136TIP3   OH227898   4.678   5.861  17.166 -0.0766  0.1887 -0.1734
 2136TIP3    H127899   4.611   5.898  17.109 -1.1312 -0.4901  0.5935
 2136TIP3    H227900   4.683   5.769  17.139 -0.2584 -0.0259  0.5081
 2137TIP3   OH227901   3.826   3.232  16.698  0.4286  0.2865 -0.3252
 2137TIP3    H127902   3.822   3.325  16.678 -0.7780  0.4353  0.5165
 2137TIP3    H227903   3.881   3.226  16.776  0.1623  0.3481 -0.1307
 2138TIP3   OH227904   0.578   4.421   4.580  0.4078  0.2298  0.1263
 2138TIP3    H127905   0.609   4.334   4.603 -0.8844 -0.4886 -0.7255
 2138TIP3    H227906   0.521   4.446   4.652  0.8919  0.4526  0.4411
 2139TIP3   OH227907   4.455   3.324   1.513  0.6718 -0.8492 -0.0313
 2139TIP3    H127908   4.483   3.408   1.549 -0.1584  0.0112 -1.3183
 2139TIP3    H227909   4.521   3.262   1.543  2.5561  0.6495 -0.8939
 2140TIP3   OH227910   2.272   0.963  15.502  0.0922  0.4719  0.1824
 2140TIP3    H127911   2.237   1.000  15.421 -0.5364 -1.0624 -0.3022
 2140TIP3    H227912   2.366   0.974  15.496  0.0970 -0.0569 -1.0156
 2141TIP3   OH227913   0.252   3.003  13.045  0.3026 -0.0805 -0.6259
 2141TIP3    H127914   0.250   2.908  13.029  0.6692 -0.0065 -1.1703
 2141TIP3    H227915   0.190   3.017  13.116  0.1932 -0.7231 -0.5855
 2142TIP3   OH227916   4.533   0.561  12.342 -0.2461 -0.3511 -0.2243
 2142TIP3    H127917   4.466   0.503  12.377 -0.0494 -0.4353  0.0155
 2142TIP3    H227918   4.614   0.535  12.387 -0.1282  0.0053 -0.2252
 2143TIP3   OH227919   5.000   4.420   2.459 -0.1538  0.2277 -0.3881
 2143TIP3    H127920   4.990   4.446   2.368 -0.1572  1.1538 -0.1372
 2143TIP3    H227921   4.926   4.460   2.504 -0.3823 -0.5662 -0.0387
 2144TIP3   OH227922   5.157   4.155   1.616  0.8600 -0.1744 -0.2047
 2144TIP3    H127923   5.146   4.176   1.708  0.2403  1.4106 -0.6031
 2144TIP3    H227924   5.082   4.195   1.573  1.6714  0.0020 -1.5228
 2145TIP3   OH227925   3.809   6.554  16.604  0.1269 -0.1981 -0.6606
 2145TIP3    H127926   3.841   6.596  16.525  0.5703 -1.0910 -0.9741
 2145TIP3    H227927   3.756   6.621  16.648  0.8947  0.6997 -1.0803
 2146TIP3   OH227928   3.122   6.216   3.558 -0.3588 -0.1250 -0.2542
 2146TIP3    H127929   3.028   6.214   3.578 -0.1961 -0.6987  0.4923
 2146TIP3    H227930   3.163   6.250   3.637  0.2161 -1.4955  0.0570
 2147TIP3   OH227931   0.314   3.701   5.100 -0.4269  0.0286  0.2293
 2147TIP3    H127932   0.288   3.616   5.065 -1.6794  0.7877 -0.8270
 2147TIP3    H227933   0.363   3.743   5.029 -1.9921  1.1362 -0.2636
 2148TIP3   OH227934   5.655   6.667   1.402 -0.2653 -0.0056 -0.1146
 2148TIP3    H127935   5.628   6.749   1.443  1.2296  1.1040 -1.2758
 2148TIP3    H227936   5.727   6.635   1.456 -0.9383 -0.6710  0.4220
 2149TIP3   OH227937   3.171   6.263   2.385 -0.1316  0.0001  0.0041
 2149TIP3    H127938   3.170   6.266   2.289  0.6813 -1.4797 -0.0761
 2149TIP3    H227939   3.078   6.257   2.409 -0.2843 -2.9778 -0.8959
 2150TIP3   OH227940   4.410   2.128   2.550 -0.1722 -0.0285 -0.2905
 2150TIP3    H127941   4.348   2.102   2.619  0.8478 -0.1085  0.6219
 2150TIP3    H227942   4.494   2.136   2.595  0.5634 -0.2728 -1.5754
 2151TIP3   OH227943   0.855   0.614  11.312  0.0369  0.1136  0.5907
 2151TIP3    H127944   0.781   0.674  11.327  0.5680  0.9895 -0.1718
 2151TIP3    H227945   0.818   0.527  11.323 -0.4355  0.5491  3.3073
 2152TIP3   OH227946   4.973   5.760  11.471  0.2356 -0.0898  0.5208
 2152TIP3    H127947   4.906   5.693  11.457  1.3407 -1.4178  1.3382
 2152TIP3    H227948   5.019   5.766  11.387  0.5695 -0.8490  0.6513
 2153TIP3   OH227949   2.158   5.188   2.941  0.0978 -0.1950 -0.5679
 2153TIP3    H127950   2.102   5.213   2.867 -0.8277 -0.8799 -0.1212
 2153TIP3    H227951   2.114   5.224   3.018  0.6753 -0.0938 -0.2813
 2154TIP3   OH227952   0.392   1.674   6.248 -1.1419  0.2665  0.3714
 2154TIP3    H127953   0.301   1.644   6.258 -0.8963 -1.1541 -1.1207
 2154TIP3    H227954   0.425   1.680   6.338 -2.1618 -1.0511  0.8705
 2155TIP3   OH227955   1.804   1.584  15.935  0.0068  0.2299 -0.5056
 2155TIP3    H127956   1.816   1.655  15.998  0.5569 -2.2848  2.4795
 2155TIP3    H227957   1.740   1.526  15.976  2.5298 -3.0109 -0.7526
 2156TIP3   OH227958   0.196   5.874  13.211  0.6199  0.0357 -0.5273
 2156TIP3    H127959   0.263   5.837  13.269 -0.8166 -0.7113  0.7016
 2156TIP3    H227960   0.182   5.806  13.144  0.6915 -0.0355 -0.4702
 2157TIP3   OH227961   0.731   3.195  10.702 -0.1680 -0.6865  0.0445
 2157TIP3    H127962   0.737   3.101  10.686 -0.9481 -1.1107  2.0049
 2157TIP3    H227963   0.640   3.210  10.727  0.1235  0.4645  0.5177
 2158TIP3   OH227964   3.248   0.488  14.793 -0.3071  0.0579  0.4460
 2158TIP3    H127965   3.223   0.580  14.803 -1.8691 -0.1507 -1.0553
 2158TIP3    H227966   3.287   0.483  14.705 -0.9719 -0.8430  0.1883
 2159TIP3   OH227967   4.711   3.372  15.562 -0.0813  0.3043 -0.1054
 2159TIP3    H127968   4.802   3.403  15.564 -0.5393  1.7030 -0.2333
 2159TIP3    H227969   4.711   3.294  15.618  1.1872  0.2957 -0.0946
 2160TIP3   OH227970   2.808   6.400   0.986  0.6449  0.1406 -0.7406
 2160TIP3    H127971   2.809   6.459   1.061  0.8095 -2.2692  1.2716
 2160TIP3    H227972   2.715   6.386   0.967  0.5834  0.1525 -0.4527
 2161TIP3   OH227973   2.938   3.497  11.697 -0.4160  0.0838  0.3194
 2161TIP3    H127974   2.974   3.531  11.779 -0.6381  1.2535 -0.0454
 2161TIP3    H227975   2.981   3.413  11.685  1.9854  1.2848  0.0469
 2162TIP3   OH227976   4.151   5.679   1.805  0.0709  0.0045 -0.0923
 2162TIP3    H127977   4.227   5.697   1.860  0.2882 -1.7593  0.2481
 2162TIP3    H227978   4.167   5.729   1.724  1.4211 -0.0627  0.1124
 2163TIP3   OH227979   4.775   2.186  16.991 -0.4722  0.1473  0.3325
 2163TIP3    H127980   4.730   2.115  17.037 -0.7416  1.7135  2.6497
 2163TIP3    H227981   4.868   2.162  16.995 -0.3601  0.7858  2.8453
 2164TIP3   OH227982   3.387   6.069   1.037  0.1325  0.1184  0.0001
 2164TIP3    H127983   3.322   6.028   0.979  0.0130  1.1476 -0.6178
 2164TIP3    H227984   3.386   6.161   1.012 -0.4659  0.7448  2.1616
 2165TIP3   OH227985   3.346   5.611   3.672  0.4761 -0.2880  0.1954
 2165TIP3    H127986   3.374   5.699   3.695 -3.3622  2.2037 -3.2165
 2165TIP3    H227987   3.426   5.569   3.639  2.5230  1.6455  2.2877
 2166TIP3   OH227988   1.788   6.140   2.580  0.0696 -0.3123  0.1373
 2166TIP3    H127989   1.856   6.084   2.617 -0.5562  0.4152  2.5973
 2166TIP3    H227990   1.809   6.228   2.612  0.6917  0.8405 -3.1385
 2167TIP3   OH227991   6.452   0.219   2.753  0.0958  0.3282 -0.2124
 2167TIP3    H127992   6.435   0.311   2.731 -0.2985  0.2566 -0.2127
 2167TIP3    H227993   6.385   0.171   2.705 -0.9340  0.1732  1.3281
 2168TIP3   OH227994   4.311   3.444  12.111  0.3063 -0.2622 -0.2190
 2168TIP3    H127995   4.396   3.399  12.105  1.0943  0.9706  1.1098
 2168TIP3    H227996   4.265   3.398  12.181 -0.4239 -1.3364 -1.3582
 2169TIP3   OH227997   3.415   5.425   0.346 -0.4465  0.9849  0.7358
 2169TIP3    H127998   3.483   5.492   0.340  1.8545 -1.2992 -1.1758
 2169TIP3    H227999   3.422   5.392   0.435  1.0196  0.8073  0.5843
 2170TIP3   OH228000   2.622   0.969  16.489  0.3304  0.0295  0.4684
 2170TIP3    H128001   2.618   1.040  16.553 -0.9309 -0.1886  0.6475
 2170TIP3    H228002   2.633   0.890  16.541  1.3224  0.0355  0.2897
 2171TIP3   OH228003   3.813   0.735  13.895  0.3671 -0.6150  0.1853
 2171TIP3    H128004   3.834   0.828  13.892 -0.5286 -0.3523  1.2345
 2171TIP3    H228005   3.873   0.700  13.962 -0.8146 -0.3225  1.4494
 2172TIP3   OH228006   3.995   2.905   0.582  0.6320  0.0676 -0.5642
 2172TIP3    H128007   4.070   2.960   0.602 -0.0395  0.9067 -0.2806
 2172TIP3    H228008   4.019   2.859   0.501  1.3525  0.4938 -0.5936
 2173TIP3   OH228009   1.450   2.789   5.733  0.0730  0.0252  0.2632
 2173TIP3    H128010   1.522   2.732   5.704 -0.4551  0.6505 -2.5916
 2173TIP3    H228011   1.483   2.878   5.719 -1.6206  0.3313 -2.4174
 2174TIP3   OH228012   6.802   3.371  15.621  0.0514  0.1360  0.3994
 2174TIP3    H128013   6.804   3.415  15.706 -0.6102 -0.4613  0.7336
 2174TIP3    H228014   6.825   3.280  15.641  0.2950  0.0822 -0.1216
 2175TIP3   OH228015   0.372   4.014  10.910  0.1585 -0.0818  0.0738
 2175TIP3    H128016   0.459   3.974  10.904  0.1056 -0.1638 -0.1365
 2175TIP3    H228017   0.323   3.978  10.836  0.7432  1.9251 -1.3717
 2176TIP3   OH228018   4.105   4.041   0.697 -0.5098  0.3906  0.4001
 2176TIP3    H128019   4.073   3.969   0.752 -0.1936  0.2750  0.4374
 2176TIP3    H228020   4.118   4.114   0.758  0.1541  0.1636  0.5426
 2177TIP3   OH228021   4.443   3.204   0.650 -0.2907 -0.4935 -0.2113
 2177TIP3    H128022   4.474   3.222   0.561 -1.1715 -1.1875 -0.6825
 2177TIP3    H228023   4.520   3.174   0.697 -0.0154 -1.1492 -1.0528
 2178TIP3   OH228024   2.314   3.140  14.547  0.3108  0.0942 -0.2372
 2178TIP3    H128025   2.346   3.168  14.633  0.3945 -1.2141  0.1799
 2178TIP3    H228026   2.352   3.053  14.534 -0.3415 -0.0585 -1.2531
 2179TIP3   OH228027   4.764   3.141   5.723  0.2750 -0.3560 -0.0474
 2179TIP3    H128028   4.779   3.066   5.779 -0.6927 -1.3727 -1.0830
 2179TIP3    H228029   4.685   3.183   5.759  2.0410  1.5351  1.8673
 2180TIP3   OH228030   5.628   0.672  11.931 -0.3108 -0.2038  0.3970
 2180TIP3    H128031   5.610   0.723  11.852 -2.0356 -0.6883  0.4447
 2180TIP3    H228032   5.722   0.654  11.927 -0.1121  0.9321 -0.8328
 2181TIP3   OH228033   1.839   1.561  13.495 -0.3067  0.5958  0.5003
 2181TIP3    H128034   1.802   1.569  13.407 -2.3558 -2.6377  0.8932
 2181TIP3    H228035   1.922   1.516  13.483 -1.4976 -1.6668  0.2522
 2182TIP3   OH228036   5.697   4.135  12.308 -0.3096 -0.2110  0.3713
 2182TIP3    H128037   5.645   4.144  12.229  2.0621 -0.5018 -1.3481
 2182TIP3    H228038   5.642   4.086  12.368 -2.5117  0.7606 -0.7429
 2183TIP3   OH228039   1.974   5.944   1.432 -0.1073 -0.8571 -0.0173
 2183TIP3    H128040   1.976   5.868   1.490 -0.1596  0.0434  1.2183
 2183TIP3    H228041   1.994   6.018   1.489 -0.5523  0.1207 -1.0841
 2184TIP3   OH228042   4.540   0.744   2.978 -0.1336 -0.4376  0.2940
 2184TIP3    H128043   4.448   0.723   2.991  0.0899 -0.4910  1.9367
 2184TIP3    H228044   4.587   0.688   3.041  1.0805 -0.8691 -0.9375
 2185TIP3   OH228045   2.178   4.721  14.836 -0.4247  0.1798  0.2439
 2185TIP3    H128046   2.120   4.787  14.875  0.1516  0.6513  0.3083
 2185TIP3    H228047   2.214   4.764  14.758 -0.7398 -0.3795 -0.2125
 2186TIP3   OH228048   3.339   0.216   1.856 -0.3988  0.3728 -0.2784
 2186TIP3    H128049   3.314   0.212   1.949  0.6966  0.3459  0.0350
 2186TIP3    H228050   3.273   0.164   1.811  0.4765 -1.8578  0.8197
 2187TIP3   OH228051   2.962   6.468   0.395  0.4285 -0.1021 -0.0807
 2187TIP3    H128052   2.962   6.546   0.340 -1.5864 -0.0543 -0.0812
 2187TIP3    H228053   2.968   6.395   0.333 -0.4433 -0.0047 -0.2928
 2188TIP3   OH228054   5.571   4.800  13.876  0.1187  0.2746 -0.3313
 2188TIP3    H128055   5.569   4.895  13.871  1.1271  0.4128  1.1092
 2188TIP3    H228056   5.636   4.774  13.810 -0.2223  0.5711 -0.7861
 2189TIP3   OH228057   5.858   1.139  10.676  0.0878 -0.1816 -0.1252
 2189TIP3    H128058   5.873   1.078  10.604  2.4489 -1.2552  1.1842
 2189TIP3    H228059   5.767   1.122  10.703  0.2314 -2.1140 -0.7189
 2190TIP3   OH228060   6.395   3.641  12.506 -0.0762  0.9482 -0.5666
 2190TIP3    H128061   6.485   3.651  12.537  0.1283  1.0012 -1.1584
 2190TIP3    H228062   6.361   3.730  12.501 -0.5073  0.8623  0.6337
 2191TIP3   OH228063   4.847   5.570  13.917 -0.4202 -0.3663 -0.1154
 2191TIP3    H128064   4.751   5.571  13.919 -0.4900 -0.5776 -1.9751
 2191TIP3    H228065   4.871   5.661  13.900 -0.3217 -0.4659 -0.5044
 2192TIP3   OH228066   5.817   6.114  16.307  0.2640 -0.7014  0.3749
 2192TIP3    H128067   5.894   6.132  16.254 -1.0419  1.9396 -0.7939
 2192TIP3    H228068   5.807   6.191  16.363 -1.2397 -1.2102  0.8574
 2193TIP3   OH228069   0.693   0.809   5.154  0.1425 -0.1287 -0.2170
 2193TIP3    H128070   0.785   0.783   5.154  0.0450 -0.4889  0.0150
 2193TIP3    H228071   0.682   0.860   5.074  0.1239 -1.5637 -1.1574
 2194TIP3   OH228072   1.855   2.953   0.123  0.5407 -0.1848 -0.0359
 2194TIP3    H128073   1.933   3.003   0.150  1.8373 -2.0760 -0.0736
 2194TIP3    H228074   1.860   2.951   0.028 -0.0025  0.3319 -0.0805
 2195TIP3   OH228075   0.682   4.670   4.861 -0.4729 -0.3105  0.1036
 2195TIP3    H128076   0.691   4.727   4.784  0.2192 -0.2500  0.2214
 2195TIP3    H228077   0.627   4.598   4.831  0.6637 -0.8543 -0.7929
 2196TIP3   OH228078   5.106   3.830  10.587  0.7249 -0.1537 -0.7332
 2196TIP3    H128079   5.042   3.901  10.594  0.5747 -0.4019  0.5085
 2196TIP3    H228080   5.178   3.868  10.537  1.0892  1.2009  0.7738
 2197TIP3   OH228081   2.656   1.437  15.577 -0.5224 -0.1749  0.0190
 2197TIP3    H128082   2.724   1.502  15.561 -1.4838  0.5199 -1.3795
 2197TIP3    H228083   2.689   1.386  15.652 -0.0678  2.3395  1.6279
 2198TIP3   OH228084   4.567   3.588  11.808 -0.4702 -0.2526 -0.3697
 2198TIP3    H128085   4.490   3.590  11.751  0.1341  0.6047 -1.1850
 2198TIP3    H228086   4.573   3.677  11.844 -0.9939 -0.8437  1.2752
 2199TIP3   OH228087   0.802   4.443  11.308 -0.1138  0.1782  0.3213
 2199TIP3    H128088   0.741   4.450  11.234 -0.0591 -1.0311  0.1459
 2199TIP3    H228089   0.761   4.495  11.377 -1.7734 -1.2231  0.4581
 2200TIP3   OH228090   4.116   1.371   0.393 -0.1305  0.5429 -0.2605
 2200TIP3    H128091   4.051   1.436   0.417 -0.4778  0.5728 -1.2452
 2200TIP3    H228092   4.129   1.319   0.473 -1.3421  0.5402 -0.0587
 2201TIP3   OH228093   1.134   6.102  13.542  0.0260 -0.0334 -0.2476
 2201TIP3    H128094   1.205   6.167  13.552 -0.3757  0.6629 -1.6346
 2201TIP3    H228095   1.065   6.134  13.599  0.2580  0.1542 -0.0674
 2202TIP3   OH228096   4.542   6.680  10.811 -0.2423  0.5115  0.2802
 2202TIP3    H128097   4.524   6.621  10.885  0.0955  2.1022  1.7092
 2202TIP3    H228098   4.562   6.621  10.738 -1.5820 -1.1505  1.1627
 2203TIP3   OH228099   0.098   0.890  16.937  0.4769  0.7324  0.1393
 2203TIP3    H128100   0.020   0.946  16.941  0.0927  0.1183  1.8311
 2203TIP3    H228101   0.069   0.812  16.888  0.0206  0.5050  0.7651
 2204TIP3   OH228102   5.246   2.384  13.421 -0.1507 -0.0022  0.1692
 2204TIP3    H128103   5.156   2.394  13.390  0.0790 -1.1054 -0.9291
 2204TIP3    H228104   5.301   2.407  13.346  0.4445 -1.1458  0.2296
 2205TIP3   OH228105   5.375   0.831  12.918 -0.5579 -0.7135  0.4530
 2205TIP3    H128106   5.322   0.818  12.840 -1.5514 -1.2414  1.1852
 2205TIP3    H228107   5.420   0.914  12.904  1.0713 -1.8618 -1.6478
 2206TIP3   OH228108   2.198   0.744  15.157 -0.0622  0.8308  0.7110
 2206TIP3    H128109   2.264   0.702  15.212 -0.7561  0.4816  1.3102
 2206TIP3    H228110   2.181   0.828  15.200 -1.4587  0.0668  1.7637
 2207TIP3   OH228111   6.235   0.073  16.764  0.1143  0.7564 -0.1612
 2207TIP3    H128112   6.305   0.012  16.789 -0.1913  0.4599  0.0001
 2207TIP3    H228113   6.183   0.082  16.844  0.9372  2.3247  0.2222
 2208TIP3   OH228114   2.620   0.593  13.146 -0.2240 -0.7328  0.0649
 2208TIP3    H128115   2.542   0.613  13.094  0.2065 -1.8205 -1.0578
 2208TIP3    H228116   2.648   0.507  13.115  0.9620 -0.7249  1.0221
 2209TIP3   OH228117   2.012   0.309   0.286  0.7789  0.6259 -0.0828
 2209TIP3    H128118   1.932   0.350   0.317  0.1474 -0.8073  0.2612
 2209TIP3    H228119   1.987   0.266   0.204  0.9495 -0.5743  0.4703
 2210TIP3   OH228120   2.505   2.203  14.968  0.0518 -0.2305 -0.5251
 2210TIP3    H128121   2.435   2.154  14.924 -1.4250  1.6917 -0.4340
 2210TIP3    H228122   2.498   2.177  15.059  0.6415 -1.3725 -0.7890
 2211TIP3   OH228123   5.562   5.398  11.906  0.0898  0.1715 -0.0249
 2211TIP3    H128124   5.560   5.310  11.869  0.3401 -0.0543  0.4915
 2211TIP3    H228125   5.579   5.456  11.831 -0.7460 -0.1514 -0.4777
 2212TIP3   OH228126   5.437   1.578  15.797 -0.1227  0.3748 -0.3601
 2212TIP3    H128127   5.430   1.547  15.706  1.3714 -0.2111 -0.2916
 2212TIP3    H228128   5.517   1.630  15.799 -0.0315  0.2097  0.6806
 2213TIP3   OH228129   0.276   3.848  13.126 -0.5002 -0.3605 -0.0339
 2213TIP3    H128130   0.199   3.876  13.077 -0.2671  0.2611 -0.0582
 2213TIP3    H228131   0.282   3.754  13.110 -0.7793 -0.2714 -0.6979
 2214TIP3   OH228132   4.701   3.122   0.250  0.1573 -0.3603  0.3241
 2214TIP3    H128133   4.782   3.156   0.287 -0.6659  1.7693  0.3441
 2214TIP3    H228134   4.723   3.035   0.218  2.5913  0.3681 -0.1547
 2215TIP3   OH228135   3.433   0.088   4.645  0.3101 -0.0956 -0.1330
 2215TIP3    H128136   3.344   0.057   4.661 -0.0734  0.9632 -0.1291
 2215TIP3    H228137   3.466   0.032   4.576 -0.3451 -0.5309 -0.0978
 2216TIP3   OH228138   4.156   3.452   1.739  0.3074  0.1930 -0.9618
 2216TIP3    H128139   4.217   3.382   1.715 -0.3453 -0.8309  0.2492
 2216TIP3    H228140   4.213   3.526   1.762  1.0293 -0.1727 -1.5269
 2217TIP3   OH228141   1.555   4.541   5.874  0.1389  0.1825  0.0341
 2217TIP3    H128142   1.519   4.504   5.793 -1.8798 -0.6656  1.2479
 2217TIP3    H228143   1.524   4.483   5.943  0.8054  1.5641  1.5559
 2218TIP3   OH228144   5.895   0.060   1.705 -0.3810 -0.1484  0.3692
 2218TIP3    H128145   5.895  -0.034   1.725 -0.5668  0.2718  2.5458
 2218TIP3    H228146   5.977   0.074   1.659 -1.0281 -1.6127 -1.3617
 2219TIP3   OH228147   4.961   2.533   5.128  0.3586 -0.2027 -0.1215
 2219TIP3    H128148   5.043   2.556   5.082  0.7656 -0.5292  0.4329
 2219TIP3    H228149   4.989   2.507   5.215 -0.4275  0.5220  0.3580
 2220TIP3   OH228150   2.768   1.570  14.668  0.2283 -0.5203 -0.5993
 2220TIP3    H128151   2.847   1.522  14.693  1.2495  1.9093  1.2992
 2220TIP3    H228152   2.759   1.554  14.574  3.2151 -0.5993 -0.9757
 2221TIP3   OH228153   4.492   1.176   0.003 -0.4169 -0.0325 -0.5773
 2221TIP3    H128154   4.506   1.087   0.037  1.3595  0.2831 -0.3823
 2221TIP3    H228155   4.415   1.207   0.050  0.4546 -0.5551  1.3073
 2222TIP3   OH228156   1.186   2.298  16.589 -0.5189  0.1640 -0.3431
 2222TIP3    H128157   1.120   2.291  16.520 -1.6062  1.7931  0.4709
 2222TIP3    H228158   1.188   2.211  16.629 -0.1006 -0.7159 -2.1668
 2223TIP3   OH228159   1.569   2.115   3.740 -0.0294  0.1076  0.0353
 2223TIP3    H128160   1.577   2.029   3.699 -0.4507  0.9790 -1.9347
 2223TIP3    H228161   1.643   2.165   3.706  1.1040  0.1580  2.3166
 2224TIP3   OH228162   2.875   3.637   0.032 -0.2620  0.1085  0.1661
 2224TIP3    H128163   2.908   3.548   0.020  0.2915  0.4332 -0.7873
 2224TIP3    H228164   2.785   3.625   0.063 -0.0329 -0.7761  0.5209
 2225TIP3   OH228165   2.297   4.231   2.338  0.6560 -0.0745 -0.1839
 2225TIP3    H128166   2.246   4.268   2.266  0.7611  1.0069  0.2860
 2225TIP3    H228167   2.338   4.153   2.300  2.3026  1.5166 -1.9153
 2226TIP3   OH228168   6.581   2.008  12.288  0.1210  0.5507 -0.1656
 2226TIP3    H128169   6.628   2.041  12.365 -2.4596  1.7376  1.0171
 2226TIP3    H228170   6.647   1.957  12.240  1.7687 -0.6753  3.0584
 2227TIP3   OH228171   6.329   1.038   1.096  0.4477 -0.5800 -0.2349
 2227TIP3    H128172   6.413   1.061   1.135  0.8363 -0.6327 -1.0222
 2227TIP3    H228173   6.305   1.114   1.043  0.6277 -1.0635 -1.0280
 2228TIP3   OH228174   5.791   4.903   0.103  0.8290 -0.1040 -0.2197
 2228TIP3    H128175   5.739   4.831   0.068 -0.6026  1.1580 -0.8044
 2228TIP3    H228176   5.806   4.880   0.194 -0.4494 -0.6914 -0.1406
 2229TIP3   OH228177   2.673   6.538   2.712 -0.4011 -0.4213  0.3354
 2229TIP3    H128178   2.719   6.553   2.794  2.2523 -0.7193 -0.9938
 2229TIP3    H228179   2.651   6.445   2.713 -1.8809 -0.1020  1.3541
 2230TIP3   OH228180   2.251   1.728   3.642  0.1847 -0.4538 -0.3279
 2230TIP3    H128181   2.183   1.715   3.708 -0.0717  1.8343 -0.0826
 2230TIP3    H228182   2.207   1.713   3.559 -0.1808 -0.6748 -0.0983
 2231TIP3   OH228183   1.487   2.623   0.691 -0.5465  0.0290 -0.6452
 2231TIP3    H128184   1.572   2.637   0.733 -0.7467  2.4631 -0.9293
 2231TIP3    H228185   1.468   2.530   0.706  1.3022 -0.1430  1.0217
 2232TIP3   OH228186   5.172   3.848  16.459 -0.6406 -0.1467  0.0845
 2232TIP3    H128187   5.118   3.839  16.537 -0.4360 -1.8953  0.0695
 2232TIP3    H228188   5.132   3.920  16.410 -1.9594 -0.3261  0.8501
 2233TIP3   OH228189   3.621   2.979   1.701 -0.2125 -0.2812 -0.0119
 2233TIP3    H128190   3.699   2.925   1.690 -0.4766 -0.7930  0.5404
 2233TIP3    H228191   3.642   3.061   1.658  0.7859 -0.2692  0.4670
 2234TIP3   OH228192   1.351   1.384   4.657  0.0707 -0.0062  0.1470
 2234TIP3    H128193   1.266   1.351   4.685  1.5273 -3.1950  1.2894
 2234TIP3    H228194   1.378   1.443   4.728 -1.1617  1.0900 -0.2590
 2235TIP3   OH228195   5.181   6.580  13.216  0.0208 -0.0199  0.1526
 2235TIP3    H128196   5.152   6.510  13.276 -0.2693  0.6932  0.8666
 2235TIP3    H228197   5.214   6.648  13.274 -0.1919  0.6621 -0.5189
 2236TIP3   OH228198   1.058   3.038  17.144  0.2350  0.3054 -0.1113
 2236TIP3    H128199   1.131   2.997  17.190 -0.6962  0.8719  2.0125
 2236TIP3    H228200   1.004   2.964  17.114  0.7288 -0.0776 -0.0709
 2237TIP3   OH228201   0.727   2.849   2.062 -0.2857  0.4878  1.1348
 2237TIP3    H128202   0.782   2.865   1.985 -1.5412  3.1693  0.7040
 2237TIP3    H228203   0.789   2.839   2.134  0.8504 -0.4737  0.0805
 2238TIP3   OH228204   0.373   1.372   0.587  0.3240 -0.5056  0.8303
 2238TIP3    H128205   0.322   1.434   0.534  2.4308 -0.0041 -0.7672
 2238TIP3    H228206   0.381   1.295   0.531 -0.1357 -1.2755  1.7925
 2239TIP3   OH228207   5.372   2.338  12.270  0.1352  0.3517 -0.4702
 2239TIP3    H128208   5.440   2.273  12.250  1.1146  0.6986  1.4848
 2239TIP3    H228209   5.324   2.348  12.188  1.0609 -1.5337 -1.3100
 2240TIP3   OH228210   6.737   1.053  14.220  0.0065 -0.3022  0.4404
 2240TIP3    H128211   6.665   1.029  14.278  0.1616 -0.7152  0.4638
 2240TIP3    H228212   6.784   0.971  14.203 -0.5495 -0.3655 -0.9718
 2241TIP3   OH228213   6.320   1.793   5.351 -0.4046  0.2533  0.8962
 2241TIP3    H128214   6.391   1.741   5.389 -1.6664 -0.8087  1.8636
 2241TIP3    H228215   6.240   1.747   5.376 -1.4509  1.3987 -0.2122
 2242TIP3   OH228216   6.557   6.822   0.809 -0.5597  0.0689 -0.2022
 2242TIP3    H128217   6.523   6.911   0.820 -0.5906 -0.0974  1.2041
 2242TIP3    H228218   6.564   6.811   0.714 -2.6593  0.7842 -0.5016
 2243TIP3   OH228219   0.999   6.130  11.278 -0.3778  0.2425 -0.1510
 2243TIP3    H128220   0.908   6.101  11.279 -0.5808  0.7639 -1.4306
 2243TIP3    H228221   1.034   6.094  11.196  0.3921  0.5685  0.0292
 2244TIP3   OH228222   3.901   5.221   5.960  0.4118  0.5942 -0.3355
 2244TIP3    H128223   3.940   5.232   5.873 -0.6651  2.8750 -0.6092
 2244TIP3    H228224   3.965   5.260   6.020  0.6621  0.0171 -0.2230
 2245TIP3   OH228225   3.417   5.536   5.628 -0.1036  0.6502 -0.2945
 2245TIP3    H128226   3.437   5.484   5.706 -1.4294 -0.6930 -0.8127
 2245TIP3    H228227   3.435   5.626   5.655  2.3359 -0.0091  0.6172
 2246TIP3   OH228228   5.083   4.318   0.282 -0.0579  0.8489 -0.6515
 2246TIP3    H128229   5.137   4.290   0.208  0.6833  0.1210  0.1430
 2246TIP3    H228230   5.057   4.237   0.325  0.1104  1.2776  0.2859
 2247TIP3   OH228231   2.110   2.614  10.587 -0.3388  0.3693 -0.0951
 2247TIP3    H128232   2.081   2.581  10.502  1.5907  1.6349 -1.3389
 2247TIP3    H228233   2.036   2.599  10.646 -2.0205  0.0917 -2.1601
 2248TIP3   OH228234   5.146   6.258  13.633  0.3025  0.1502 -0.0309
 2248TIP3    H128235   5.167   6.284  13.543 -1.5637  0.7044 -0.3340
 2248TIP3    H228236   5.225   6.279  13.683  0.8583  1.1554 -1.2793
 2249TIP3   OH228237   6.116   3.969  10.587  0.6668 -0.0264  0.1505
 2249TIP3    H128238   6.063   4.049  10.583 -0.7749 -0.9795 -1.5762
 2249TIP3    H228239   6.174   3.975  10.511  0.2162 -0.8191 -0.2677
 2250TIP3   OH228240   5.609   2.788  15.933 -0.2724  0.3982 -0.0727
 2250TIP3    H128241   5.574   2.703  15.906 -0.4679  0.2526  0.6115
 2250TIP3    H228242   5.555   2.852  15.888 -1.5187  0.1850  1.0357
 2251TIP3   OH228243   0.745   1.532  11.569 -0.0887  0.3909 -0.0556
 2251TIP3    H128244   0.689   1.480  11.626 -0.5980  0.7742 -0.2024
 2251TIP3    H228245   0.819   1.474  11.548  0.2364  0.3225  1.1940
 2252TIP3   OH228246   6.313   4.527  13.001  0.7118  0.0409 -0.1905
 2252TIP3    H128247   6.293   4.562  12.915 -1.9167  0.1293  0.3564
 2252TIP3    H228248   6.273   4.440  13.001  2.0037 -0.5793  0.4544
 2253TIP3   OH228249   0.103   5.495  15.632  0.6689 -0.4980 -0.1538
 2253TIP3    H128250   0.073   5.428  15.571  1.7305 -1.3505  0.2495
 2253TIP3    H228251   0.038   5.493  15.703  1.2905 -1.8694  0.3912
 2254TIP3   OH228252   1.233   4.332  16.447 -0.6953 -0.1557  0.1993
 2254TIP3    H128253   1.168   4.398  16.425 -1.5690 -1.1765 -0.4188
 2254TIP3    H228254   1.241   4.336  16.542  0.4691  1.9076  0.0626
 2255TIP3   OH228255   1.965   2.104   1.502 -0.8897 -0.0128  0.3294
 2255TIP3    H128256   1.870   2.104   1.516 -1.2233 -1.2178 -1.4976
 2255TIP3    H228257   1.987   2.012   1.489  0.5615  0.2431  0.8748
 2256TIP3   OH228258   5.871   1.318   2.594  0.5162 -0.3700  0.3311
 2256TIP3    H128259   5.931   1.375   2.642  0.0050  0.2611  0.2304
 2256TIP3    H228260   5.928   1.250   2.557  0.7986 -1.6362  2.8398
 2257TIP3   OH228261   2.757   1.821  16.660 -0.2198  0.8121 -0.4468
 2257TIP3    H128262   2.683   1.823  16.599 -0.9786 -2.2271  0.2144
 2257TIP3    H228263   2.821   1.763  16.619  1.1299  2.0859 -0.2283
 2258TIP3   OH228264   4.533   4.067   3.452  0.8543 -0.4028  0.0751
 2258TIP3    H128265   4.605   4.074   3.515  0.1941 -1.8100  1.0220
 2258TIP3    H228266   4.575   4.034   3.372  1.1998 -1.6969  0.7695
 2259TIP3   OH228267   2.040   0.459   0.605  0.0588 -0.4776 -0.1466
 2259TIP3    H128268   2.034   0.554   0.601  0.3242 -0.2206  2.9332
 2259TIP3    H228269   2.131   0.440   0.584  0.4069  0.1139  0.7757
 2260TIP3   OH228270   4.220   5.811   5.242  0.3556 -0.0790 -0.0007
 2260TIP3    H128271   4.131   5.786   5.217  1.0636 -1.7169 -1.0696
 2260TIP3    H228272   4.269   5.811   5.160  1.7305 -1.0277  0.7729
 2261TIP3   OH228273   3.253   0.062   1.147  0.0917 -0.3481  0.3624
 2261TIP3    H128274   3.280   0.150   1.175 -1.4732 -0.1230  1.3057
 2261TIP3    H228275   3.157   0.063   1.155  0.0045 -1.9766 -0.1363
 2262TIP3   OH228276   1.964   5.913   3.071 -0.4263 -0.8680  0.2093
 2262TIP3    H128277   1.892   5.936   3.012  1.0582 -0.1754 -1.4042
 2262TIP3    H228278   2.018   5.991   3.075  0.0006 -1.2028  1.8137
 2263TIP3   OH228279   4.106   4.265   1.733  0.3015  0.4363  0.0336
 2263TIP3    H128280   4.180   4.204   1.730 -0.1138 -0.2431  2.0759
 2263TIP3    H228281   4.128   4.326   1.803  0.1193  1.9269 -1.1335
 2264TIP3   OH228282   0.626   1.092   4.488  0.2634 -0.4169 -0.7042
 2264TIP3    H128283   0.536   1.113   4.462 -0.8416 -0.9464  2.2858
 2264TIP3    H228284   0.651   1.163   4.547  0.5269 -1.8676  1.0261
 2265TIP3   OH228285   1.517   5.569  15.320  0.4310  0.8580 -0.3825
 2265TIP3    H128286   1.521   5.643  15.260 -0.1727  2.0946  1.0371
 2265TIP3    H228287   1.520   5.608  15.407  0.1736 -0.8013  0.4171
 2266TIP3   OH228288   6.172   4.453   6.556 -0.8471  0.5798  0.4687
 2266TIP3    H128289   6.266   4.473   6.555 -0.6864 -0.1787  0.0528
 2266TIP3    H228290   6.130   4.537   6.538 -0.2028  0.6703 -0.6740
 2267TIP3   OH228291   1.733   3.550  14.134  0.0633 -0.3711  0.1250
 2267TIP3    H128292   1.667   3.521  14.197  0.1035  0.4303  0.5407
 2267TIP3    H228293   1.765   3.469  14.095 -1.1515 -0.7757 -0.0693
 2268TIP3   OH228294   6.579   4.347  16.923 -0.2457  0.0419 -0.4223
 2268TIP3    H128295   6.659   4.368  16.875 -0.0350 -0.2597 -0.2046
 2268TIP3    H228296   6.576   4.252  16.926  0.4279  0.0451  1.2917
 2269TIP3   OH228297   3.469   6.525  15.315  0.2878  0.7538  0.3961
 2269TIP3    H128298   3.513   6.444  15.343  2.1136  1.2168 -0.9372
 2269TIP3    H228299   3.380   6.517  15.350  1.4768 -0.0795  3.5911
 2270TIP3   OH228300   0.705   6.556   2.503  0.2138 -0.0463 -0.0315
 2270TIP3    H128301   0.761   6.615   2.454  2.6081 -0.7359  1.6716
 2270TIP3    H228302   0.682   6.487   2.441  0.7000  0.5971 -0.9466
 2271TIP3   OH228303   2.765   4.795  13.817 -0.3238  0.0366  0.0798
 2271TIP3    H128304   2.799   4.868  13.868 -1.2200  1.8270 -1.7489
 2271TIP3    H228305   2.843   4.754  13.780  0.2112 -0.1819  1.3587
 2272TIP3   OH228306   1.857   1.262   5.624  0.0994  0.0362 -0.2443
 2272TIP3    H128307   1.917   1.302   5.687 -0.3410 -0.0525  0.2432
 2272TIP3    H228308   1.807   1.198   5.676  0.5368 -0.8854 -0.9291
 2273TIP3   OH228309   3.948   5.731  14.105  0.1113 -0.6042  0.5778
 2273TIP3    H128310   3.875   5.772  14.060  0.8026  0.2558  0.2030
 2273TIP3    H228311   3.983   5.801  14.162 -0.6772 -1.6188  2.3932
 2274TIP3   OH228312   6.834   0.231  15.431  0.0957  0.2179 -0.1826
 2274TIP3    H128313   6.803   0.306  15.481  0.7648  0.2287  0.2284
 2274TIP3    H228314   6.778   0.229  15.353 -2.1824 -0.8917  1.3725
 2275TIP3   OH228315   4.533   6.070  15.531 -0.0117  0.9760 -0.1361
 2275TIP3    H128316   4.498   6.144  15.481  2.4309  2.7676  0.5691
 2275TIP3    H228317   4.614   6.047  15.486 -1.7902 -3.0278 -1.7378
 2276TIP3   OH228318   3.215   2.272  12.666  0.1694  0.1399 -0.2085
 2276TIP3    H128319   3.212   2.366  12.651  1.3365  0.0781 -1.0524
 2276TIP3    H228320   3.161   2.257  12.743 -0.0399  1.4954 -0.0736
 2277TIP3   OH228321   1.141   3.114   1.119 -0.0157 -0.3299 -0.0297
 2277TIP3    H128322   1.154   3.207   1.139  1.4404 -0.3333 -0.8497
 2277TIP3    H228323   1.215   3.091   1.063 -0.4012 -1.9801  0.0990
 2278TIP3   OH228324   5.318   6.336   0.903  0.4111  0.1668  0.2422
 2278TIP3    H128325   5.326   6.330   0.808  2.8205  1.0022  0.3093
 2278TIP3    H228326   5.266   6.415   0.918 -0.6355 -0.3835 -0.3513
 2279TIP3   OH228327   3.943   1.080   0.196 -0.3843 -0.3361  0.0874
 2279TIP3    H128328   3.858   1.092   0.237 -0.4857  1.2318 -0.5117
 2279TIP3    H228329   4.005   1.077   0.268 -0.5745  2.2087  0.4353
 2280TIP3   OH228330   4.855   6.554  15.071 -0.0463  0.4013 -0.5683
 2280TIP3    H128331   4.840   6.617  15.141  2.0405  2.0494 -1.5136
 2280TIP3    H228332   4.769   6.514  15.057 -1.1881  2.1638  0.8858
 2281TIP3   OH228333   6.590   1.937   6.624  0.4782 -0.3712  0.3489
 2281TIP3    H128334   6.536   2.007   6.661 -0.1183 -0.0119 -1.1268
 2281TIP3    H228335   6.550   1.856   6.656 -0.1480 -0.0839  0.2992
 2282TIP3   OH228336   6.106   6.078   5.145  0.5243 -0.9427  0.7084
 2282TIP3    H128337   6.191   6.118   5.164  0.9228 -1.9095  1.0387
 2282TIP3    H228338   6.042   6.137   5.183  0.8948  0.9170 -1.3576
 2283TIP3   OH228339   4.224   0.798  14.242  0.2884  0.8798  0.0748
 2283TIP3    H128340   4.226   0.784  14.337  0.9881  0.2735 -0.0230
 2283TIP3    H228341   4.295   0.859  14.225  3.6192 -2.7818 -0.6003
 2284TIP3   OH228342   5.192   3.210  14.712 -0.2082  0.0521  0.1533
 2284TIP3    H128343   5.151   3.181  14.631  0.1761 -0.0837  0.0059
 2284TIP3    H228344   5.279   3.169  14.712 -0.5050 -0.6223  1.0274
 2285TIP3   OH228345   5.903   2.798   5.036  0.2855  0.1893 -0.2854
 2285TIP3    H128346   5.879   2.752   4.956  0.4847  0.9946 -0.8260
 2285TIP3    H228347   5.950   2.876   5.006  2.1139 -0.4887  0.6722
 2286TIP3   OH228348   3.164   4.933   5.069  0.1612 -0.8473  0.5181
 2286TIP3    H128349   3.237   4.928   5.130  0.1195 -1.9634  0.5052
 2286TIP3    H228350   3.166   4.849   5.023  1.0470  0.4674 -2.0309
 2287TIP3   OH228351   0.117   6.689   4.900 -0.7848  0.6080  0.0161
 2287TIP3    H128352   0.169   6.758   4.859  3.1860 -1.8993  0.3139
 2287TIP3    H228353   0.114   6.619   4.835 -0.7949 -0.5948  1.2565
 2288TIP3   OH228354   4.469   0.572  14.582  0.2239 -0.0903 -0.0899
 2288TIP3    H128355   4.489   0.518  14.506  0.1001  0.3622 -0.4477
 2288TIP3    H228356   4.419   0.646  14.547  2.8535  1.8277 -0.0642
 2289TIP3   OH228357   6.053   0.881   0.256 -0.3999 -0.7380 -0.4028
 2289TIP3    H128358   6.145   0.868   0.279 -0.5118  0.5216  0.8985
 2289TIP3    H228359   6.026   0.956   0.309 -1.8231 -0.2702 -1.7397
 2290TIP3   OH228360   1.709   2.308  15.617 -0.2313 -0.5124  0.8005
 2290TIP3    H128361   1.727   2.402  15.625  1.6181 -0.7911  0.2879
 2290TIP3    H228362   1.635   2.293  15.677 -1.3359  1.4472  0.0199
 2291TIP3   OH228363   2.887   5.441  16.769  0.3834 -0.4225  0.0087
 2291TIP3    H128364   2.884   5.422  16.863 -0.0932 -1.4129 -0.1936
 2291TIP3    H228365   2.916   5.532  16.764  0.6246 -0.4229  1.1083
 2292TIP3   OH228366   4.937   0.246   5.025  0.4249  0.3375  0.1236
 2292TIP3    H128367   4.864   0.243   4.964  0.9414 -0.0656 -0.4852
 2292TIP3    H228368   5.015   0.243   4.970  0.9092 -1.3842  0.8084
 2293TIP3   OH228369   2.634   2.773   3.451 -0.0657  0.3424  0.7592
 2293TIP3    H128370   2.626   2.688   3.492 -0.2436 -0.1865 -0.3332
 2293TIP3    H228371   2.653   2.754   3.359  2.1422  1.4726  0.9078
 2294TIP3   OH228372   5.073   5.026  16.131 -0.2096 -0.3952  0.0360
 2294TIP3    H128373   5.013   5.081  16.181 -0.1997 -0.8053  0.5139
 2294TIP3    H228374   5.022   4.995  16.057 -0.5066 -0.5253  0.2932
 2295TIP3   OH228375   3.221   3.488  13.995 -0.3022  0.0622  0.3534
 2295TIP3    H128376   3.183   3.497  13.907 -1.1746  0.2223  0.7326
 2295TIP3    H228377   3.310   3.521  13.986  0.0249 -1.0525 -0.7448
 2296TIP3   OH228378   4.754   5.841   1.592  0.4717 -0.0216  0.0994
 2296TIP3    H128379   4.708   5.812   1.513  1.5480  0.7689 -0.8414
 2296TIP3    H228380   4.822   5.775   1.606  1.7282  1.0061 -0.9675
 2297TIP3   OH228381   2.091   5.032   2.210 -0.2099  0.0447  0.0083
 2297TIP3    H128382   2.077   5.050   2.302  0.0272 -0.2700  0.1100
 2297TIP3    H228383   2.009   4.995   2.179 -0.1403 -0.2769  0.2046
 2298TIP3   OH228384   1.040   0.908  14.734  0.0772 -0.2505  0.2814
 2298TIP3    H128385   0.988   0.841  14.779  0.1784 -0.8743 -0.5132
 2298TIP3    H228386   0.976   0.970  14.701 -0.1794 -0.9525 -0.5934
 2299TIP3   OH228387   2.877   0.861   5.434  0.2127  0.2238 -0.9553
 2299TIP3    H128388   2.911   0.918   5.365  2.9135  0.2827  0.2931
 2299TIP3    H228389   2.949   0.801   5.452 -2.0928 -2.8461 -1.3470
 2300TIP3   OH228390   1.044   5.640   0.196 -0.2508  0.0963  0.3971
 2300TIP3    H128391   1.073   5.644   0.287  0.5564 -0.3329  0.1688
 2300TIP3    H228392   0.971   5.578   0.197  1.8332 -2.5577  0.2767
 2301TIP3   OH228393   6.767   5.688  11.421  0.0850  0.1306  0.5459
 2301TIP3    H128394   6.743   5.596  11.432  0.0330  0.2516  1.6101
 2301TIP3    H228395   6.852   5.696  11.463  0.7513  0.2946 -0.7765
 2302TIP3   OH228396   3.399   4.486   4.735  0.3463  0.0558  0.3737
 2302TIP3    H128397   3.396   4.469   4.829  0.1756 -0.9625  0.1868
 2302TIP3    H228398   3.325   4.437   4.699  2.0210 -1.8577 -0.6505
 2303TIP3   OH228399   4.969   6.686  16.536  0.0253 -0.1212 -0.1338
 2303TIP3    H128400   4.891   6.714  16.584 -0.5604 -1.8256 -0.0131
 2303TIP3    H228401   4.938   6.613  16.482  1.3122 -0.1251 -0.8951
 2304TIP3   OH228402   6.268   4.258   2.493 -0.5009 -0.1152 -0.4165
 2304TIP3    H128403   6.302   4.247   2.581 -1.9009 -0.2410  0.1268
 2304TIP3    H228404   6.228   4.173   2.471 -0.2372 -0.0623 -1.1372
 2305TIP3   OH228405   2.202   4.921  12.621 -0.5052  0.1279  0.4723
 2305TIP3    H128406   2.235   4.928  12.532 -0.7662 -0.2051  0.3461
 2305TIP3    H228407   2.252   4.986  12.671 -1.2904  1.2668 -0.1908
 2306TIP3   OH228408   0.131   4.667   6.053  0.2121 -0.8137 -0.4000
 2306TIP3    H128409   0.090   4.736   6.002 -0.6219 -0.4609  0.7233
 2306TIP3    H228410   0.102   4.586   6.011  0.0403 -0.5212 -0.8549
 2307TIP3   OH228411   2.134   4.105   3.189  0.0660  0.4633 -0.1765
 2307TIP3    H128412   2.158   4.171   3.254  2.8889  0.7683 -1.3480
 2307TIP3    H228413   2.184   4.027   3.215  2.6050  1.0727 -2.7196
 2308TIP3   OH228414   3.601   4.199   4.546 -0.7508 -0.2695 -0.3671
 2308TIP3    H128415   3.660   4.185   4.621  0.3438 -0.5995 -1.2688
 2308TIP3    H228416   3.562   4.284   4.563  0.3659  0.1928  0.0144
 2309TIP3   OH228417   5.121   6.167  11.861 -0.3078 -0.6058 -0.5541
 2309TIP3    H128418   5.047   6.127  11.908 -0.2132 -0.4742 -0.2951
 2309TIP3    H228419   5.132   6.111  11.784 -1.5916  0.1798 -1.3443
 2310TIP3   OH228420   2.201   0.103  15.473  0.1881  0.4907 -0.3209
 2310TIP3    H128421   2.249   0.087  15.554  0.7784 -0.8484 -0.9138
 2310TIP3    H228422   2.215   0.196  15.455  1.3847  0.4431  0.2665
 2311TIP3   OH228423   1.129   6.175   6.378  0.2334 -0.1347  0.5480
 2311TIP3    H128424   1.165   6.247   6.326  0.8286 -0.4384  0.5279
 2311TIP3    H228425   1.038   6.200   6.395  0.3685  0.5064  0.3394
 2312TIP3   OH228426   0.427   3.041   2.038  0.4646  0.8748  0.2324
 2312TIP3    H128427   0.357   3.087   1.992 -0.3871 -1.1674 -0.6868
 2312TIP3    H228428   0.461   2.979   1.973  0.4579 -0.8514  1.7776
 2313TIP3   OH228429   1.892   0.905  12.843 -0.3403  0.2994  0.6751
 2313TIP3    H128430   1.938   0.943  12.919  0.0497  1.6026 -0.1831
 2313TIP3    H228431   1.869   0.816  12.871  1.7601 -0.0249  1.5322
 2314TIP3   OH228432   6.013   6.634   2.723 -0.3707  0.3478 -0.8927
 2314TIP3    H128433   6.034   6.594   2.639 -0.8872  1.9431 -1.8239
 2314TIP3    H228434   6.024   6.728   2.708 -0.4588  0.6597  0.8348
 2315TIP3   OH228435   1.940   1.858  15.151 -0.7235  0.4938  0.1393
 2315TIP3    H128436   1.995   1.780  15.158 -2.1339 -0.5059  0.3279
 2315TIP3    H228437   1.978   1.919  15.215  0.9723  0.3701 -0.6852
 2316TIP3   OH228438   0.396   6.402  12.728 -0.4688  0.4058  0.0468
 2316TIP3    H128439   0.483   6.377  12.758 -0.8455  1.3730  2.0807
 2316TIP3    H228440   0.338   6.379  12.801 -1.8537  0.2726 -1.0587
 2317TIP3   OH228441   1.228   0.350   3.456  0.0683 -0.4161  0.3224
 2317TIP3    H128442   1.245   0.436   3.496  1.8313 -0.4944 -0.1546
 2317TIP3    H228443   1.141   0.358   3.418  0.4085  1.3804 -0.2013
 2318TIP3   OH228444   5.916   6.458  12.784  0.8413  0.7635  0.6868
 2318TIP3    H128445   5.896   6.528  12.846  0.2601 -0.0390  1.4199
 2318TIP3    H228446   5.838   6.403  12.784  1.4364 -0.0960  0.4034
 2319TIP3   OH228447   3.520   4.796  12.542 -0.2540  0.5764  0.1122
 2319TIP3    H128448   3.494   4.790  12.634  0.5555  0.0855  0.3208
 2319TIP3    H228449   3.450   4.846  12.500 -0.4639  1.0919  1.0552
 2320TIP3   OH228450   0.263   5.098  12.791  0.3357 -0.2543 -0.2433
 2320TIP3    H128451   0.239   5.119  12.881  0.8294 -0.2291 -0.1109
 2320TIP3    H228452   0.282   5.182  12.750 -0.9593 -0.1687 -0.7012
 2321TIP3   OH228453   0.614   5.810   1.236 -0.2014  0.1697 -0.4368
 2321TIP3    H128454   0.562   5.885   1.265 -0.1930 -0.6137  1.8608
 2321TIP3    H228455   0.550   5.747   1.204 -0.5629 -0.1142  0.7724
 2322TIP3   OH228456   2.057   1.681   1.634 -0.1863 -0.3034 -0.5187
 2322TIP3    H128457   2.097   1.620   1.697 -0.9703 -1.3996 -1.0529
 2322TIP3    H228458   2.065   1.766   1.676  1.1433 -0.7245  0.1615
 2323TIP3   OH228459   5.390   6.711   4.560  1.0498 -0.0404 -0.0595
 2323TIP3    H128460   5.393   6.616   4.556  2.5144  0.0228 -1.4691
 2323TIP3    H228461   5.472   6.736   4.603  0.3808  0.5737  0.8898
 2324TIP3   OH228462   1.657   2.438   5.553  0.4448 -0.3092  0.1249
 2324TIP3    H128463   1.640   2.491   5.631  1.0123  2.1735 -1.3276
 2324TIP3    H228464   1.662   2.501   5.482 -0.5781 -2.5351 -2.0580
 2325TIP3   OH228465   3.469   1.101  11.777 -0.0028 -0.3944 -0.3401
 2325TIP3    H128466   3.466   1.080  11.870  0.8023 -1.6767 -0.5830
 2325TIP3    H228467   3.479   1.196  11.774  0.6591 -0.4107  0.8919
 2326TIP3   OH228468   0.479   6.646  15.003  0.0781  0.3328 -0.0000
 2326TIP3    H128469   0.565   6.671  15.038  0.1996  0.9583 -0.7142
 2326TIP3    H228470   0.479   6.682  14.914 -0.7915  0.0313 -0.1237
 2327TIP3   OH228471   1.438   2.754  12.943 -0.0637 -0.3962  0.2716
 2327TIP3    H128472   1.496   2.753  13.019  0.2353 -3.3471  0.1584
 2327TIP3    H228473   1.475   2.820  12.885  1.6307 -0.3418  1.3433
 2328TIP3   OH228474   6.757   1.220   2.203 -0.3357 -0.1555  0.9341
 2328TIP3    H128475   6.813   1.237   2.127 -1.3658 -1.3379 -0.1287
 2328TIP3    H228476   6.756   1.303   2.250 -0.2168  0.8285 -0.7002
 2329TIP3   OH228477   1.832   6.318  14.483 -0.3164  0.0817 -0.4643
 2329TIP3    H128478   1.762   6.323  14.548  1.1088  1.1331  1.0729
 2329TIP3    H228479   1.826   6.228  14.448 -0.8746 -0.6645  1.4274
 2330TIP3   OH228480   2.928   4.009  11.968 -0.3744 -0.5434 -0.2311
 2330TIP3    H128481   2.837   4.015  11.938  0.0846  0.1353 -1.5808
 2330TIP3    H228482   2.944   4.093  12.011 -0.3075 -0.5652 -0.2136
 2331TIP3   OH228483   3.454   3.981  16.236 -0.2373  0.0202  0.5923
 2331TIP3    H128484   3.455   3.996  16.142 -1.3542 -2.3167  0.1366
 2331TIP3    H228485   3.519   3.912  16.250 -0.1695  0.2589  1.5131
 2332TIP3   OH228486   0.066   5.068  16.930  0.4873  0.2741 -0.3641
 2332TIP3    H128487   0.028   4.981  16.924 -2.2484  1.3817 -0.6740
 2332TIP3    H228488   0.084   5.093  16.840 -0.8131  0.8041 -0.5084
 2333TIP3   OH228489   0.586   2.957   4.725 -0.0643  0.0329 -0.1157
 2333TIP3    H128490   0.570   2.879   4.777  0.7231  1.1585  1.9129
 2333TIP3    H228491   0.674   2.945   4.691 -0.9598 -1.1935 -2.2101
 2334TIP3   OH228492   6.060   2.537  11.869 -0.1375 -0.2167  0.0856
 2334TIP3    H128493   6.062   2.526  11.964  0.7175 -1.3906 -0.0436
 2334TIP3    H228494   5.969   2.562  11.850 -0.3268  0.0075  1.2021
 2335TIP3   OH228495   0.175   3.592  10.454  0.4031  0.4938  0.2125
 2335TIP3    H128496   0.236   3.647  10.404 -0.1905  1.2747  0.3284
 2335TIP3    H228497   0.192   3.503  10.422  0.3710  0.9085 -1.0403
 2336TIP3   OH228498   3.384   1.039  11.353 -0.0742  0.1289 -0.1740
 2336TIP3    H128499   3.310   0.979  11.355  0.9659 -1.1545  1.0572
 2336TIP3    H228500   3.365   1.103  11.422  0.0974 -0.3542  0.3198
 2337TIP3   OH228501   1.462   6.181  15.713 -0.7230 -0.1176 -0.1902
 2337TIP3    H128502   1.405   6.207  15.642 -0.2842 -1.7474 -1.1951
 2337TIP3    H228503   1.438   6.238  15.786 -1.9135  0.8669 -1.3151
 2338TIP3   OH228504   6.190   4.996  15.581  0.3749 -0.2787  0.3704
 2338TIP3    H128505   6.240   4.916  15.598 -1.1038 -0.8382  2.5924
 2338TIP3    H228506   6.109   4.965  15.542  0.5422  0.3257 -0.4632
 2339TIP3   OH228507   5.979   1.566   2.737 -0.2327 -0.4116  0.0422
 2339TIP3    H128508   5.917   1.603   2.801  1.9336  1.4800  1.2057
 2339TIP3    H228509   6.050   1.530   2.790  1.3240  0.6379 -1.2309
 2340TIP3   OH228510   1.800   0.586  13.967  0.4264  0.6203 -0.1113
 2340TIP3    H128511   1.829   0.530  14.039 -0.9007 -2.3349 -1.7464
 2340TIP3    H228512   1.735   0.645  14.007 -0.3872 -1.0416  1.1144
 2341TIP3   OH228513   0.354   0.708  14.494  0.4997  0.4175 -0.1595
 2341TIP3    H128514   0.430   0.694  14.438  0.1297  0.0645 -0.5789
 2341TIP3    H228515   0.372   0.655  14.572 -0.3492 -1.5399 -1.2294
 2342TIP3   OH228516   4.378   3.165  13.953 -0.2406  0.2009 -0.5175
 2342TIP3    H128517   4.306   3.110  13.983  0.4406 -0.7025 -0.5201
 2342TIP3    H228518   4.452   3.106  13.943  0.5253  1.1206 -0.4723
 2343TIP3   OH228519   4.344   5.648   3.418  0.1555 -0.5043 -0.4487
 2343TIP3    H128520   4.271   5.622   3.474 -0.4105 -1.2091 -1.4694
 2343TIP3    H228521   4.375   5.565   3.380  2.3251 -0.3882  0.9209
 2344TIP3   OH228522   6.532   6.171   2.435 -0.0917 -0.3357 -0.0487
 2344TIP3    H128523   6.522   6.215   2.350  0.9780 -0.1038 -0.0653
 2344TIP3    H228524   6.491   6.085   2.423  1.3304 -0.8784 -1.2708
 2345TIP3   OH228525   1.013   6.664   4.752  0.0580 -0.0541 -0.2291
 2345TIP3    H128526   1.010   6.628   4.841 -0.9340  0.2306 -0.1366
 2345TIP3    H228527   0.993   6.590   4.696 -1.6062  0.2345 -0.0614
 2346TIP3   OH228528   6.023   2.579   1.067  0.0454  0.4486  0.0597
 2346TIP3    H128529   6.092   2.516   1.090  1.5095  1.6632 -0.7696
 2346TIP3    H228530   6.069   2.662   1.055 -1.6847  1.4717  0.1348
 2347TIP3   OH228531   5.802   0.482  13.369 -0.4342  0.5689  0.1788
 2347TIP3    H128532   5.873   0.520  13.420 -1.7070  1.0792  1.6433
 2347TIP3    H228533   5.842   0.463  13.284  1.6072  0.2239  1.1372
 2348TIP3   OH228534   0.449   3.578   2.911  0.0683  0.3324 -0.0695
 2348TIP3    H128535   0.536   3.601   2.943 -1.3733 -0.8496  5.7594
 2348TIP3    H228536   0.405   3.662   2.897  1.2697  0.9299 -0.3516
 2349TIP3   OH228537   2.601   2.478   6.033 -0.1878  0.1877 -0.6530
 2349TIP3    H128538   2.527   2.418   6.039 -1.2307  1.4300 -0.6004
 2349TIP3    H228539   2.587   2.540   6.105 -0.7676  2.2059 -2.3754
 2350TIP3   OH228540   1.046   6.695   1.071 -0.8449 -0.1407 -0.3239
 2350TIP3    H128541   1.020   6.635   1.001 -1.6793  0.6777 -0.7282
 2350TIP3    H228542   0.995   6.775   1.055 -0.0655  0.5334  0.4436
 2351TIP3   OH228543   4.346   4.877   0.485 -0.2407 -0.2618  0.2304
 2351TIP3    H128544   4.334   4.814   0.415  1.6716 -0.2580 -0.1548
 2351TIP3    H228545   4.416   4.934   0.454 -0.3672  0.6449  1.5372
 2352TIP3   OH228546   4.274   4.590  13.306  0.6253  0.3514 -0.1716
 2352TIP3    H128547   4.356   4.544  13.323  1.9215  3.0722  1.6404
 2352TIP3    H228548   4.223   4.578  13.386  0.7636  1.5576  0.1116
 2353TIP3   OH228549   5.555   1.347   1.934 -0.0689 -0.2865  0.1017
 2353TIP3    H128550   5.482   1.397   1.897  0.7400  1.4288  0.7175
 2353TIP3    H228551   5.618   1.341   1.863  1.2661  2.5698  0.8873
 2354TIP3   OH228552   1.482   2.353  16.461 -0.0441  0.0591  0.0121
 2354TIP3    H128553   1.465   2.447  16.469  0.3902  0.2075 -0.6529
 2354TIP3    H228554   1.419   2.311  16.519 -0.4285  0.7502  0.1018
 2355TIP3   OH228555   4.962   2.713  16.208 -0.0824 -0.1363  0.7492
 2355TIP3    H128556   4.969   2.650  16.280  1.0012 -0.6991  0.1686
 2355TIP3    H228557   4.903   2.670  16.145 -2.2473  0.9746  1.8817
 2356TIP3   OH228558   3.461   1.977  10.805  0.0157 -0.0929 -0.0242
 2356TIP3    H128559   3.380   2.025  10.789 -0.3835 -0.3890  1.0514
 2356TIP3    H228560   3.526   2.044  10.827 -0.5896 -0.0388  1.6820
 2357TIP3   OH228561   1.278   3.340  15.255 -0.3680 -0.6898 -0.4791
 2357TIP3    H128562   1.188   3.371  15.246  0.2714  1.7279  0.7327
 2357TIP3    H228563   1.274   3.274  15.324 -1.0232  0.3696  0.5148
 2358TIP3   OH228564   1.393   0.246   0.048 -0.5956 -0.0479  0.2190
 2358TIP3    H128565   1.485   0.243   0.021 -0.3734 -2.9878  0.8654
 2358TIP3    H228566   1.347   0.286  -0.026  1.0522  0.2801 -0.6732
 2359TIP3   OH228567   0.180   6.187  13.540 -0.1104  0.4256  0.3934
 2359TIP3    H128568   0.170   6.095  13.566  1.8214  0.2379  0.5779
 2359TIP3    H228569   0.159   6.236  13.620 -0.7421  0.1545  0.4063
 2360TIP3   OH228570   6.417   0.101  15.739 -0.1690 -0.1425  0.2063
 2360TIP3    H128571   6.418   0.011  15.770  3.4588  0.4551  2.3954
 2360TIP3    H228572   6.399   0.094  15.645  1.9592 -3.3713 -0.1092
 2361TIP3   OH228573   2.278   4.838  12.368 -0.1671  0.0356 -0.6290
 2361TIP3    H128574   2.357   4.823  12.316 -0.4992  2.1967 -1.8884
 2361TIP3    H228575   2.213   4.868  12.304 -1.9397 -1.3192  0.4260
 2362TIP3   OH228576   4.378   5.193   3.188 -0.7059 -0.0682 -0.0113
 2362TIP3    H128577   4.321   5.212   3.263 -0.9228 -2.2793  0.4624
 2362TIP3    H228578   4.321   5.150   3.124 -0.3972  1.2961 -1.2527
 2363TIP3   OH228579   5.768   3.840  13.339  0.5472 -0.1514  0.2525
 2363TIP3    H128580   5.746   3.747  13.331  1.5598 -0.7659  3.2493
 2363TIP3    H228581   5.689   3.879  13.376  0.8795 -0.3135  1.1656
 2364TIP3   OH228582   5.811   6.738  16.419 -0.0112  0.0473 -0.0628
 2364TIP3    H128583   5.882   6.676  16.436  0.7474  0.9708  0.2502
 2364TIP3    H228584   5.740   6.709  16.476  1.3315  1.1195  2.3121
 2365TIP3   OH228585   4.533   2.219  16.361  0.2703  0.2079 -0.6201
 2365TIP3    H128586   4.497   2.302  16.395 -0.6543 -0.3304 -0.2412
 2365TIP3    H228587   4.463   2.155  16.376  0.3047 -0.3033 -2.4675
 2366TIP3   OH228588   6.300   4.690  13.208  0.6107  0.0410 -0.4325
 2366TIP3    H128589   6.310   4.630  13.134  2.5431  1.1591 -1.1423
 2366TIP3    H228590   6.227   4.748  13.182  0.4424 -0.3714 -0.8924
 2367TIP3   OH228591   4.657   4.704   1.692 -0.2223  0.2698  0.1647
 2367TIP3    H128592   4.739   4.749   1.712  0.7083 -1.6322  0.8146
 2367TIP3    H228593   4.679   4.644   1.620 -1.5536  1.1254 -1.0224
 2368TIP3   OH228594   4.610   0.111  15.142  0.2731 -0.0905 -0.2149
 2368TIP3    H128595   4.701   0.135  15.124  0.6220  0.3372  1.8448
 2368TIP3    H228596   4.575   0.186  15.190 -0.1937 -1.5281  1.7977
 2369TIP3   OH228597   6.123   2.259   5.238  0.2334  0.2248 -0.5532
 2369TIP3    H128598   6.082   2.186   5.285 -0.3802  1.6207  1.2361
 2369TIP3    H228599   6.144   2.224   5.152 -0.5997 -1.8671  0.0269
 2370TIP3   OH228600   3.943   3.661  10.939 -0.1766  0.0321 -0.2319
 2370TIP3    H128601   3.888   3.617  10.874  0.8993 -0.6188 -0.7352
 2370TIP3    H228602   3.987   3.731  10.890  1.7870 -1.3859 -0.6456
 2371TIP3   OH228603   6.148   3.362  12.830  0.2324  0.6751  0.0351
 2371TIP3    H128604   6.053   3.349  12.836 -0.0915  1.1145 -2.8893
 2371TIP3    H228605   6.185   3.282  12.868 -1.4578 -1.6735 -2.7757
 2372TIP3   OH228606   4.115   2.377   1.659  0.0505  0.5292  0.1824
 2372TIP3    H128607   4.080   2.288   1.657  0.7250  0.1923  2.0417
 2372TIP3    H228608   4.042   2.430   1.690 -1.2599  1.1740 -3.4707
 2373TIP3   OH228609   6.582   6.588   3.630  0.2099  0.3282 -0.4049
 2373TIP3    H128610   6.627   6.663   3.669 -0.5050  0.9178 -0.7105
 2373TIP3    H228611   6.634   6.512   3.658  0.1100  0.7961  1.1250
 2374TIP3   OH228612   0.655   0.379  15.383  0.0853 -0.3664  0.6954
 2374TIP3    H128613   0.568   0.376  15.424 -0.0171 -0.4343  0.4735
 2374TIP3    H228614   0.715   0.393  15.456 -0.0951 -0.5226  0.8766
 2375TIP3   OH228615   3.439   4.960   0.812 -0.0751 -0.3951  0.2411
 2375TIP3    H128616   3.412   4.888   0.754 -2.2405  1.0332 -0.6230
 2375TIP3    H228617   3.383   5.033   0.787  3.2547  2.2219 -0.1522
 2376TIP3   OH228618   5.669   0.976   1.216  0.2149  1.1171  0.7590
 2376TIP3    H128619   5.697   1.061   1.183  0.6306  0.7243  0.0595
 2376TIP3    H228620   5.730   0.914   1.175 -1.0882  0.3187 -0.0502
 2377TIP3   OH228621   4.314   3.449   3.267  0.1145  0.0314  0.3284
 2377TIP3    H128622   4.307   3.470   3.360 -0.1087  1.5236  0.0101
 2377TIP3    H228623   4.404   3.472   3.243  0.1312 -0.2153  0.1485
 2378TIP3   OH228624   6.484   1.843   1.230  0.2733  0.5679  0.0452
 2378TIP3    H128625   6.422   1.786   1.185  2.0986 -1.9929  0.5529
 2378TIP3    H228626   6.479   1.816   1.322  1.4208  0.9511  0.2392
 2379TIP3   OH228627   4.467   6.379  13.422 -0.4891 -0.1746 -0.0750
 2379TIP3    H128628   4.452   6.379  13.517 -3.2039  1.3566 -0.4192
 2379TIP3    H228629   4.437   6.293  13.393 -0.1090 -0.4645  0.3698
 2380TIP3   OH228630   6.216   5.528   3.521  0.0642 -0.1541  0.2600
 2380TIP3    H128631   6.185   5.594   3.460 -1.0406 -0.7997  0.0982
 2380TIP3    H228632   6.185   5.557   3.607  0.1360 -0.1265  0.2765
 2381TIP3   OH228633   0.425   0.087   1.247 -0.2174  0.1757  0.5218
 2381TIP3    H128634   0.477   0.148   1.195  1.1571  0.2822  1.9480
 2381TIP3    H228635   0.472   0.003   1.239 -1.6532 -0.5627 -0.7846
 2382TIP3   OH228636   5.132   0.300  15.998  0.2325 -0.0526  0.1416
 2382TIP3    H128637   5.125   0.329  15.907  1.4879  1.1296  0.3872
 2382TIP3    H228638   5.188   0.222  15.994  2.2749  1.3261  0.0748
 2383TIP3   OH228639   5.313   5.226   5.878  0.0915  0.2561  0.0153
 2383TIP3    H128640   5.362   5.308   5.874 -0.2908  0.4459 -1.5465
 2383TIP3    H228641   5.314   5.193   5.788  1.1707 -2.0478  0.7980
 2384TIP3   OH228642   3.352   6.511   4.460 -0.1665 -0.5358 -0.0361
 2384TIP3    H128643   3.447   6.509   4.455 -0.1165 -0.4574  0.7902
 2384TIP3    H228644   3.325   6.558   4.381  0.6246  2.2643  1.2401
 2385TIP3   OH228645   2.459   3.585  13.968 -0.0228  0.4336 -0.3572
 2385TIP3    H128646   2.373   3.576  13.928 -0.4708 -0.3054  0.7336
 2385TIP3    H228647   2.454   3.667  14.017  0.0516  0.6013 -0.6210
 2386TIP3   OH228648   0.171   2.341   2.967  0.2841 -0.3056  0.4770
 2386TIP3    H128649   0.236   2.394   3.012  1.1042 -0.6850 -0.2439
 2386TIP3    H228650   0.103   2.326   3.033  1.5919 -1.0974  1.6964
 2387TIP3   OH228651   0.405   6.518   2.363  0.1239 -0.1902  0.1206
 2387TIP3    H128652   0.321   6.559   2.343 -0.3051 -0.6772  0.8605
 2387TIP3    H228653   0.382   6.438   2.411  0.9834 -0.7408 -0.3520
 2388TIP3   OH228654   1.751   1.539   1.142  0.1877 -0.5576 -0.0419
 2388TIP3    H128655   1.658   1.526   1.162  0.0382  0.4436 -0.0526
 2388TIP3    H228656   1.779   1.610   1.200  1.0959 -1.2072  0.3552
 2389TIP3   OH228657   0.392   6.207  15.612  0.2139 -0.0719 -0.1411
 2389TIP3    H128658   0.302   6.176  15.606 -0.2497  1.4400 -1.8953
 2389TIP3    H228659   0.432   6.152  15.679 -1.5653 -1.8497 -0.4418
 2390TIP3   OH228660   4.141   0.536  15.223  0.4295  0.1678  0.3440
 2390TIP3    H128661   4.088   0.615  15.236 -1.2322 -1.2056  2.8096
 2390TIP3    H228662   4.100   0.494  15.147 -1.2289 -0.1728  1.3628
 2391TIP3   OH228663   1.962   2.040   2.827  1.0849  0.0721 -0.1791
 2391TIP3    H128664   2.015   2.098   2.773  3.1693 -0.9468  0.6416
 2391TIP3    H228665   2.000   2.048   2.915 -1.3954  0.7468  0.9382
 2392TIP3   OH228666   3.437   4.654  12.222  0.4153  0.4018 -0.4095
 2392TIP3    H128667   3.397   4.636  12.307  0.5271  0.0468 -0.4298
 2392TIP3    H228668   3.368   4.697  12.171  0.2797  0.4142 -0.2157
 2393TIP3   OH228669   3.577   2.736  11.011  0.3147 -0.4906 -0.3093
 2393TIP3    H128670   3.578   2.664  11.075  1.6706 -0.3380 -0.1211
 2393TIP3    H228671   3.638   2.800  11.047 -0.8549  0.7603 -0.4951
 2394TIP3   OH228672   1.777   4.960  11.241  0.2728  0.5348 -0.1668
 2394TIP3    H128673   1.768   4.976  11.147  0.8942 -0.4613 -0.4133
 2394TIP3    H228674   1.864   4.920  11.250 -0.6351 -1.3737  0.5432
 2395TIP3   OH228675   4.359   3.446   4.889  0.2381 -0.8392  0.2744
 2395TIP3    H128676   4.382   3.510   4.956 -0.2442 -0.3353 -0.0287
 2395TIP3    H228677   4.441   3.427   4.844  0.5942 -1.2894  1.0896
 2396TIP3   OH228678   2.653   4.779   0.571 -0.4511  0.4959  0.1341
 2396TIP3    H128679   2.640   4.864   0.530 -0.3878  0.6053  0.3410
 2396TIP3    H228680   2.571   4.732   0.555 -1.3506  1.3823  1.9049
 2397TIP3   OH228681   6.759   6.317  15.466 -0.0137 -0.2130 -0.2320
 2397TIP3    H128682   6.742   6.391  15.408  0.2296 -0.4719 -0.6426
 2397TIP3    H228683   6.763   6.242  15.408  1.9568 -0.2528 -0.1174
 2398TIP3   OH228684   4.773   4.961   0.529  0.2843 -0.5099 -0.4565
 2398TIP3    H128685   4.767   5.050   0.565 -0.2583 -0.9626  0.6220
 2398TIP3    H228686   4.768   4.904   0.605 -0.5386 -1.5048 -1.2201
 2399TIP3   OH228687   6.040   6.484   5.961 -0.1891  0.5700 -0.3455
 2399TIP3    H128688   5.989   6.525   5.891 -1.0263  0.6373  0.2824
 2399TIP3    H228689   5.981   6.418   5.998 -0.4004  1.6857  1.3958
 2400TIP3   OH228690   3.009   0.176   6.721 -0.0870  0.1504 -0.9709
 2400TIP3    H128691   3.043   0.224   6.646  0.0212 -0.5836 -1.4025
 2400TIP3    H228692   3.066   0.099   6.730  0.3539  0.5925  0.3214
 2401TIP3   OH228693   5.603   4.477  13.797 -0.3923 -0.3108 -0.3290
 2401TIP3    H128694   5.650   4.397  13.821 -0.1626 -0.6088 -1.6952
 2401TIP3    H228695   5.559   4.505  13.878  0.1553 -1.3804  0.3515
 2402TIP3   OH228696   6.331   1.821  16.113  0.0699  0.4772  0.1129
 2402TIP3    H128697   6.240   1.797  16.097 -0.2490  1.2500  0.6628
 2402TIP3    H228698   6.332   1.855  16.202  1.2440 -1.1075  0.7589
 2403TIP3   OH228699   1.120   5.420  11.945  0.5551 -0.2346  0.2235
 2403TIP3    H128700   1.201   5.409  11.895  0.3852  0.1818 -0.1581
 2403TIP3    H228701   1.148   5.425  12.036  1.0802  1.0916  0.0048
 2404TIP3   OH228702   0.722   0.192   2.268 -0.2512  0.3378 -0.0278
 2404TIP3    H128703   0.744   0.282   2.246  0.3719 -0.0354 -1.0222
 2404TIP3    H228704   0.669   0.198   2.347  0.1991  1.5361  0.1960
 2405TIP3   OH228705   0.423   1.430   3.207  0.0947  0.4586 -0.1004
 2405TIP3    H128706   0.460   1.518   3.216  0.3181  0.4722 -1.0437
 2405TIP3    H228707   0.342   1.433   3.257 -0.9568  1.8497 -1.7933
 2406TIP3   OH228708   0.460   1.794   5.494  0.6481 -0.2870 -0.0278
 2406TIP3    H128709   0.463   1.699   5.494  2.3567 -0.3457 -2.5943
 2406TIP3    H228710   0.541   1.821   5.536  0.6507  0.0087 -0.2162
 2407TIP3   OH228711   6.606   5.213   0.819 -0.0115  0.2756  0.4299
 2407TIP3    H128712   6.534   5.223   0.882 -0.7233 -0.1726 -0.2929
 2407TIP3    H228713   6.660   5.142   0.855  1.0366  1.7062  1.8421
 2408TIP3   OH228714   6.300   2.271  15.416 -0.2662  0.4821  0.5496
 2408TIP3    H128715   6.232   2.324  15.455 -0.9933  0.1554 -0.2502
 2408TIP3    H228716   6.256   2.220  15.348  0.7792  0.3289 -0.0504
 2409TIP3   OH228717   1.018   6.599  11.772  0.1286  0.3122  0.4411
 2409TIP3    H128718   1.031   6.512  11.734 -0.4441  0.6053 -0.4416
 2409TIP3    H228719   0.994   6.581  11.863  1.7984 -0.3815  0.7826
 2410TIP3   OH228720   4.318   6.156  12.596 -0.1423 -0.9383 -0.6833
 2410TIP3    H128721   4.365   6.106  12.663 -1.2629 -1.1181 -0.0028
 2410TIP3    H228722   4.226   6.136  12.612 -0.8668  2.9499  0.9825
 2411TIP3   OH228723   3.077   5.408   1.006 -0.1238 -0.3450 -0.2226
 2411TIP3    H128724   3.164   5.388   1.040 -2.1794 -4.9173  3.4858
 2411TIP3    H228725   3.071   5.359   0.924  0.7779  0.1025 -0.5654
 2412TIP3   OH228726   6.554   1.790  11.668  0.3101  0.0798 -0.4407
 2412TIP3    H128727   6.625   1.853  11.652  0.1046  0.5822  0.5366
 2412TIP3    H228728   6.549   1.783  11.763  0.4172 -1.5494 -0.5413
 2413TIP3   OH228729   0.088   2.354   4.206  0.0759 -0.5211 -0.1962
 2413TIP3    H128730   0.165   2.373   4.152  0.6983  0.4895  0.9914
 2413TIP3    H228731   0.104   2.266   4.240 -0.2799 -1.1340 -1.5464
 2414TIP3   OH228732   4.985   6.389   2.468  0.2298 -0.7679 -0.0472
 2414TIP3    H128733   4.910   6.378   2.410  1.3447  1.5596 -2.1294
 2414TIP3    H228734   4.954   6.447   2.537 -0.2605 -0.9507 -0.1138
 2415TIP3   OH228735   5.080   4.853   2.226 -0.3220 -0.3586 -0.4170
 2415TIP3    H128736   5.019   4.779   2.233 -0.7766 -0.0801 -1.2577
 2415TIP3    H228737   5.032   4.919   2.176  0.3700  0.1955 -0.3705
 2416TIP3   OH228738   0.484   3.152  13.074  0.3114 -0.1436 -0.0438
 2416TIP3    H128739   0.510   3.152  12.982  0.3633 -0.2402 -0.0290
 2416TIP3    H228740   0.405   3.097  13.076 -0.4259  0.8770 -0.2375
 2417TIP3   OH228741   1.817   1.246   1.124 -0.9311 -0.5612 -0.6157
 2417TIP3    H128742   1.790   1.334   1.153 -1.0751 -0.7576 -0.1466
 2417TIP3    H228743   1.892   1.262   1.067 -0.9408 -0.1304 -0.5154
 2418TIP3   OH228744   1.158   3.814  11.679 -0.2432  0.7267  0.1223
 2418TIP3    H128745   1.075   3.823  11.632 -0.8704 -2.2655  0.4084
 2418TIP3    H228746   1.168   3.895  11.728 -1.9707  1.9763 -1.4651
 2419TIP3   OH228747   2.407   2.793  12.908  0.2859 -0.1964  0.6751
 2419TIP3    H128748   2.441   2.772  12.995 -0.8308 -0.0480  1.1640
 2419TIP3    H228749   2.393   2.708  12.867  1.5101 -0.2579  0.3455
 2420TIP3   OH228750   1.351   6.276  13.097 -0.2378 -0.0261 -0.0720
 2420TIP3    H128751   1.368   6.348  13.036 -0.0665 -0.7435 -0.8816
 2420TIP3    H228752   1.436   6.256  13.136 -0.2739  0.1504  0.1035
 2421TIP3   OH228753   2.509   4.585   5.387 -0.4216 -0.7958  0.4623
 2421TIP3    H128754   2.503   4.649   5.315 -0.0611 -1.7316 -0.4229
 2421TIP3    H228755   2.418   4.564   5.408 -0.5346 -1.5931 -0.7299
 2422TIP3   OH228756   0.868   3.155   2.987  0.2863  0.0571 -0.4647
 2422TIP3    H128757   0.787   3.205   2.971  0.8773  1.1647 -0.1130
 2422TIP3    H228758   0.846   3.100   3.062 -0.4935 -0.5023 -1.0821
 2423TIP3   OH228759   6.087   0.012   4.694  0.0085 -0.4199 -0.2232
 2423TIP3    H128760   6.083   0.043   4.785  0.0782  1.9542 -0.9631
 2423TIP3    H228761   5.995   0.005   4.667 -0.0038  0.1482 -0.3465
 2424TIP3   OH228762   5.552   4.626  10.769 -0.1411 -0.1525  0.7109
 2424TIP3    H128763   5.572   4.532  10.773  3.9789  0.5216  0.2766
 2424TIP3    H228764   5.545   4.652  10.861 -1.6917 -0.8637  0.8327
 2425TIP3   OH228765   4.877   3.505  12.184 -0.6852  0.3788 -0.6761
 2425TIP3    H128766   4.881   3.600  12.188  0.2138  0.3519 -0.8716
 2425TIP3    H228767   4.794   3.483  12.227  0.1614  1.1096  1.4576
 2426TIP3   OH228768   5.638   2.303  14.367 -0.5117 -0.1806  0.0278
 2426TIP3    H128769   5.681   2.251  14.434  0.6877 -1.6279 -1.7804
 2426TIP3    H228770   5.548   2.269  14.363 -0.6402  0.0225  0.9490
 2427TIP3   OH228771   1.179   6.372   3.059  0.3864  0.4561 -0.1221
 2427TIP3    H128772   1.212   6.314   2.991  0.1087 -0.4675  0.5073
 2427TIP3    H228773   1.083   6.362   3.056  0.4309 -0.7502  1.3586
 2428TIP3   OH228774   2.027   3.907   1.959 -0.0217 -0.0932 -0.7043
 2428TIP3    H128775   2.095   3.867   2.014 -0.5110  0.5231  0.3914
 2428TIP3    H228776   2.002   3.838   1.898 -0.6774 -1.4349  0.9834
 2429TIP3   OH228777   2.787   4.445   2.717 -0.5041 -0.5029 -0.6519
 2429TIP3    H128778   2.817   4.502   2.645 -1.6202 -0.0547 -0.7821
 2429TIP3    H228779   2.710   4.490   2.752 -0.5136 -1.1935  0.2279
 2430TIP3   OH228780   4.323   4.051  11.346 -0.5959 -0.0771  0.1034
 2430TIP3    H128781   4.291   3.971  11.387 -3.0818  0.2130 -1.0863
 2430TIP3    H228782   4.298   4.121  11.406  1.5776 -0.0983  1.1458
 2431TIP3   OH228783   6.385   2.046  13.443 -0.8297  0.0477 -0.2685
 2431TIP3    H128784   6.374   1.990  13.520  1.9259 -0.5817 -0.2065
 2431TIP3    H228785   6.362   1.990  13.369 -1.1542 -0.1329 -0.0335
 2432TIP3   OH228786   5.912   2.419  12.748  0.3643  0.3214 -0.1032
 2432TIP3    H128787   5.854   2.493  12.766 -0.8277 -0.5145 -0.4268
 2432TIP3    H228788   5.857   2.355  12.704  1.1486 -1.1288  0.9449
 2433TIP3   OH228789   1.884   6.365   4.830 -0.0867  0.1188 -0.1202
 2433TIP3    H128790   1.796   6.344   4.799 -0.8631  1.8350  0.7561
 2433TIP3    H228791   1.937   6.372   4.751 -0.8330 -0.5193 -0.6863
 2434TIP3   OH228792   1.558   1.738   0.934  0.7370  0.5144 -0.3470
 2434TIP3    H128793   1.536   1.801   1.002 -1.8044  2.0391 -2.3917
 2434TIP3    H228794   1.637   1.774   0.893  0.2656  1.4972 -0.4159
 2435TIP3   OH228795   2.404   0.127  12.332 -0.9124  0.2888 -0.2462
 2435TIP3    H128796   2.346   0.077  12.273 -0.8668 -1.2292  0.9222
 2435TIP3    H228797   2.369   0.216  12.330 -2.4120 -0.2681 -0.7016
 2436TIP3   OH228798   1.893   3.204   5.022  0.4649  0.7417  0.6580
 2436TIP3    H128799   1.834   3.160   4.961 -1.5758  1.1723  2.2185
 2436TIP3    H228800   1.950   3.134   5.055 -1.7716 -0.5963  2.0103
 2437TIP3   OH228801   4.613   4.340   2.117  0.0075  1.0449  0.2918
 2437TIP3    H128802   4.692   4.286   2.128  0.2392  1.0085 -1.2537
 2437TIP3    H228803   4.562   4.323   2.196 -0.5021 -2.4681 -0.5954
 2438TIP3   OH228804   6.519   1.929   4.350  0.4479 -0.1280 -0.4078
 2438TIP3    H128805   6.481   1.937   4.263 -1.1732 -0.0160  0.2608
 2438TIP3    H228806   6.447   1.894   4.404  0.8243  1.4838  1.2432
 2439TIP3   OH228807   4.809   4.677   5.592 -0.1208 -0.2300  0.0513
 2439TIP3    H128808   4.817   4.616   5.518  0.8075  0.8458 -0.7590
 2439TIP3    H228809   4.890   4.727   5.591  0.2145 -0.6052  2.2183
 2440TIP3   OH228810   0.945   4.289   2.890 -0.0626  0.3288  0.4207
 2440TIP3    H128811   0.910   4.326   2.810  1.3091 -1.5024 -1.1232
 2440TIP3    H228812   0.998   4.215   2.861 -0.6709 -1.2974  3.1294
 2441TIP3   OH228813   0.788   5.513   0.674  0.4653  0.0230  0.1806
 2441TIP3    H128814   0.724   5.487   0.608 -1.8307 -0.1953  2.3569
 2441TIP3    H228815   0.824   5.595   0.641  0.1064 -0.5397 -1.7546
 2442TIP3   OH228816   4.067   6.235   6.322  0.7270 -0.2472  0.4411
 2442TIP3    H128817   4.039   6.233   6.414 -2.0989  0.0367 -0.3285
 2442TIP3    H228818   4.133   6.166   6.317  0.4455 -0.7657  2.5499
 2443TIP3   OH228819   1.691   4.591   4.561  0.1629 -0.0960  0.2569
 2443TIP3    H128820   1.655   4.583   4.649 -3.0580  1.9998 -0.7021
 2443TIP3    H228821   1.614   4.587   4.503  2.0058  0.0347 -2.3872
 2444TIP3   OH228822   0.739   6.146   0.384  0.0824 -0.0839 -0.3253
 2444TIP3    H128823   0.714   6.091   0.309  3.4815 -1.1206 -0.8726
 2444TIP3    H228824   0.783   6.222   0.344  2.5164 -0.9628  0.5118
 2445TIP3   OH228825   1.680   1.014  16.896  0.7902 -0.1361  0.2631
 2445TIP3    H128826   1.724   1.021  16.811 -2.1875 -1.5670 -1.5573
 2445TIP3    H228827   1.587   1.017  16.875 -0.0871 -1.4294  3.3952
 2446TIP3   OH228828   5.901   3.962   4.766  0.4594  0.1271 -0.1668
 2446TIP3    H128829   5.865   3.964   4.855 -0.4448 -0.1385 -0.5073
 2446TIP3    H228830   5.832   3.920   4.714  0.5651  1.1577 -1.1677
 2447TIP3   OH228831   3.137   2.975  14.946 -0.4647 -0.4165  0.3065
 2447TIP3    H128832   3.134   2.881  14.962 -1.0072 -0.5138 -0.2843
 2447TIP3    H228833   3.078   3.013  15.012  0.7642 -0.3469  1.3896
 2448TIP3   OH228834   5.712   4.909   3.222 -0.2479 -0.7034 -0.0214
 2448TIP3    H128835   5.732   4.913   3.315  1.2690 -0.6909 -0.3161
 2448TIP3    H228836   5.709   5.000   3.193  2.5107 -0.7084 -0.5689
 2449TIP3   OH228837   3.717   1.604   3.693 -0.5594 -0.3507  0.3479
 2449TIP3    H128838   3.789   1.616   3.755  2.2122 -1.8315 -2.3059
 2449TIP3    H228839   3.678   1.520   3.716  2.7565 -2.7186 -1.7176
 2450TIP3   OH228840   1.518   5.114   1.084 -0.0046  0.3280 -0.3199
 2450TIP3    H128841   1.452   5.179   1.108 -0.1890  0.4823 -1.1956
 2450TIP3    H228842   1.524   5.120   0.988 -0.4104 -1.3012 -0.4906
 2451TIP3   OH228843   3.410   6.237   0.489  0.3798 -0.3930  0.2500
 2451TIP3    H128844   3.407   6.310   0.426 -1.3713 -0.5419  0.1264
 2451TIP3    H228845   3.500   6.205   0.483 -0.1779 -1.8398 -3.9189
 2452TIP3   OH228846   6.156   5.564   0.048  0.3670 -0.1292  0.3001
 2452TIP3    H128847   6.083   5.547   0.107 -0.0141  0.4354 -0.0011
 2452TIP3    H228848   6.223   5.501   0.074  1.0067  1.4400  2.7241
 2453TIP3   OH228849   4.340   3.501  12.732  0.2011  0.3647  0.1684
 2453TIP3    H128850   4.349   3.543  12.647 -1.9402  1.0973  0.2418
 2453TIP3    H228851   4.298   3.417  12.713 -0.1965  0.4904  0.4696
 2454TIP3   OH228852   5.895   5.574   5.689 -0.3724  0.0156 -0.4166
 2454TIP3    H128853   5.835   5.502   5.707 -0.2070  0.4851  2.4958
 2454TIP3    H228854   5.883   5.592   5.596 -2.3348 -2.0215 -0.6549
 2455TIP3   OH228855   4.591   2.155   0.207 -0.1215 -0.6304 -0.0964
 2455TIP3    H128856   4.642   2.236   0.212  0.2202 -0.8365 -0.2301
 2455TIP3    H228857   4.629   2.107   0.134 -0.7543 -0.6204 -0.4366
 2456TIP3   OH228858   2.707   6.204   6.739 -0.0268 -0.2944  0.2815
 2456TIP3    H128859   2.744   6.193   6.827  0.3756 -3.2079 -0.1423
 2456TIP3    H228860   2.658   6.123   6.724 -0.1044  0.1371 -2.1782
 2457TIP3   OH228861   4.774   2.014  12.820 -0.0023 -0.0890  0.0056
 2457TIP3    H128862   4.815   1.970  12.745 -1.7814 -1.1426 -0.3944
 2457TIP3    H228863   4.753   1.943  12.880 -0.1868  0.5640  0.7242
 2458TIP3   OH228864   1.059   1.249   2.798  0.4678 -0.6403 -0.3904
 2458TIP3    H128865   1.098   1.313   2.738  2.1285 -0.9012  0.3349
 2458TIP3    H228866   1.078   1.164   2.758 -1.8652 -0.7413 -1.4278
 2459TIP3   OH228867   4.018   4.312   2.027 -0.1334  0.9123 -0.6654
 2459TIP3    H128868   3.947   4.328   2.090 -2.3019  0.3534 -2.8213
 2459TIP3    H228869   3.990   4.234   1.979  1.2193  1.5339 -2.5916
 2460TIP3   OH228870   5.232   5.747  14.662 -0.1385  0.3626  0.3961
 2460TIP3    H128871   5.158   5.806  14.676 -1.0922 -0.9560  1.0843
 2460TIP3    H228872   5.207   5.696  14.585  0.4444  0.4707  0.1274
 2461TIP3   OH228873   2.964   1.996  16.096  0.0703  0.1981 -0.1209
 2461TIP3    H128874   3.024   1.923  16.080  1.7413  1.5413 -0.2112
 2461TIP3    H228875   2.899   1.960  16.157 -0.3073 -1.9132 -1.6425
 2462TIP3   OH228876   4.031   0.844   5.234  0.3852 -0.4427  0.2885
 2462TIP3    H128877   4.087   0.830   5.157  1.2364  3.3797 -0.0073
 2462TIP3    H228878   4.088   0.887   5.298 -1.4429  0.9435  1.1041
 2463TIP3   OH228879   3.411   5.759   2.292 -0.2265  0.5603  0.0891
 2463TIP3    H128880   3.399   5.667   2.315  1.4417  0.2005 -0.3592
 2463TIP3    H228881   3.425   5.803   2.376 -4.0380  1.0090  0.6578
 2464TIP3   OH228882   6.163   1.777  13.980  0.1890  0.1369 -0.8437
 2464TIP3    H128883   6.147   1.720  14.056  2.7953 -0.2724 -0.4761
 2464TIP3    H228884   6.127   1.862  14.005  1.7984  0.2696  1.3190
 2465TIP3   OH228885   3.831   2.000  17.164  0.4241 -0.1576  0.7081
 2465TIP3    H128886   3.916   2.043  17.174  0.8583 -1.2041  1.8201
 2465TIP3    H228887   3.771   2.053  17.215  0.4872  0.3510  0.2649
 2466TIP3   OH228888   2.087   4.238  10.491  0.0429 -0.0243  0.1829
 2466TIP3    H128889   2.126   4.178  10.428 -2.2155  0.2700 -1.6211
 2466TIP3    H228890   2.028   4.183  10.543  0.7670  0.0106  1.0700
 2467TIP3   OH228891   1.194   2.136   3.869  0.3321  0.0855 -0.0612
 2467TIP3    H128892   1.225   2.133   3.778  0.7610  0.2659  0.0761
 2467TIP3    H228893   1.254   2.078   3.917  0.3314  0.2741  0.1688
 2468TIP3   OH228894   4.567   0.964   0.884  0.1528 -0.1232  0.5856
 2468TIP3    H128895   4.609   1.009   0.812 -0.6385 -0.4055 -0.0668
 2468TIP3    H228896   4.591   0.872   0.872  1.5376  0.0429  1.7539
 2469TIP3   OH228897   2.934   4.461  16.086 -0.5292  0.4329 -0.4544
 2469TIP3    H128898   2.867   4.423  16.142  0.0854 -0.8971 -0.5792
 2469TIP3    H228899   2.918   4.555  16.089  0.2201  0.5705  2.9512
 2470TIP3   OH228900   5.058   2.931  14.240 -0.0251 -0.0249 -0.4778
 2470TIP3    H128901   5.036   2.889  14.323  2.1342  1.0732  0.7556
 2470TIP3    H228902   5.089   2.860  14.183 -0.5675 -0.6600  0.0150
 2471TIP3   OH228903   6.544   5.751  14.671  0.1936  0.2655  0.1764
 2471TIP3    H128904   6.492   5.818  14.627  0.0115 -0.0401 -0.0790
 2471TIP3    H228905   6.525   5.763  14.764  0.0865  0.5021  0.1254
 2472TIP3   OH228906   4.319   2.571  17.166  0.2298 -0.0786  0.4027
 2472TIP3    H128907   4.377   2.560  17.091  1.0795  1.1147  0.8483
 2472TIP3    H228908   4.242   2.615  17.132  0.8321  0.9248  0.2987
 2473TIP3   OH228909   3.202   1.195  15.515 -0.0223  0.1466  0.0446
 2473TIP3    H128910   3.278   1.145  15.486 -0.3200 -0.6306  0.5667
 2473TIP3    H228911   3.129   1.158  15.466  0.1372  2.0325 -1.7552
 2474TIP3   OH228912   5.369   5.392  15.456  0.9406 -0.2024 -0.3317
 2474TIP3    H128913   5.374   5.384  15.361  2.1251 -2.0726 -0.1688
 2474TIP3    H228914   5.457   5.370  15.487  0.5470  0.2341  1.2125
 2475TIP3   OH228915   5.168   3.051  12.215 -0.3922 -0.1117  0.2284
 2475TIP3    H128916   5.166   3.128  12.271 -2.4669  0.8571 -1.0362
 2475TIP3    H228917   5.198   3.084  12.130 -0.5433 -0.8575 -0.1275
 2476TIP3   OH228918   6.160   2.244  15.921 -0.0777 -0.4244  0.2236
 2476TIP3    H128919   6.160   2.204  16.008  1.7763  0.1330  0.5194
 2476TIP3    H228920   6.216   2.320  15.929  1.9206 -1.5281 -1.9471
 2477TIP3   OH228921   2.193   0.698  15.523 -0.4654 -0.0122 -0.2483
 2477TIP3    H128922   2.198   0.791  15.500 -1.4580  0.0461 -0.2648
 2477TIP3    H228923   2.270   0.659  15.481 -0.0759  0.7871 -0.2924
 2478TIP3   OH228924   2.660   5.739  12.708 -0.3403 -0.8336 -0.1756
 2478TIP3    H128925   2.657   5.647  12.733  1.8110 -1.1923 -1.0194
 2478TIP3    H228926   2.731   5.776  12.761 -1.1966  0.3620  0.1765
 2479TIP3   OH228927   4.484   4.820   2.095  0.1905 -0.2194 -0.9049
 2479TIP3    H128928   4.417   4.805   2.029 -0.8367  0.0376  0.0410
 2479TIP3    H228929   4.480   4.743   2.152 -0.2319  0.3808 -0.0894
 2480TIP3   OH228930   4.527   4.342   4.006  0.2149  0.3730 -0.3676
 2480TIP3    H128931   4.578   4.415   4.040  3.4043 -1.2514 -1.2431
 2480TIP3    H228932   4.543   4.271   4.069 -1.5704 -0.0713 -0.3504
 2481TIP3   OH228933   5.692   3.508   3.226  0.3013 -0.8689 -0.3008
 2481TIP3    H128934   5.720   3.541   3.311  1.3100  0.0133 -0.9643
 2481TIP3    H228935   5.621   3.567   3.200  1.9998  0.7629 -1.4159
 2482TIP3   OH228936   0.329   6.802  11.788  0.1598  0.4066 -0.0342
 2482TIP3    H128937   0.352   6.837  11.874 -1.3156  0.3429  0.4216
 2482TIP3    H228938   0.296   6.714  11.805  2.0044 -0.5337 -0.9573
 2483TIP3   OH228939   6.228   3.065  12.003  0.7267  0.0831 -0.4496
 2483TIP3    H128940   6.286   3.097  12.071  0.2960  0.1558 -0.1133
 2483TIP3    H228941   6.171   3.139  11.982 -1.6724 -0.9617  1.8014
 2484TIP3   OH228942   0.181   4.727  16.486  0.1461 -0.0855 -0.4568
 2484TIP3    H128943   0.170   4.665  16.558  0.7094  1.4045  0.9940
 2484TIP3    H228944   0.105   4.785  16.493  1.9000  2.1910  1.2349
 2485TIP3   OH228945   2.701   2.507  16.366 -0.0464 -0.5307 -0.1368
 2485TIP3    H128946   2.790   2.484  16.339  0.7036 -0.7505  2.2660
 2485TIP3    H228947   2.647   2.486  16.290  1.9228 -0.4732 -1.6407
 2486TIP3   OH228948   5.096   5.185  14.562 -0.1287  0.3064 -0.2729
 2486TIP3    H128949   5.069   5.095  14.579  0.9622 -0.2104 -1.1257
 2486TIP3    H228950   5.015   5.230  14.537 -0.5594 -0.6518 -0.6614
 2487TIP3   OH228951   5.466   4.120  15.955 -0.2582 -0.5361  0.5685
 2487TIP3    H128952   5.483   4.209  15.985  0.8582 -0.5173 -0.0376
 2487TIP3    H228953   5.520   4.111  15.876 -1.0347 -1.4582  0.1136
 2488TIP3   OH228954   6.487   6.170   3.727 -0.1952  0.5416  0.0910
 2488TIP3    H128955   6.460   6.129   3.810  0.5752  1.6747  0.9357
 2488TIP3    H228956   6.446   6.257   3.729  0.5272  0.9030 -0.3129
 2489TIP3   OH228957   2.422   1.580   2.129 -0.1403  0.1661  0.2022
 2489TIP3    H128958   2.405   1.486   2.119  3.4957 -0.5422 -0.5760
 2489TIP3    H228959   2.493   1.585   2.193  0.7353  2.2426 -0.8440
 2490TIP3   OH228960   3.086   1.426  14.610  0.1303  0.0103 -0.1495
 2490TIP3    H128961   3.176   1.455  14.623  0.5032 -1.6712  1.6763
 2490TIP3    H228962   3.091   1.358  14.543  0.1381  0.3030 -0.4435
 2491TIP3   OH228963   4.202   6.487   1.449 -0.0377 -0.0426 -0.4276
 2491TIP3    H128964   4.247   6.554   1.501  0.4668  0.3799 -1.3832
 2491TIP3    H228965   4.273   6.435   1.411 -0.3981 -0.2673 -0.8000
 2492TIP3   OH228966   2.869   4.933   1.860 -0.0141 -0.3512 -0.6559
 2492TIP3    H128967   2.875   4.893   1.773 -2.1788 -1.1632 -0.4976
 2492TIP3    H228968   2.775   4.935   1.879  0.4103 -0.2467  1.7093
 2493TIP3   OH228969   0.721   4.399  10.758  0.2271 -0.1078  0.2714
 2493TIP3    H128970   0.769   4.320  10.782  1.1412  0.5857  0.7966
 2493TIP3    H228971   0.785   4.469  10.766 -0.9830  0.9149  1.4341
 2494TIP3   OH228972   5.981   6.021  16.024 -0.3035  0.2213 -0.1247
 2494TIP3    H128973   5.904   6.079  16.023  0.5196  1.3550  0.0178
 2494TIP3    H228974   6.024   6.039  15.940  0.1084  0.0325  0.0459
 2495TIP3   OH228975   5.941   2.605   4.834 -0.4249  0.2136  0.1175
 2495TIP3    H128976   6.020   2.580   4.787 -0.5055  1.1995 -0.5793
 2495TIP3    H228977   5.943   2.552   4.914  0.6181 -0.2176 -0.1742
 2496TIP3   OH228978   1.058   5.523  15.536 -0.4324 -0.3311  0.0855
 2496TIP3    H128979   1.041   5.476  15.618 -4.3977  2.1457  0.9536
 2496TIP3    H228980   1.101   5.604  15.564 -0.8328  0.0490 -0.3757
 2497TIP3   OH228981   3.844   4.216   4.013 -0.0824 -0.6865 -0.6286
 2497TIP3    H128982   3.879   4.229   3.925  0.2838 -1.7495 -0.6503
 2497TIP3    H228983   3.813   4.303   4.039  1.1524 -0.0503 -1.2193
 2498TIP3   OH228984   0.599   0.106  12.303  0.5869 -0.2035 -0.1945
 2498TIP3    H128985   0.691   0.133  12.295  0.9746 -1.0714  1.0522
 2498TIP3    H228986   0.597   0.019  12.264  0.1856  0.0230 -0.6742
 2499TIP3   OH228987   4.890   5.275   4.005 -0.0709  0.1393 -0.7849
 2499TIP3    H128988   4.958   5.214   4.033 -0.5741 -0.8048 -1.5725
 2499TIP3    H228989   4.868   5.248   3.916 -0.2506  1.5319 -1.1877
 2500TIP3   OH228990   6.692   2.192  17.170 -0.2299 -0.2824  0.4577
 2500TIP3    H128991   6.702   2.125  17.238  0.0473 -0.3715  0.3300
 2500TIP3    H228992   6.781   2.224  17.154 -0.4413  0.6210  1.0190
 2501TIP3   OH228993   1.490   2.945  12.731  0.5479 -0.3560 -0.3833
 2501TIP3    H128994   1.474   3.038  12.715  0.7312 -0.2682 -0.0579
 2501TIP3    H228995   1.571   2.926  12.684  0.1003 -0.5345 -1.0914
 2502TIP3   OH228996   5.145   4.321   5.544 -0.3985  0.0416  0.7988
 2502TIP3    H128997   5.156   4.414   5.564 -1.7439  0.1101  1.3485
 2502TIP3    H228998   5.073   4.293   5.601 -0.5888 -1.1316  0.0126
 2503TIP3   OH228999   1.005   6.452  16.251 -0.3149  0.4241  0.5780
 2503TIP3    H129000   1.005   6.376  16.309 -2.0446 -0.9317 -1.0556
 2503TIP3    H229001   0.921   6.446  16.204 -0.3123  3.1061  0.0581
 2504TIP3   OH229002   5.478   3.206  16.372 -0.4468  0.0352  0.5825
 2504TIP3    H129003   5.430   3.233  16.450  0.8320 -0.8134  1.7035
 2504TIP3    H229004   5.497   3.288  16.326  0.9154  0.8549  2.4655
 2505TIP3   OH229005   1.120   2.922  10.850  1.1280 -0.0619  0.2362
 2505TIP3    H129006   1.116   2.846  10.792  0.6312 -1.0557  1.5357
 2505TIP3    H229007   1.030   2.956  10.851  1.3549  0.6037 -0.3731
 2506TIP3   OH229008   4.478   1.664   2.995  0.1606  0.0644 -0.4278
 2506TIP3    H129009   4.426   1.742   2.974 -0.7649 -0.4294 -0.0221
 2506TIP3    H229010   4.429   1.591   2.957 -0.5484 -0.6347  1.6862
 2507TIP3   OH229011   0.680   1.492  10.965  0.0265 -0.1510  0.1764
 2507TIP3    H129012   0.706   1.470  10.875 -1.6447  0.1158 -0.4105
 2507TIP3    H229013   0.742   1.559  10.993 -1.7979  2.8809 -2.3517
 2508TIP3   OH229014   4.906   0.064   4.120 -0.0599 -0.7311  0.2165
 2508TIP3    H129015   4.963   0.138   4.100 -1.3485  0.5341  1.0205
 2508TIP3    H229016   4.965  -0.009   4.137  1.2290 -0.2547 -1.8400
 2509TIP3   OH229017   5.264   5.768   3.043 -0.6012 -0.0147  0.2155
 2509TIP3    H129018   5.300   5.772   2.954 -0.2191  0.6692  0.3953
 2509TIP3    H229019   5.230   5.856   3.059 -0.3038 -0.0175  0.8984
 2510TIP3   OH229020   1.718   4.621   0.133  0.0188 -0.5159 -0.6390
 2510TIP3    H129021   1.792   4.663   0.089  2.1828 -1.4257  1.8812
 2510TIP3    H229022   1.747   4.611   0.224 -2.3086 -3.0171 -0.0603
 2511TIP3   OH229023   6.202   5.575  13.654  0.7944  0.4739 -0.5625
 2511TIP3    H129024   6.297   5.568  13.645  0.9109  0.3972  0.6015
 2511TIP3    H229025   6.185   5.554  13.746 -0.3161  0.8477 -0.6707
 2512TIP3   OH229026   5.974   5.134  14.527 -0.1167  0.2263  0.4704
 2512TIP3    H129027   5.914   5.095  14.591 -0.0209  0.9093  0.9788
 2512TIP3    H229028   6.039   5.065  14.510  1.2342  0.8089  2.8670
 2513TIP3   OH229029   1.950   2.544  13.938  0.3187  0.8675 -0.5038
 2513TIP3    H129030   1.992   2.481  13.997 -0.9023 -1.5750 -2.0600
 2513TIP3    H229031   1.869   2.568  13.982  1.4625  2.6251  0.7731
 2514TIP3   OH229032   0.787   3.373   5.407 -0.4853 -0.2069 -0.2345
 2514TIP3    H129033   0.758   3.392   5.318 -0.1866  0.2107 -0.2394
 2514TIP3    H229034   0.744   3.439   5.461  0.9363  0.8164 -0.3131
 2515TIP3   OH229035   2.648   1.880   3.323  0.1445 -0.4446 -0.0637
 2515TIP3    H129036   2.616   1.957   3.276  0.1130 -0.0478  0.5944
 2515TIP3    H229037   2.738   1.902   3.347 -0.4541  0.2022  1.7885
 2516TIP3   OH229038   2.996   1.376   4.375 -0.2228  0.2829  0.3797
 2516TIP3    H129039   3.000   1.461   4.418 -3.4719 -0.0431  1.6278
 2516TIP3    H229040   2.951   1.392   4.292 -0.5904 -0.1768  0.4869
 2517TIP3   OH229041   5.063   5.605  13.192 -0.6988  0.3806  0.6550
 2517TIP3    H129042   5.052   5.625  13.099 -0.7483 -1.3398  0.2672
 2517TIP3    H229043   5.003   5.533  13.209  1.1143 -1.0189  1.3971
 2518TIP3   OH229044   5.032   2.792   1.489  0.1202  0.1880 -0.0813
 2518TIP3    H129045   5.066   2.718   1.540  0.1403  0.3460  0.1393
 2518TIP3    H229046   4.997   2.753   1.409  0.2922 -0.0398 -0.0449
 2519TIP3   OH229047   4.265   0.161   1.990  0.2934  0.0762 -0.2909
 2519TIP3    H129048   4.214   0.239   1.970  1.3557  0.6252 -0.9855
 2519TIP3    H229049   4.333   0.159   1.922  0.2127 -1.5280 -0.3745
 2520TIP3   OH229050   0.027   0.708  16.286  0.3708 -0.1159  0.0058
 2520TIP3    H129051  -0.029   0.786  16.294 -2.1974 -1.7394 -1.0582
 2520TIP3    H229052   0.009   0.674  16.199  1.3356 -1.9786  0.4875
 2521TIP3   OH229053   3.353   5.795   1.685  0.0844 -0.0662 -0.0765
 2521TIP3    H129054   3.399   5.715   1.658 -2.1513 -1.8222  0.9752
 2521TIP3    H229055   3.413   5.839   1.745  1.0180 -1.4307  0.0214
 2522TIP3   OH229056   3.136   6.333  12.339  0.2892  0.0801 -0.0324
 2522TIP3    H129057   3.070   6.400  12.356  0.3213  0.1676 -0.2547
 2522TIP3    H229058   3.160   6.301  12.426 -1.9917 -1.8606 -0.0058
 2523TIP3   OH229059   5.164   6.464  15.995 -0.3350  0.0965  0.5412
 2523TIP3    H129060   5.168   6.495  16.085  0.2364 -1.0021  0.9132
 2523TIP3    H229061   5.149   6.543  15.943  3.3490  1.4879  1.2288
 2524TIP3   OH229062   4.618   5.067  12.303 -0.2762  0.0419 -0.1949
 2524TIP3    H129063   4.684   5.046  12.236 -1.2036 -0.9435 -0.8378
 2524TIP3    H229064   4.539   5.025  12.271 -1.5783  2.2704 -0.1091
 2525TIP3   OH229065   1.762   1.062   0.267 -0.3610 -0.2799  0.2649
 2525TIP3    H129066   1.704   1.082   0.193 -0.9621  0.0572  0.8135
 2525TIP3    H229067   1.850   1.074   0.232 -0.5676 -1.8103 -0.8731
 2526TIP3   OH229068   3.537   3.116  14.476 -0.1542 -0.0579 -0.7328
 2526TIP3    H129069   3.502   3.113  14.566  1.1539  1.1868 -0.1595
 2526TIP3    H229070   3.622   3.072  14.482 -0.2736 -0.4093 -1.4900
 2527TIP3   OH229071   6.185   3.334  12.561  0.3784  0.7711  0.0386
 2527TIP3    H129072   6.273   3.299  12.544  1.2448  1.8117  2.0313
 2527TIP3    H229073   6.168   3.313  12.653 -1.1546  1.2532 -0.1061
 2528TIP3   OH229074   2.903   2.616  13.263  0.2042 -0.1293 -0.2542
 2528TIP3    H129075   2.835   2.568  13.310 -1.2833  0.2781 -1.8792
 2528TIP3    H229076   2.904   2.703  13.304  0.4460 -0.4308  0.3961
 2529TIP3   OH229077   3.888   0.225  12.423 -0.1005 -0.2430 -0.4009
 2529TIP3    H129078   3.892   0.134  12.451 -0.3031  0.1922  1.1559
 2529TIP3    H229079   3.948   0.230  12.348  0.2023 -1.5617 -0.2649
 2530TIP3   OH229080   2.527   0.952   2.496  0.0435 -0.1311 -0.1214
 2530TIP3    H129081   2.439   0.988   2.502 -0.3169 -0.9781 -0.1522
 2530TIP3    H229082   2.567   0.969   2.582 -0.7115 -1.1371  0.4539
 2531TIP3   OH229083   1.715   3.894  12.172  0.0680  0.7216 -0.8042
 2531TIP3    H129084   1.772   3.951  12.121  1.7256 -0.8654 -0.8401
 2531TIP3    H229085   1.626   3.917  12.143  0.7571  2.2762 -1.8117
 2532TIP3   OH229086   0.466   3.592  11.495  0.4884  0.1568  0.0933
 2532TIP3    H129087   0.468   3.496  11.488 -1.4336  0.0379  0.4929
 2532TIP3    H229088   0.506   3.612  11.579  0.0681 -0.3843  0.4271
 2533TIP3   OH229089   5.762   3.045  10.477  0.3973 -0.3667 -0.4666
 2533TIP3    H129090   5.854   3.061  10.459  0.0411 -2.0044 -5.0942
 2533TIP3    H229091   5.720   3.130  10.468  1.3272  0.4212  1.8350
 2534TIP3   OH229092   0.857   6.462   1.903 -0.0247  0.1446 -0.1536
 2534TIP3    H129093   0.887   6.374   1.925 -1.1404 -1.3347 -3.7969
 2534TIP3    H229094   0.934   6.518   1.917  1.8940 -2.0697 -1.2195
 2535TIP3   OH229095   2.873   1.827   3.842  0.1937 -0.2797 -0.7162
 2535TIP3    H129096   2.934   1.892   3.809 -0.4535  1.8006  1.8121
 2535TIP3    H229097   2.790   1.874   3.849 -0.9099 -2.1006 -1.0164
 2536TIP3   OH229098   1.907   0.238  13.572 -0.5252  0.2023  0.2523
 2536TIP3    H129099   1.843   0.265  13.506  0.5988 -0.0217 -0.9657
 2536TIP3    H229100   1.903   0.142  13.570 -0.2597  0.1909  0.2864
 2537TIP3   OH229101   3.826   5.591  12.531 -0.0802 -0.0524  0.4048
 2537TIP3    H129102   3.737   5.583  12.496 -0.0072  1.9409 -0.3795
 2537TIP3    H229103   3.839   5.511  12.583 -1.3717 -1.5987 -1.5130
 2538TIP3   OH229104   0.993   4.013  11.267  0.3680 -0.7550  0.1560
 2538TIP3    H129105   1.005   3.954  11.341 -1.0925 -0.5285  0.6030
 2538TIP3    H229106   1.024   3.963  11.191 -0.1740 -1.8333  0.6188
 2539TIP3   OH229107   1.930   0.102  15.347 -0.3357 -0.7436 -0.0996
 2539TIP3    H129108   1.914   0.191  15.377 -1.3512 -0.6629 -0.8414
 2539TIP3    H229109   2.014   0.078  15.386 -0.8963 -0.1152  1.5612
 2540TIP3   OH229110   3.021   2.286  14.882 -0.1927  0.4563 -0.1719
 2540TIP3    H129111   3.111   2.304  14.854 -0.7319  0.0049 -2.3965
 2540TIP3    H229112   3.000   2.356  14.944  2.6934 -1.1607  2.9403
 2541TIP3   OH229113   1.702   2.284   2.236  0.4320  0.2342 -0.7385
 2541TIP3    H129114   1.626   2.329   2.200 -0.4656 -0.3545  0.3538
 2541TIP3    H229115   1.776   2.340   2.212 -0.5081  1.6277 -0.5145
 2542TIP3   OH229116   5.146   6.170  14.314 -0.0260 -0.3813 -0.1185
 2542TIP3    H129117   5.114   6.221  14.388 -0.7155  1.3948 -1.5645
 2542TIP3    H229118   5.241   6.167  14.326 -0.1768 -0.5750  1.1049
 2543TIP3   OH229119   4.551   5.803  13.304 -0.1388  0.4022  0.0699
 2543TIP3    H129120   4.472   5.805  13.249 -0.3717  3.1580  0.3589
 2543TIP3    H229121   4.581   5.712  13.299 -3.3450 -0.7842 -0.0102
 2544TIP3   OH229122   1.105   2.545   6.204 -0.8087 -0.0534  0.4726
 2544TIP3    H129123   1.155   2.619   6.238 -2.3059  1.1173  0.2609
 2544TIP3    H229124   1.016   2.560   6.236 -1.4124 -1.0807 -0.6381
 2545TIP3   OH229125   6.096   4.425   1.548  1.0462  0.1638 -0.3566
 2545TIP3    H129126   6.129   4.441   1.460  0.9878 -1.1859 -0.6378
 2545TIP3    H229127   6.078   4.331   1.551 -2.1025  0.6750  0.0024
 2546TIP3   OH229128   3.525   2.813  11.586 -0.5208 -0.1562 -0.4698
 2546TIP3    H129129   3.471   2.734  11.588 -1.7038  0.6171 -1.0786
 2546TIP3    H229130   3.615   2.780  11.592 -0.9418 -1.6123 -1.4997
 2547TIP3   OH229131   0.747   0.813   6.506 -0.4233 -0.0527  0.0611
 2547TIP3    H129132   0.834   0.794   6.541 -0.4289  1.4818  1.0037
 2547TIP3    H229133   0.689   0.750   6.550  0.1790 -0.9995 -0.4817
 2548TIP3   OH229134   2.712   0.391  15.230  0.0722  0.1100 -0.7261
 2548TIP3    H129135   2.715   0.410  15.324 -1.2597  0.1226 -0.6748
 2548TIP3    H229136   2.793   0.343  15.213  0.7775  0.9112  0.2395
 2549TIP3   OH229137   1.450   2.079  12.801  0.3204  0.1927 -0.1437
 2549TIP3    H129138   1.407   2.158  12.767 -0.9638  0.5802  2.1672
 2549TIP3    H229139   1.396   2.007  12.769 -0.5263  0.5107  0.5234
 2550TIP3   OH229140   5.059   5.052   4.062 -0.7355  0.0736  0.3639
 2550TIP3    H129141   5.068   4.991   4.135  1.9858 -1.2534 -0.9321
 2550TIP3    H229142   5.079   5.000   3.985  0.9280  2.4173 -0.8978
 2551TIP3   OH229143   1.792   3.762  11.773 -0.4268  0.0452 -0.1087
 2551TIP3    H129144   1.707   3.757  11.817  0.0312  1.4376  1.0162
 2551TIP3    H229145   1.835   3.680  11.795 -1.3588 -0.5574 -0.4641
 2552TIP3   OH229146   5.615   3.351  13.001 -0.1569 -0.2311 -0.7264
 2552TIP3    H129147   5.541   3.412  13.000  0.9668  1.1766 -1.2943
 2552TIP3    H229148   5.577   3.268  12.969 -1.7008  0.1461  0.0117
 2553TIP3   OH229149   0.547   1.622   4.134 -0.0447 -0.4291 -0.6628
 2553TIP3    H129150   0.622   1.679   4.152 -0.4123 -0.2867  0.4848
 2553TIP3    H229151   0.552   1.605   4.039 -0.4758  2.2299 -1.2245
 2554TIP3   OH229152   2.609   1.406  13.025  0.2142 -0.2090  0.1880
 2554TIP3    H129153   2.549   1.429  13.096  0.2037  1.0134 -0.1838
 2554TIP3    H229154   2.676   1.352  13.066  0.0043  0.1660  1.0463
 2555TIP3   OH229155   1.405   2.997  12.012  0.2946  0.0029  0.0085
 2555TIP3    H129156   1.387   3.039  12.096 -0.4001  0.4865 -0.3648
 2555TIP3    H229157   1.492   3.028  11.988  0.0516  0.7445  0.0374
 2556TIP3   OH229158   2.383   2.047  16.640  0.1562  0.0159  0.7113
 2556TIP3    H129159   2.425   2.094  16.568 -1.8749 -1.7961 -1.8764
 2556TIP3    H229160   2.298   2.090  16.650 -0.3038 -0.8810  0.7493
 2557TIP3   OH229161   2.541   5.131   3.540 -0.1664  0.2312  0.3472
 2557TIP3    H129162   2.476   5.162   3.603 -1.3374  1.3183 -1.3011
 2557TIP3    H229163   2.580   5.211   3.504  0.5544 -0.3558 -0.2143
 2558TIP3   OH229164   0.966   3.659  10.601 -0.0162  0.3633 -0.1919
 2558TIP3    H129165   0.915   3.681  10.523  0.7682  1.2021 -0.4918
 2558TIP3    H229166   0.903   3.659  10.673 -0.9286 -1.3231 -0.9390
 2559TIP3   OH229167   5.001   1.171  12.502  0.4658  0.5898 -0.6111
 2559TIP3    H129168   4.931   1.160  12.566  0.0989  1.2780 -0.8867
 2559TIP3    H229169   4.961   1.146  12.419  1.0344 -0.6211 -0.5368
 2560TIP3   OH229170   0.333   1.425  12.203  0.3366 -0.1922 -0.1237
 2560TIP3    H129171   0.259   1.469  12.161 -0.9403  0.4718  2.6081
 2560TIP3    H229172   0.312   1.332  12.199 -0.6185 -0.0179  0.4933
 2561TIP3   OH229173   1.185   4.941   3.844 -0.3392 -1.0642  0.1495
 2561TIP3    H129174   1.091   4.943   3.856 -0.3742  0.9416 -0.1773
 2561TIP3    H229175   1.216   5.026   3.876  0.7505  0.3080 -3.8737
 2562TIP3   OH229176   0.553   5.610  13.777 -0.2379 -0.3840  0.3979
 2562TIP3    H129177   0.560   5.561  13.860 -0.9436 -0.6176  0.3203
 2562TIP3    H229178   0.563   5.544  13.709 -0.1091 -0.2568  0.2915
 2563TIP3   OH229179   4.349   4.848  16.365  0.1304 -0.0188  0.0940
 2563TIP3    H129180   4.300   4.876  16.442 -0.4075  0.7858 -0.5134
 2563TIP3    H229181   4.335   4.754  16.360  0.8324 -0.2077  1.4204
 2564TIP3   OH229182   4.020   3.604   5.044  0.0225 -0.0717 -0.5557
 2564TIP3    H129183   3.932   3.638   5.059 -0.2728 -1.1871  0.4342
 2564TIP3    H229184   4.060   3.665   4.982 -0.1734  2.5176  1.6963
 2565TIP3   OH229185   6.207   5.207  16.735 -0.4039 -0.4428 -0.2383
 2565TIP3    H129186   6.289   5.216  16.783 -0.1211 -0.2382 -0.7555
 2565TIP3    H229187   6.234   5.193  16.644 -0.9434 -0.3070 -0.4201
 2566TIP3   OH229188   4.649   0.338  13.100 -0.7455  0.0391 -0.2861
 2566TIP3    H129189   4.667   0.251  13.066  0.0626 -0.5677  1.5319
 2566TIP3    H229190   4.554   0.345  13.102 -0.8800 -1.4911  1.0535
 2567TIP3   OH229191   1.725   1.360   0.341  0.1753  0.5828 -1.0582
 2567TIP3    H129192   1.730   1.276   0.296  0.1427 -2.0995  3.4050
 2567TIP3    H229193   1.811   1.371   0.381 -1.2088  0.0489  2.3762
 2568TIP3   OH229194   6.355   0.315   4.348 -0.0399  0.7975 -0.1160
 2568TIP3    H129195   6.424   0.367   4.387 -0.8412  1.9660 -0.2093
 2568TIP3    H229196   6.313   0.271   4.422 -0.1476  1.2677  0.1052
 2569TIP3   OH229197   3.725   4.238  13.064  0.2511 -0.5171  0.1054
 2569TIP3    H129198   3.637   4.200  13.061  0.7287 -1.6299 -0.4519
 2569TIP3    H229199   3.759   4.213  13.150  0.2267 -0.5636  0.1019
 2570TIP3   OH229200   6.799   2.854   4.709  0.0603  0.6008 -0.2219
 2570TIP3    H129201   6.834   2.765   4.713 -0.8661  0.2006 -0.7502
 2570TIP3    H229202   6.872   2.907   4.676 -0.0508 -0.3477 -2.0725
 2571TIP3   OH229203   0.143   5.555  11.188  0.2002 -0.4712 -0.1183
 2571TIP3    H129204   0.059   5.587  11.154  0.5138  0.6114  0.0787
 2571TIP3    H229205   0.209   5.606  11.140  0.6588  1.2772  2.1594
 2572TIP3   OH229206   2.771   0.522   3.285  0.1460 -0.5770 -0.0897
 2572TIP3    H129207   2.777   0.530   3.380  1.8421 -4.3157  0.3091
 2572TIP3    H229208   2.716   0.595   3.258 -1.4082 -0.0192  3.8886
 2573TIP3   OH229209   6.462   6.140   0.124 -0.0649 -0.0085  0.6731
 2573TIP3    H129210   6.523   6.091   0.180  0.7949  1.1146  0.7560
 2573TIP3    H229211   6.424   6.073   0.067  1.4454 -0.7274  0.4355
 2574TIP3   OH229212   1.034   3.984  16.581 -0.5796  0.2307 -0.0618
 2574TIP3    H129213   1.081   4.039  16.518  2.6090 -1.8006  0.3027
 2574TIP3    H229214   1.032   3.897  16.540 -0.1248 -0.7097  1.7999
 2575TIP3   OH229215   6.662   0.708  14.071  0.0667  0.0167 -0.2012
 2575TIP3    H129216   6.721   0.748  14.135 -1.5972  2.8235 -0.2289
 2575TIP3    H229217   6.632   0.627  14.112  1.0873  0.4013  1.3848
 2576TIP3   OH229218   3.978   6.532  16.348 -0.4862 -0.3858 -0.0921
 2576TIP3    H129219   3.887   6.530  16.318 -0.8732 -3.7559  0.9189
 2576TIP3    H229220   4.002   6.440  16.358  2.7024  0.4212  0.7612
 2577TIP3   OH229221   1.969   6.018   5.000  0.0655 -0.2779 -0.3775
 2577TIP3    H129222   2.003   6.088   4.945 -1.2077 -1.6474 -3.1240
 2577TIP3    H229223   2.011   5.938   4.966  1.3982 -0.9812  2.5758
 2578TIP3   OH229224   4.409   1.380  10.770 -0.6554  0.4397  0.4568
 2578TIP3    H129225   4.429   1.455  10.713  0.0212  1.4041  1.9116
 2578TIP3    H229226   4.481   1.319  10.755 -1.8187 -0.5169 -1.6311
 2579TIP3   OH229227   4.130   0.726   5.772  0.0759  0.1061  0.3883
 2579TIP3    H129228   4.055   0.673   5.747  1.3846 -1.9167  0.5187
 2579TIP3    H229229   4.135   0.717   5.868 -0.9014  2.2565  0.7140
 2580TIP3   OH229230   1.006   4.191  11.603  0.0041 -0.2149 -0.1134
 2580TIP3    H129231   0.969   4.130  11.667 -0.6984 -0.4414 -0.7085
 2580TIP3    H229232   1.099   4.171  11.601  0.4449  1.2481  2.3805
 2581TIP3   OH229233   1.417   3.412  13.294 -0.4660 -0.0468 -0.7091
 2581TIP3    H129234   1.404   3.336  13.237 -0.3733  0.1792 -1.0357
 2581TIP3    H229235   1.353   3.476  13.263 -1.6607 -0.5505  0.5846
 2582TIP3   OH229236   0.208   2.645   3.274 -0.2169  0.2208 -0.2666
 2582TIP3    H129237   0.156   2.566   3.289 -0.0566 -0.1092 -1.3476
 2582TIP3    H229238   0.172   2.681   3.193 -1.2569  2.0695  0.9445
 2583TIP3   OH229239   2.917   3.726  16.535 -0.4140 -0.2721  0.0300
 2583TIP3    H129240   2.986   3.777  16.579  0.3888 -0.5009 -0.9194
 2583TIP3    H229241   2.838   3.778  16.547  0.3700  1.2141 -0.8581
 2584TIP3   OH229242   0.571   6.200  14.765 -0.3033  0.4764  0.3566
 2584TIP3    H129243   0.482   6.177  14.792 -0.2670  0.0474  0.1240
 2584TIP3    H229244   0.618   6.216  14.846 -0.6362  0.8869  0.4774
 2585TIP3   OH229245   2.709   6.227  11.521  0.1000  0.1423 -0.3575
 2585TIP3    H129246   2.699   6.251  11.613  1.9828  0.1617 -0.1206
 2585TIP3    H229247   2.754   6.301  11.482 -1.2061  0.3954 -1.4677
 2586TIP3   OH229248   4.655   5.273   6.343  0.0452  0.0606  0.3982
 2586TIP3    H129249   4.659   5.199   6.403 -2.7465 -0.4023  0.1369
 2586TIP3    H229250   4.624   5.236   6.260  0.6458  1.2022 -0.3699
 2587TIP3   OH229251   3.432   4.238  16.350 -0.7322  0.0804  0.0186
 2587TIP3    H129252   3.378   4.288  16.290 -1.5849 -0.5437  0.2430
 2587TIP3    H229253   3.413   4.146  16.329 -1.6408 -0.1588  1.7216
 2588TIP3   OH229254   4.133   1.107  14.072  0.6067 -0.0754  0.1060
 2588TIP3    H129255   4.068   1.075  14.010  0.5861  0.6336 -0.2492
 2588TIP3    H229256   4.102   1.194  14.098  0.4091 -0.5133  1.4224
 2589TIP3   OH229257   0.444   2.396   4.737 -0.1361 -0.0300  0.4654
 2589TIP3    H129258   0.518   2.341   4.765  1.0095 -0.1558 -2.5277
 2589TIP3    H229259   0.479   2.485   4.737  0.1959 -0.1360 -1.3707
 2590TIP3   OH229260   2.593   5.135   4.238 -0.0029  0.3435 -0.0107
 2590TIP3    H129261   2.600   5.052   4.191  0.8691 -0.0095  0.7189
 2590TIP3    H229262   2.581   5.200   4.169 -3.6392 -0.6076 -0.5023
 2591TIP3   OH229263   0.678   5.342   5.715 -0.6396 -0.0576 -0.2041
 2591TIP3    H129264   0.636   5.336   5.801 -1.7154  2.1882 -0.5281
 2591TIP3    H229265   0.618   5.394   5.662  1.6689  1.6674 -1.2580
 2592TIP3   OH229266   6.438   3.385   0.228 -0.3508 -0.0819  0.0637
 2592TIP3    H129267   6.525   3.423   0.222 -0.7398  0.9218  0.5018
 2592TIP3    H229268   6.435   3.345   0.315 -0.4019  0.0776  0.1354
 2593TIP3   OH229269   6.094   1.229   3.280 -0.4756  0.0577  0.5117
 2593TIP3    H129270   6.158   1.187   3.336  0.6766  0.1415 -0.6915
 2593TIP3    H229271   6.013   1.231   3.332  0.5363  0.1631  2.1423
 2594TIP3   OH229272   1.411   1.096  15.039  0.1268  0.4080  0.3017
 2594TIP3    H129273   1.361   1.046  15.104 -2.6226  1.4117 -0.8765
 2594TIP3    H229274   1.363   1.082  14.957  2.2209  0.9420 -1.1020
 2595TIP3   OH229275   6.123   2.803   0.230 -0.1535 -0.1495 -0.3852
 2595TIP3    H129276   6.028   2.794   0.240  0.1584 -1.7929  1.7219
 2595TIP3    H229277   6.153   2.837   0.314  1.2311 -0.3278 -0.7787
 2596TIP3   OH229278   1.554   0.665  13.116  0.3481 -0.2296  0.9017
 2596TIP3    H129279   1.482   0.680  13.054  1.9477  0.8865 -0.7944
 2596TIP3    H229280   1.523   0.704  13.198 -1.1862 -0.2781  0.3802
 2597TIP3   OH229281   0.559   0.675   4.491 -0.7987  0.1880  0.0672
 2597TIP3    H129282   0.581   0.629   4.572  1.8897 -0.7679 -1.1038
 2597TIP3    H229283   0.521   0.758   4.521 -0.1247 -0.2300  2.2939
 2598TIP3   OH229284   4.879   3.904  13.312 -0.2081 -0.8085 -0.0902
 2598TIP3    H129285   4.786   3.905  13.335 -0.1584  0.8044  0.1887
 2598TIP3    H229286   4.899   3.812  13.295 -1.5595 -1.3496  1.0437
 2599TIP3   OH229287   0.553   6.787   2.317  0.5847  0.5691 -0.1251
 2599TIP3    H129288   0.474   6.827   2.354  0.4249 -0.0773  0.2465
 2599TIP3    H229289   0.534   6.693   2.316  0.0601  0.5939 -3.0241
 2600TIP3   OH229290   0.502   3.804   4.915 -0.1526 -0.4654 -0.1628
 2600TIP3    H129291   0.544   3.869   4.858 -0.6032  1.0085  1.1293
 2600TIP3    H229292   0.534   3.719   4.882 -0.6375  0.2914 -2.7824
 2601TIP3   OH229293   1.668   0.277   0.094 -0.5220  0.0651 -0.5797
 2601TIP3    H129294   1.622   0.274   0.178 -0.6483  1.6564 -0.5589
 2601TIP3    H229295   1.680   0.371   0.077  2.0762 -0.2463 -0.9327
 2602TIP3   OH229296   3.917   0.979  13.907 -0.1805 -0.3190 -0.1663
 2602TIP3    H129297   3.967   1.047  13.862 -2.2657  1.0206 -0.5896
 2602TIP3    H229298   3.851   1.026  13.958 -0.2579 -1.9613  1.3768
 2603TIP3   OH229299   3.020   0.926  15.773 -0.0695 -0.0896  0.0617
 2603TIP3    H129300   3.016   0.866  15.699 -0.5946 -0.0870  0.0848
 2603TIP3    H229301   3.032   0.870  15.849  1.7037 -0.0184 -0.1360
 2604TIP3   OH229302   2.644   1.201   0.297 -0.1965  0.2877  0.5009
 2604TIP3    H129303   2.632   1.126   0.239  1.0048  0.3888  0.1030
 2604TIP3    H229304   2.626   1.277   0.242 -0.5071  0.3351  0.6634
 2605TIP3   OH229305   3.110   4.595   5.197 -0.2473  0.0800 -0.3020
 2605TIP3    H129306   3.112   4.546   5.115 -0.9720 -0.4405 -0.0216
 2605TIP3    H229307   3.201   4.597   5.227 -0.2169 -1.1958 -0.2663
 2606TIP3   OH229308   4.777   0.546  15.349  0.2344 -0.1541 -0.4101
 2606TIP3    H129309   4.740   0.471  15.301  0.3319 -2.0998  2.2989
 2606TIP3    H229310   4.700   0.591  15.384  0.2149 -0.8983  0.5596
 2607TIP3   OH229311   1.756   6.599  14.162 -0.1271  0.1810  0.4620
 2607TIP3    H129312   1.708   6.613  14.243 -0.5270  0.3097  0.2028
 2607TIP3    H229313   1.830   6.542  14.187 -0.2864  0.1671  0.8986
 2608TIP3   OH229314   0.722   1.229  13.545  0.8199 -0.1027  0.2176
 2608TIP3    H129315   0.636   1.272  13.541  0.3870 -1.0233 -2.3300
 2608TIP3    H229316   0.704   1.145  13.587  0.5068 -0.1822 -0.0683
 2609TIP3   OH229317   6.347   4.408   1.704  0.3389 -0.0897  0.3051
 2609TIP3    H129318   6.306   4.384   1.787 -0.7558 -1.7118 -0.6327
 2609TIP3    H229319   6.275   4.403   1.640  1.2753  0.5278 -0.8358
 2610TIP3   OH229320   5.574   3.903   2.613 -0.6936 -0.3118 -0.5317
 2610TIP3    H129321   5.530   3.963   2.673  0.0822  0.3707 -0.6248
 2610TIP3    H229322   5.662   3.940   2.602 -1.1768  0.2585 -3.0284
 2611TIP3   OH229323   2.366   3.382   5.962 -0.6360  0.2064 -0.3815
 2611TIP3    H129324   2.410   3.344   5.885 -2.3393  1.5927 -2.1239
 2611TIP3    H229325   2.339   3.306   6.014  2.3022 -0.7359 -0.0219
 2612TIP3   OH229326   0.684   6.439  13.872 -0.0206 -0.3746 -0.5375
 2612TIP3    H129327   0.645   6.362  13.913  0.5450  0.4327  1.6678
 2612TIP3    H229328   0.610   6.485  13.832 -0.8597 -0.5787  0.6972
 2613TIP3   OH229329   1.882   6.263  16.712  0.5993 -0.0732 -0.0322
 2613TIP3    H129330   1.857   6.186  16.762 -2.5752 -0.4843 -1.9611
 2613TIP3    H229331   1.858   6.337  16.768  2.1830 -0.4112  1.1730
 2614TIP3   OH229332   1.757   6.408  13.272 -0.1922 -0.0569  0.5240
 2614TIP3    H129333   1.775   6.333  13.329 -0.4724 -0.0684  0.5951
 2614TIP3    H229334   1.836   6.416  13.218 -1.2549 -2.1601 -1.4721
 2615TIP3   OH229335   5.722   2.868   0.107 -0.0323 -0.0595 -0.2578
 2615TIP3    H129336   5.782   2.872   0.033 -0.2484 -0.8868 -0.4789
 2615TIP3    H229337   5.683   2.956   0.111  0.8683  0.3606 -0.3678
 2616TIP3   OH229338   2.267   5.977  16.698  0.0963 -0.3776  0.5421
 2616TIP3    H129339   2.362   5.969  16.695  0.2056 -0.1859  2.3242
 2616TIP3    H229340   2.246   5.976  16.791 -1.4672  1.5903  0.2880
 2617TIP3   OH229341   6.476   3.974  12.592  0.3148 -0.2997  0.1722
 2617TIP3    H129342   6.527   3.935  12.522  0.8501  0.5948  0.0558
 2617TIP3    H229343   6.514   4.061  12.605  0.3404 -0.5151  1.6895
 2618TIP3   OH229344   4.091   3.842   0.861 -0.2958 -0.3203 -0.6448
 2618TIP3    H129345   4.152   3.768   0.860  1.7482  1.2566 -0.4813
 2618TIP3    H229346   4.029   3.821   0.930  1.2202 -1.1522  0.5293
 2619TIP3   OH229347   2.742   6.297  11.784 -0.0013 -0.3228 -0.5361
 2619TIP3    H129348   2.726   6.246  11.863 -1.1090  0.0142 -0.5355
 2619TIP3    H229349   2.832   6.330  11.795  0.3496 -1.4026 -0.0685
 2620TIP3   OH229350   3.346   5.299  17.022 -0.2476 -0.4296 -0.3026
 2620TIP3    H129351   3.268   5.292  17.078 -0.9073  1.1855 -0.9579
 2620TIP3    H229352   3.388   5.213  17.028 -1.2737 -0.8606  1.2370
 2621TIP3   OH229353   6.709   5.516   0.206 -0.3669  0.4952  0.0241
 2621TIP3    H129354   6.677   5.519   0.296 -1.3812  0.6213 -0.3350
 2621TIP3    H229355   6.793   5.470   0.212  1.2337  3.3218  1.4868
 2622TIP3   OH229356   0.305   2.976  13.786  0.1260 -0.0344  0.5071
 2622TIP3    H129357   0.392   2.944  13.763 -0.6962 -1.8084 -0.3478
 2622TIP3    H229358   0.269   3.009  13.703 -1.2389 -2.4618  0.0587
 2623TIP3   OH229359   0.532   3.329   1.088 -0.1808 -0.3344 -0.0448
 2623TIP3    H129360   0.559   3.240   1.064 -0.4517 -0.2610 -0.6182
 2623TIP3    H229361   0.499   3.320   1.178 -1.0512 -0.9873 -0.4177
 2624TIP3   OH229362   4.953   5.780   3.298  0.2983 -0.1509  0.1340
 2624TIP3    H129363   4.922   5.711   3.356 -0.9273 -0.2815 -0.6548
 2624TIP3    H229364   4.968   5.737   3.214 -0.0512  0.4452 -0.2460
 2625TIP3   OH229365   3.447   1.818  13.153  0.2040  0.3017 -0.6841
 2625TIP3    H129366   3.456   1.911  13.175 -1.3888  0.0672  1.3011
 2625TIP3    H229367   3.384   1.785  13.217  0.3542 -2.0517 -1.6648
 2626TIP3   OH229368   5.977   6.372  15.864 -0.0393 -0.0678 -0.5812
 2626TIP3    H129369   6.011   6.283  15.859 -0.4234 -0.2060 -0.6819
 2626TIP3    H229370   5.979   6.404  15.774  0.4943  0.1786 -0.4919
 2627TIP3   OH229371   2.890   4.403   4.600 -0.2164 -0.2138  0.4622
 2627TIP3    H129372   2.806   4.428   4.638 -1.4705 -0.1935 -2.0808
 2627TIP3    H229373   2.882   4.309   4.582 -0.3314  0.0571 -1.1080
 2628TIP3   OH229374   0.048   1.332   3.884 -0.1483 -0.3092 -0.6289
 2628TIP3    H129375   0.062   1.318   3.791 -0.9873 -0.3038 -0.7653
 2628TIP3    H229376  -0.047   1.340   3.893 -0.0473  0.1421  0.1601
 2629TIP3   OH229377   1.289   4.461   3.284 -0.0388 -0.4299 -0.0977
 2629TIP3    H129378   1.309   4.367   3.290 -1.8916 -0.8515 -0.1494
 2629TIP3    H229379   1.247   4.472   3.199  0.6030  0.5566 -0.3056
 2630TIP3   OH229380   6.314   4.737  15.551  0.5282  0.1589 -0.5203
 2630TIP3    H129381   6.335   4.718  15.460 -0.5879 -0.9065 -0.5846
 2630TIP3    H229382   6.296   4.651  15.590  1.1486  0.5749  0.7520
 2631TIP3   OH229383   2.463   1.155   1.038  0.2223 -0.0471  0.1673
 2631TIP3    H129384   2.530   1.224   1.035 -1.0369  1.1875 -1.3564
 2631TIP3    H229385   2.510   1.076   1.063  2.0682  0.9634  0.0254
 2632TIP3   OH229386   5.758   3.187   2.030  0.0559  0.0880 -0.7574
 2632TIP3    H129387   5.762   3.103   1.985 -2.9575 -2.0590  2.4481
 2632TIP3    H229388   5.722   3.167   2.117 -2.3522  4.8481 -0.2926
 2633TIP3   OH229389   6.249   5.898   4.784 -0.1887  0.2227  0.0080
 2633TIP3    H129390   6.277   5.986   4.810  0.2437 -0.2384  1.1669
 2633TIP3    H229391   6.234   5.852   4.866  2.4547 -1.6902 -0.4505
 2634TIP3   OH229392   0.872   2.444  13.526  0.4765  0.3617  0.1374
 2634TIP3    H129393   0.832   2.519  13.484  1.4955  0.3967 -0.8349
 2634TIP3    H229394   0.915   2.479  13.603  1.1412  0.8359 -0.4360
 2635TIP3   OH229395   4.871   0.727  17.018 -0.5841 -0.3430  0.7959
 2635TIP3    H129396   4.808   0.726  16.945  0.4866 -1.1009 -0.1440
 2635TIP3    H229397   4.890   0.635  17.034  2.2972 -0.1187 -0.7627
 2636TIP3   OH229398   4.627   0.802  15.102 -0.1470 -0.0827 -0.5049
 2636TIP3    H129399   4.631   0.870  15.169 -2.1250 -1.6355  1.3630
 2636TIP3    H229400   4.688   0.830  15.034  0.2854  2.6991  0.9164
 2637TIP3   OH229401   0.545   3.509  10.892  0.0406 -0.2538 -0.6835
 2637TIP3    H129402   0.526   3.590  10.845  0.6887  0.2899 -0.0108
 2637TIP3    H229403   0.479   3.504  10.960  0.4275  0.0686 -0.2829
 2638TIP3   OH229404   3.221   1.342   6.451 -0.3481  0.1784  0.1861
 2638TIP3    H129405   3.144   1.394   6.477  0.0289  1.3617 -0.9512
 2638TIP3    H229406   3.294   1.404   6.456  0.5272 -0.8889  1.0586
 2639TIP3   OH229407   4.300   2.021  14.118 -0.7466  0.0231  0.3717
 2639TIP3    H129408   4.326   1.950  14.060  0.0365 -1.1706  2.1096
 2639TIP3    H229409   4.204   2.018  14.119 -0.7539 -0.2310 -0.4790
 2640TIP3   OH229410   0.292   2.099   0.540 -0.3731  0.2403 -0.2517
 2640TIP3    H129411   0.350   2.033   0.580 -0.5668  0.2187 -0.0092
 2640TIP3    H229412   0.349   2.145   0.478  0.3406  1.2902  1.1149
 2641TIP3   OH229413   0.524   5.395   3.771 -0.0053  0.1873 -0.2136
 2641TIP3    H129414   0.572   5.426   3.848 -0.6865 -0.3358  0.4359
 2641TIP3    H229415   0.592   5.373   3.708  0.5932  0.0007  0.4836
 2642TIP3   OH229416   0.963   5.453  14.598  0.3243 -0.3979  0.8854
 2642TIP3    H129417   1.043   5.410  14.627  0.5303  0.5266  1.7545
 2642TIP3    H229418   0.965   5.538  14.642  0.4768  0.9657 -1.5984
 2643TIP3   OH229419   2.984   3.332   4.388  0.0449  0.7387 -0.4021
 2643TIP3    H129420   2.987   3.420   4.350 -2.6025  1.5423  1.0377
 2643TIP3    H229421   2.945   3.278   4.320 -2.0473  1.5829  0.0534
 2644TIP3   OH229422   5.826   3.862  13.043 -0.5224  0.3061 -0.4321
 2644TIP3    H129423   5.802   3.952  13.019 -1.4261  0.1258 -0.2360
 2644TIP3    H229424   5.894   3.873  13.110 -0.2996  0.8395 -0.7377
 2645TIP3   OH229425   1.628   1.584  12.357 -0.6622 -0.1762 -0.6850
 2645TIP3    H129426   1.644   1.572  12.264  2.3010  0.1179 -0.3189
 2645TIP3    H229427   1.662   1.504  12.398 -0.9486  0.1458  0.2077
 2646TIP3   OH229428   6.420   6.509  15.627  0.5755 -0.2571 -0.4220
 2646TIP3    H129429   6.416   6.451  15.704 -1.3304  1.7381  1.1117
 2646TIP3    H229430   6.509   6.544  15.628  1.2333 -1.8371 -0.3990
 2647TIP3   OH229431   6.343   0.702   1.271  0.9367 -0.7327  0.4348
 2647TIP3    H129432   6.402   0.660   1.333  0.6695 -1.1477  0.4135
 2647TIP3    H229433   6.355   0.795   1.285  1.1569 -0.8239  0.8466
 2648TIP3   OH229434   2.585   3.258  13.126  0.0820 -0.2880  0.1553
 2648TIP3    H129435   2.643   3.285  13.055  0.3863 -0.2637  0.4122
 2648TIP3    H229436   2.619   3.173  13.153 -0.4602 -0.6214 -0.1957
 2649TIP3   OH229437   1.095   5.624   2.281  0.5259 -0.0050 -0.6582
 2649TIP3    H129438   1.054   5.561   2.221  0.1785  1.5962 -2.1766
 2649TIP3    H229439   1.166   5.663   2.230 -1.2780  3.1463 -0.9737
 2650TIP3   OH229440   0.797   0.897   6.248  0.1523  0.3391  0.0608
 2650TIP3    H129441   0.834   0.983   6.268  0.5106 -0.0876  1.2854
 2650TIP3    H229442   0.764   0.865   6.332 -0.1968 -0.6185 -0.4319
 2651TIP3   OH229443   6.273   0.781   4.693  0.0401 -0.3936  0.4403
 2651TIP3    H129444   6.281   0.734   4.610 -0.5499 -0.1395  0.2362
 2651TIP3    H229445   6.360   0.775   4.732 -0.0451 -1.7444  0.4692
 2652TIP3   OH229446   1.744   1.103   3.522 -0.4431 -0.5027 -0.1443
 2652TIP3    H129447   1.741   1.197   3.510  0.9376 -0.3443  0.5745
 2652TIP3    H229448   1.662   1.071   3.484 -0.6201  0.9036 -1.0015
 2653TIP3   OH229449   4.340   5.505  15.650  0.1524 -0.0141 -0.1228
 2653TIP3    H129450   4.385   5.560  15.587  0.9337 -1.4300 -0.8646
 2653TIP3    H229451   4.403   5.490  15.720  0.1246 -0.3445 -0.1627
 2654TIP3   OH229452   5.892   2.754  14.489 -0.3281  0.5133  0.0486
 2654TIP3    H129453   5.981   2.790  14.492 -0.3321  0.4651  1.7181
 2654TIP3    H229454   5.850   2.801  14.417  1.2914 -0.1057 -1.3826
 2655TIP3   OH229455   2.354   1.309  14.176 -0.3575 -0.3961  0.0560
 2655TIP3    H129456   2.310   1.390  14.203  0.3445 -0.3649  1.1692
 2655TIP3    H229457   2.445   1.321  14.203  0.8473  0.2529 -3.6675
 2656TIP3   OH229458   0.024   6.643   3.271  0.0897  0.2288  0.0610
 2656TIP3    H129459   0.048   6.602   3.188  1.3005  1.1628 -0.0722
 2656TIP3    H229460  -0.055   6.694   3.251  0.0583  0.0066 -0.3810
 2657TIP3   OH229461   3.396   1.507   5.874 -0.1924  0.3069 -0.3953
 2657TIP3    H129462   3.440   1.557   5.943 -1.2898  1.7843 -0.7077
 2657TIP3    H229463   3.448   1.523   5.796 -1.6806  2.8685 -0.9896
 2658TIP3   OH229464   0.114   5.796   5.482 -0.3191 -0.1755  0.0276
 2658TIP3    H129465   0.209   5.796   5.474 -0.4008  2.8331 -4.1180
 2658TIP3    H229466   0.096   5.854   5.556  0.9748 -0.8396  0.9073
 2659TIP3   OH229467   6.050   1.601  14.901 -0.2975  0.1897 -0.1476
 2659TIP3    H129468   6.099   1.638  14.828 -0.4186  0.5295 -0.0592
 2659TIP3    H229469   6.114   1.596  14.972 -0.6145  1.5095  0.2504
 2660TIP3   OH229470   1.269   5.742   2.133  0.1068  0.1307  0.3746
 2660TIP3    H129471   1.341   5.692   2.094  0.8913  2.0120 -0.7252
 2660TIP3    H229472   1.262   5.820   2.078 -1.0382  1.2544  2.0291
 2661TIP3   OH229473   2.001   2.887   3.758 -0.3555 -0.7704  0.8755
 2661TIP3    H129474   1.992   2.980   3.775  0.1219 -0.7796  1.1996
 2661TIP3    H229475   1.990   2.878   3.663 -1.2807 -0.5001  0.9500
 2662TIP3   OH229476   6.638   0.789   5.905  0.3991  0.1437  0.4178
 2662TIP3    H129477   6.563   0.732   5.925 -0.2929  0.0074 -2.2070
 2662TIP3    H229478   6.599   0.874   5.888  0.6106 -0.1778 -2.0840
 2663TIP3   OH229479   1.877   0.047   0.052 -0.5802 -0.5385 -0.0500
 2663TIP3    H129480   1.898   0.045  -0.042  0.4264 -0.3948  0.1517
 2663TIP3    H229481   1.817   0.121   0.061 -1.8126 -1.4134 -0.7746
 2664TIP3   OH229482   3.620   4.189  14.137  0.1643  0.2890  0.2840
 2664TIP3    H129483   3.577   4.252  14.079 -2.2089 -0.1757  1.4148
 2664TIP3    H229484   3.628   4.234  14.221  1.0531  0.0295  0.3485
 2665TIP3   OH229485   3.005   0.640  10.982  0.2753 -0.4196 -0.3359
 2665TIP3    H129486   3.062   0.626  11.057  0.1036  2.0708  0.3583
 2665TIP3    H229487   3.062   0.626  10.906  1.1137 -0.5335  0.2955
 2666TIP3   OH229488   5.169   4.260   5.063  0.2005  0.1434 -0.2671
 2666TIP3    H129489   5.137   4.307   4.986  1.4462 -0.3334 -1.1168
 2666TIP3    H229490   5.097   4.203   5.088 -0.3146  0.4856 -0.9269
 2667TIP3   OH229491   2.597   0.191  16.774 -0.3174  0.3530 -0.2694
 2667TIP3    H129492   2.523   0.175  16.715  0.6290  1.4026 -1.8280
 2667TIP3    H229493   2.613   0.107  16.817 -1.4184 -0.2878 -1.0740
 2668TIP3   OH229494   6.257   5.449   2.791  0.1314  0.2927  0.1416
 2668TIP3    H129495   6.198   5.502   2.736 -1.4940 -1.4690  0.0892
 2668TIP3    H229496   6.244   5.484   2.880 -2.8914 -1.4896  0.5480
 2669TIP3   OH229497   3.657   1.869   5.433  0.2725  0.2411 -0.2659
 2669TIP3    H129498   3.715   1.796   5.413 -0.8012 -0.6924 -0.0168
 2669TIP3    H229499   3.715   1.937   5.469  1.3329 -0.3146 -0.8955
 2670TIP3   OH229500   4.791   4.635  16.844  0.0235 -0.0298 -0.3247
 2670TIP3    H129501   4.826   4.645  16.756  0.1391  1.6864 -0.1273
 2670TIP3    H229502   4.841   4.564  16.883 -0.0025 -0.7719 -1.6212
 2671TIP3   OH229503   1.037   0.076  12.137  0.2991 -0.1759 -0.3411
 2671TIP3    H129504   1.081   0.160  12.147 -1.1495  0.6357 -0.5681
 2671TIP3    H229505   0.946   0.098  12.116  0.1715 -1.7896 -1.7047
 2672TIP3   OH229506   5.350   1.567  12.011  0.4349  0.0014 -0.0440
 2672TIP3    H129507   5.390   1.487  12.046  2.1445  1.6301  2.0686
 2672TIP3    H229508   5.382   1.572  11.921 -1.2685 -2.5722 -0.9222
 2673TIP3   OH229509   5.210   4.475  15.775 -0.6893 -0.4031  0.2294
 2673TIP3    H129510   5.125   4.494  15.815 -1.4471 -1.8893 -0.5714
 2673TIP3    H229511   5.229   4.550  15.719 -0.1331  1.2144  2.4604
 2674TIP3   OH229512   2.197   6.468   3.362  0.7024 -0.0841  0.3789
 2674TIP3    H129513   2.241   6.416   3.429 -1.1631 -0.7399  1.1614
 2674TIP3    H229514   2.105   6.470   3.389 -0.2973 -1.0274 -2.5545
 2675TIP3   OH229515   3.401   0.370  17.073 -0.3291 -0.1434  0.4282
 2675TIP3    H129516   3.361   0.377  16.986 -0.2721  0.7973  0.4702
 2675TIP3    H229517   3.393   0.457  17.111  2.1564  0.2416  0.2567
 2676TIP3   OH229518   5.381   5.352   6.234  0.0333 -0.0817  0.0189
 2676TIP3    H129519   5.471   5.383   6.233  0.2235 -0.6045 -1.1357
 2676TIP3    H229520   5.343   5.388   6.314  0.8394  1.3854 -0.2248
 2677TIP3   OH229521   1.295   5.547   3.961  0.0722 -0.4703 -0.2484
 2677TIP3    H129522   1.287   5.642   3.950 -1.2378 -0.5033  0.2225
 2677TIP3    H229523   1.300   5.535   4.056  1.9637 -0.7873 -0.3463
 2678TIP3   OH229524   3.248   5.735  10.489  0.3488 -0.3047 -0.2304
 2678TIP3    H129525   3.270   5.692  10.572 -0.0876 -0.4764 -0.2040
 2678TIP3    H229526   3.262   5.828  10.506  0.5883 -0.3697 -0.0680
 2679TIP3   OH229527   2.750   5.019  16.638  0.1297  0.2319 -0.1348
 2679TIP3    H129528   2.795   4.971  16.568 -0.7732 -0.0641 -0.5250
 2679TIP3    H229529   2.801   5.099  16.648  1.4847 -0.6505  0.3211
 2680TIP3   OH229530   3.238   6.460   6.279 -0.2612 -0.4853 -0.1104
 2680TIP3    H129531   3.266   6.551   6.266 -0.1913 -0.1787  1.9443
 2680TIP3    H229532   3.155   6.454   6.232  0.4470  0.1728 -1.5571
 2681TIP3   OH229533   3.412   1.922   4.326 -0.4820  0.4776  0.5773
 2681TIP3    H129534   3.498   1.953   4.297  0.1459 -1.3238  0.4194
 2681TIP3    H229535   3.431   1.853   4.389 -1.8288  0.5765  1.1163
 2682TIP3   OH229536   5.135   2.362   3.586 -0.0002  0.2040  0.5050
 2682TIP3    H129537   5.105   2.450   3.609 -0.2750  0.9044 -2.1739
 2682TIP3    H229538   5.056   2.308   3.587  0.1473 -0.0441  2.0095
 2683TIP3   OH229539   5.832   5.453   4.117 -0.3498 -0.4250 -0.6411
 2683TIP3    H129540   5.788   5.509   4.181 -1.8391  0.3638 -2.2653
 2683TIP3    H229541   5.790   5.368   4.127  0.3175 -0.6639  0.2652
 2684TIP3   OH229542   2.692   2.813   6.355 -0.2268 -0.1389 -0.2604
 2684TIP3    H129543   2.611   2.863   6.370 -0.5828 -0.8281  0.1590
 2684TIP3    H229544   2.762   2.877   6.365 -0.6667  0.2332  0.5091
 2685TIP3   OH229545   0.588   6.245   0.042 -0.3924  0.3033 -0.0530
 2685TIP3    H129546   0.574   6.287  -0.043  1.8269 -0.2195 -0.7492
 2685TIP3    H229547   0.605   6.317   0.102 -1.0934  0.6274 -0.2353
 2686TIP3   OH229548   5.909   6.023   1.888 -0.2525 -0.1628  0.0536
 2686TIP3    H129549   5.970   6.029   1.962  0.2738  0.0177 -0.3891
 2686TIP3    H229550   5.885   5.930   1.884 -0.3857 -0.1519  0.5287
 2687TIP3   OH229551   1.409   4.078  11.274 -0.3397  0.0402 -0.0565
 2687TIP3    H129552   1.500   4.052  11.259 -0.3042  0.6640 -1.0016
 2687TIP3    H229553   1.378   4.108  11.188 -0.8790  1.5526  0.6313
 2688TIP3   OH229554   0.222   2.861  14.013 -0.0339  0.5468  0.2588
 2688TIP3    H129555   0.297   2.899  14.058 -0.0333  1.6564 -0.6547
 2688TIP3    H229556   0.238   2.877  13.920 -1.5741  1.1625  0.0597
 2689TIP3   OH229557   1.791   2.138  12.489 -0.2379 -0.5917  0.2112
 2689TIP3    H129558   1.700   2.152  12.514 -0.1625  0.2908  0.0251
 2689TIP3    H229559   1.798   2.176  12.401  0.9653  1.8778  1.3037
 2690TIP3   OH229560   3.004   2.002  13.799  0.0780  0.0694 -0.6309
 2690TIP3    H129561   2.946   1.926  13.799  0.5428 -0.2996 -0.3447
 2690TIP3    H229562   3.061   1.987  13.875 -0.2144  1.0061 -0.2201
 2691TIP3   OH229563   0.503   0.071   5.286  0.0044 -0.3317  0.2881
 2691TIP3    H129564   0.416   0.085   5.321  0.1412  0.8336  0.1957
 2691TIP3    H229565   0.488   0.045   5.195 -0.3146 -2.5534  0.9234
 2692TIP3   OH229566   3.721   1.197  15.909  0.1458 -0.0608 -0.1946
 2692TIP3    H129567   3.770   1.145  15.845  0.2347  0.4124 -0.5079
 2692TIP3    H229568   3.686   1.132  15.970 -0.1445 -0.5300 -0.8544
 2693TIP3   OH229569   6.257   4.892  16.125 -0.2669 -0.1014  0.0901
 2693TIP3    H129570   6.209   4.862  16.047  1.9106  1.0612 -1.8134
 2693TIP3    H229571   6.285   4.981  16.103 -0.7494  0.8178  2.8175
 2694TIP3   OH229572   0.831   1.995  11.927  0.2991  0.0145 -0.5688
 2694TIP3    H129573   0.826   1.909  11.969  0.1496 -0.0693 -0.7562
 2694TIP3    H229574   0.824   2.057  11.999 -1.9624 -0.0883 -0.6105
 2695TIP3   OH229575   2.975   0.093  17.157  0.0168  0.3215 -0.3689
 2695TIP3    H129576   3.062   0.065  17.127  0.2824  1.8891 -1.1546
 2695TIP3    H229577   2.962   0.045  17.239  1.4146 -0.3046 -0.4836
 2696TIP3   OH229578   2.885   5.285  11.381  0.5540 -0.2724  0.1487
 2696TIP3    H129579   2.831   5.282  11.302 -0.5311  1.8982  0.7573
 2696TIP3    H229580   2.960   5.340  11.357  0.4397  0.0412  0.5172
 2697TIP3   OH229581   3.569   2.153   1.561  0.2011  0.1365  0.2187
 2697TIP3    H129582   3.607   2.235   1.593  0.1704  0.6433 -0.9859
 2697TIP3    H229583   3.605   2.143   1.472 -1.1026 -0.2850 -0.2817
 2698TIP3   OH229584   4.467   5.872  15.713 -0.0153 -0.2313  0.1779
 2698TIP3    H129585   4.448   5.789  15.671  2.4901 -0.9209  0.2232
 2698TIP3    H229586   4.486   5.932  15.641 -2.7067  0.6463  0.0946
 2699TIP3   OH229587   6.827   5.742  11.002  0.1636  0.0414  0.2075
 2699TIP3    H129588   6.736   5.764  10.983  0.3433  0.1844 -0.5576
 2699TIP3    H229589   6.854   5.687  10.928  0.6272 -0.1837  0.5416
 2700TIP3   OH229590   0.041   3.333  11.580 -0.2652  0.0165  0.2788
 2700TIP3    H129591  -0.052   3.313  11.573 -0.0841 -0.5306 -0.7663
 2700TIP3    H229592   0.083   3.270  11.522  0.9618 -1.2203  2.3838
 2701TIP3   OH229593   6.372   1.806   2.194  0.0308  0.5774  0.5101
 2701TIP3    H129594   6.350   1.724   2.149  0.4010  1.0795 -0.6069
 2701TIP3    H229595   6.292   1.829   2.242 -1.4269  1.4926 -2.1539
 2702TIP3   OH229596   4.324   1.592  16.687 -0.5301  0.1654  0.2144
 2702TIP3    H129597   4.269   1.520  16.717 -0.9267  0.5291  0.3549
 2702TIP3    H229598   4.391   1.549  16.633 -0.1151 -0.4260  1.1819
 2703TIP3   OH229599   4.089   0.496  14.937  0.3802 -0.7038 -0.1780
 2703TIP3    H129600   4.114   0.518  14.847 -1.9707  0.0069 -0.7248
 2703TIP3    H229601   4.093   0.400  14.941  0.0605 -0.7644 -1.1778
 2704TIP3   OH229602   5.509   1.348  13.343  0.6215  0.0931 -0.0391
 2704TIP3    H129603   5.450   1.330  13.416  2.0237 -1.0177  0.8911
 2704TIP3    H229604   5.535   1.261  13.312  0.3549  0.5505 -1.6371
 2705TIP3   OH229605   3.669   0.016   5.978  0.4775  0.3407 -0.3033
 2705TIP3    H129606   3.625   0.087   6.024 -0.7749  0.6946 -1.9574
 2705TIP3    H229607   3.762   0.028   5.999  0.3350  2.6136 -0.7214
 2706TIP3   OH229608   6.153   1.455   1.191  0.1364  0.4696  0.0458
 2706TIP3    H129609   6.128   1.409   1.272 -1.5528  0.9372 -0.1702
 2706TIP3    H229610   6.119   1.399   1.121 -0.5889  1.2706 -0.2569
 2707TIP3   OH229611   6.048   6.209  17.090 -0.0396  0.1249  0.5040
 2707TIP3    H129612   6.019   6.243  17.006 -0.7350 -0.1296  0.6322
 2707TIP3    H229613   6.115   6.144  17.068  0.3954  0.6664  0.1985
 2708TIP3   OH229614   4.357   5.781   0.327 -0.1016 -0.0644 -0.0066
 2708TIP3    H129615   4.372   5.698   0.372 -0.0927 -0.3065 -0.4413
 2708TIP3    H229616   4.263   5.795   0.332 -0.4558 -1.2658 -1.8657
 2709TIP3   OH229617   3.443   6.700  17.127 -0.4051 -0.4820  0.1416
 2709TIP3    H129618   3.451   6.743  17.212 -0.3576 -0.4901  0.1420
 2709TIP3    H229619   3.509   6.631  17.130  1.5133  1.1812 -0.9107
 2710TIP3   OH229620   4.409   2.761  14.305  0.0715 -0.1699  0.2017
 2710TIP3    H129621   4.322   2.750  14.343  0.0421 -1.3399 -0.1689
 2710TIP3    H229622   4.436   2.673  14.281  1.3138  0.1935  0.1930
 2711TIP3   OH229623   0.082   2.635  11.620  0.4720 -0.2587 -0.0676
 2711TIP3    H129624   0.106   2.597  11.704  2.2335 -1.4217 -1.0424
 2711TIP3    H229625  -0.007   2.603  11.604  0.3189 -0.4561  1.0712
 2712TIP3   OH229626   1.739   5.727   4.840 -0.1758  0.0707  0.2605
 2712TIP3    H129627   1.698   5.729   4.926 -0.0885 -0.1180  0.3068
 2712TIP3    H229628   1.812   5.666   4.849  0.8946  1.3599  0.5142
 2713TIP3   OH229629   6.152   3.578  16.389  0.1679  0.6682 -0.5869
 2713TIP3    H129630   6.087   3.569  16.459 -1.1797  2.3634 -1.5411
 2713TIP3    H229631   6.138   3.502  16.333  0.7968 -0.3365  0.5579
 2714TIP3   OH229632   1.420   6.823  15.877 -0.3021 -0.5749  0.3410
 2714TIP3    H129633   1.394   6.783  15.960 -0.4167 -0.3489  0.4183
 2714TIP3    H229634   1.348   6.802  15.818 -1.3275  1.1368  0.8970
 2715TIP3   OH229635   1.704   5.341   1.101 -0.2777 -0.1770 -0.7214
 2715TIP3    H129636   1.739   5.328   1.013  2.1612 -1.4870  0.3147
 2715TIP3    H229637   1.660   5.259   1.122 -0.0156 -0.2432 -0.4113
 2716TIP3   OH229638   5.037   0.903   4.026 -0.1965  0.1652 -0.3305
 2716TIP3    H129639   5.051   0.852   3.946  2.2684 -1.3841  0.9609
 2716TIP3    H229640   5.117   0.956   4.034 -0.7035  0.7986  0.7609
 2717TIP3   OH229641   0.733   6.271  14.996  0.0720  0.6242 -0.0105
 2717TIP3    H129642   0.756   6.349  15.046  1.5730 -0.3769  0.9474
 2717TIP3    H229643   0.791   6.203  15.031  0.5463 -0.3349 -2.5018
 2718TIP3   OH229644   4.281   6.168   6.570  0.2597  0.1739 -0.8014
 2718TIP3    H129645   4.287   6.137   6.480 -0.4010  0.2376 -0.8734
 2718TIP3    H229646   4.188   6.181   6.585 -0.3058 -4.4332  1.4360
 2719TIP3   OH229647   4.317   5.117  15.683  0.1956 -0.2201  0.0181
 2719TIP3    H129648   4.391   5.109  15.622 -0.4118 -1.0541 -0.6229
 2719TIP3    H229649   4.358   5.126  15.769  1.0503 -0.2922 -0.3715
 2720TIP3   OH229650   4.098   0.849  11.669 -0.3033  0.1359  0.2577
 2720TIP3    H129651   4.006   0.872  11.680 -1.3284 -2.5010 -1.5721
 2720TIP3    H229652   4.096   0.765  11.622  3.0569  0.5334 -0.8762
 2721TIP3   OH229653   6.002   3.225   3.106  0.5178 -0.4806 -0.3040
 2721TIP3    H129654   5.945   3.165   3.058 -0.9134  0.6382 -0.0954
 2721TIP3    H229655   5.971   3.312   3.082  1.2921  0.1413  0.8425
 2722TIP3   OH229656   3.222   4.092  16.909 -0.3809 -0.0184 -0.2515
 2722TIP3    H129657   3.289   4.033  16.943 -1.7381 -3.0966 -2.3964
 2722TIP3    H229658   3.266   4.140  16.839 -0.1143 -1.2633 -0.9626
 2723TIP3   OH229659   0.826   1.394  14.187 -0.6095 -0.4261 -0.3611
 2723TIP3    H129660   0.880   1.453  14.135 -0.6391 -0.1105 -0.0381
 2723TIP3    H229661   0.738   1.431  14.181 -0.3549  0.5227  1.1801
 2724TIP3   OH229662   1.344   1.948  12.568  0.0896  0.3604  0.2770
 2724TIP3    H129663   1.420   1.909  12.525  1.6543  1.5169  1.8417
 2724TIP3    H229664   1.300   1.997  12.499  0.2994 -0.9564 -0.8272
 2725TIP3   OH229665   0.610   3.830  11.372  0.5757 -0.5564  0.3237
 2725TIP3    H129666   0.572   3.750  11.409 -1.0533  0.5634  1.1747
 2725TIP3    H229667   0.564   3.901  11.416  1.9939  0.8740 -0.4117
 2726TIP3   OH229668   4.890   5.073   5.136  0.3297 -0.2857  0.0185
 2726TIP3    H129669   4.849   5.024   5.065 -2.7772  0.9987  0.7115
 2726TIP3    H229670   4.868   5.023   5.215 -1.4100  1.2201  0.5582
 2727TIP3   OH229671   1.405   5.247   4.184  0.1289 -1.3806  0.1528
 2727TIP3    H129672   1.466   5.309   4.223  0.2533 -0.3181 -1.5944
 2727TIP3    H229673   1.337   5.234   4.250  1.0224 -0.7643  1.2190
 2728TIP3   OH229674   3.478   2.620  16.041  0.2119  0.2957 -0.2586
 2728TIP3    H129675   3.495   2.542  16.093  0.2226  1.9834  2.4614
 2728TIP3    H229676   3.382   2.624  16.035  0.2261 -0.5224 -1.4908
 2729TIP3   OH229677   3.367   6.161  15.659  0.4450 -0.3597  0.8238
 2729TIP3    H129678   3.314   6.101  15.712 -1.0336 -1.2619 -1.5361
 2729TIP3    H229679   3.334   6.248  15.682 -0.8120 -0.7942  0.7251
 2730TIP3   OH229680   0.776   3.441  13.291 -0.4262  0.4579  0.1474
 2730TIP3    H129681   0.813   3.402  13.211 -0.5374  0.0635  0.2856
 2730TIP3    H229682   0.841   3.422  13.359  0.1078  1.5924 -0.0235
 2731TIP3   OH229683   3.511   2.180   5.835  0.9490  0.7692 -0.5079
 2731TIP3    H129684   3.460   2.189   5.915 -1.7825  1.3043 -2.1825
 2731TIP3    H229685   3.533   2.087   5.829  1.6395  0.8096  1.0661
 2732TIP3   OH229686   4.687   2.867   1.921  0.2274  0.1662  0.4713
 2732TIP3    H129687   4.627   2.898   1.853 -0.4115  0.3578  1.1049
 2732TIP3    H229688   4.634   2.808   1.974  0.1857  1.3894  1.8588
 2733TIP3   OH229689   1.036   3.403  13.330 -0.5715  0.5385 -0.3047
 2733TIP3    H129690   1.044   3.491  13.294 -0.0307  0.6920  0.1845
 2733TIP3    H229691   1.066   3.345  13.259 -1.9971  0.6578 -1.0431
 2734TIP3   OH229692   2.999   2.486  16.692  0.0903 -0.4388 -0.6388
 2734TIP3    H129693   2.977   2.457  16.781  1.7391  0.7333  0.2071
 2734TIP3    H229694   2.947   2.565  16.679 -0.5273 -0.8842 -0.9325
 2735TIP3   OH229695   2.313   1.742   5.937  0.1700  0.4446 -0.5534
 2735TIP3    H129696   2.257   1.692   5.877  0.2174 -0.1884 -0.0785
 2735TIP3    H229697   2.255   1.811   5.972 -0.4809 -0.5243  0.3357
 2736TIP3   OH229698   6.505   2.660  14.517  0.2834 -0.3638  0.1267
 2736TIP3    H129699   6.540   2.571  14.521 -1.7088 -1.2412 -0.7796
 2736TIP3    H229700   6.454   2.662  14.436 -0.2211  1.4164  0.4491
 2737TIP3   OH229701   3.825   0.857   0.416  0.2414 -0.6036 -0.0598
 2737TIP3    H129702   3.827   0.831   0.323  3.1992 -1.0254  0.0208
 2737TIP3    H229703   3.759   0.800   0.455 -0.0897 -1.3770 -1.6645
 2738TIP3   OH229704   4.113   3.053   5.801  0.3978 -0.7137  0.0209
 2738TIP3    H129705   4.141   3.076   5.889 -0.1177 -1.1540  0.3031
 2738TIP3    H229706   4.134   2.960   5.792  1.1746 -0.4933 -0.6093
 2739TIP3   OH229707   5.302   1.968  13.463  0.2598 -0.0936 -0.1453
 2739TIP3    H129708   5.310   1.886  13.511  0.3063 -0.1984 -0.3336
 2739TIP3    H229709   5.288   2.034  13.531  1.6242 -0.0463  0.1314
 2740TIP3   OH229710   0.052   5.360  13.105 -0.0673  0.4071 -0.3045
 2740TIP3    H129711  -0.041   5.360  13.080  0.6374 -0.3231 -3.3703
 2740TIP3    H229712   0.073   5.267  13.116 -0.0185  0.6495  1.9660
 2741TIP3   OH229713   6.476   3.524  13.024 -0.0397 -0.8112 -0.4964
 2741TIP3    H129714   6.445   3.590  13.086 -0.6587 -0.7577 -0.8523
 2741TIP3    H229715   6.444   3.555  12.939 -1.1648 -2.0387 -0.5597
 2742TIP3   OH229716   3.026   1.270   3.909 -0.0110  0.1259 -0.2074
 2742TIP3    H129717   3.075   1.350   3.893  0.6245 -0.4269 -1.1642
 2742TIP3    H229718   2.977   1.287   3.989  1.0815  1.0123  0.3063
 2743TIP3   OH229719   4.168   0.874  11.934 -0.6383 -0.0455  0.4111
 2743TIP3    H129720   4.130   0.862  12.021 -1.1208  0.3388  0.2604
 2743TIP3    H229721   4.092   0.876  11.875 -0.2445 -2.4160 -0.2938
 2744TIP3   OH229722   2.064   5.100  13.567 -0.3413  0.0670  0.1016
 2744TIP3    H129723   2.131   5.061  13.623 -1.3346  0.4613  1.5978
 2744TIP3    H229724   1.997   5.032  13.559  0.0915 -0.2490 -1.2264
 2745TIP3   OH229725   2.254   6.409   0.772  0.0563 -0.3480 -0.3203
 2745TIP3    H129726   2.242   6.411   0.867  0.5139  2.0864 -0.2270
 2745TIP3    H229727   2.338   6.364   0.759 -0.5650 -1.7195  0.3216
 2746TIP3   OH229728   1.924   2.373  13.465 -0.0494 -0.0961 -0.0921
 2746TIP3    H129729   1.975   2.294  13.448 -0.3926 -0.6748  1.3792
 2746TIP3    H229730   1.966   2.411  13.543  0.3607  1.4027 -1.0091
 2747TIP3   OH229731   5.771   3.451   1.573  0.2252  0.1895 -0.3132
 2747TIP3    H129732   5.703   3.519   1.572  0.5631  0.5346 -0.5129
 2747TIP3    H229733   5.728   3.373   1.539  0.0954  0.5750 -1.0687
 2748TIP3   OH229734   0.568   6.091  16.520 -0.5337 -0.3227  0.3348
 2748TIP3    H129735   0.516   6.132  16.589  0.3019 -0.6265  1.1642
 2748TIP3    H229736   0.638   6.045  16.566 -0.8959 -1.9082 -0.6256
 2749TIP3   OH229737   2.146   3.819   3.928 -0.2278  1.0526  0.3683
 2749TIP3    H129738   2.233   3.787   3.905 -1.4128 -0.9473 -1.7993
 2749TIP3    H229739   2.119   3.766   4.002  0.0418  1.0741  0.4830
 2750TIP3   OH229740   2.446   5.212  11.524  0.2474 -0.9103 -0.2683
 2750TIP3    H129741   2.514   5.177  11.466 -0.3527  0.4671 -1.8874
 2750TIP3    H229742   2.376   5.238  11.465 -0.0625  1.3326  0.9956
 2751TIP3   OH229743   2.511   0.644   5.089  0.3275  0.4980  0.1027
 2751TIP3    H129744   2.508   0.602   5.003 -0.7416  0.9414 -0.0901
 2751TIP3    H229745   2.534   0.573   5.149 -0.8731 -0.2792 -0.3003
 2752TIP3   OH229746   2.027   5.348  16.394 -0.3781 -0.4587  0.2866
 2752TIP3    H129747   2.098   5.381  16.450 -1.4168 -0.7133  1.8172
 2752TIP3    H229748   2.053   5.259  16.373  1.6111  0.6370 -2.4496
 2753TIP3   OH229749   0.893   0.204   0.809  0.0153  0.8621 -0.3985
 2753TIP3    H129750   0.891   0.126   0.755  1.3439 -0.5860  1.5055
 2753TIP3    H229751   0.810   0.248   0.791 -1.3009 -1.5822 -0.6978
 2754TIP3   OH229752   2.209   1.099  10.931 -0.5798  0.1525 -0.8652
 2754TIP3    H129753   2.257   1.038  10.987  2.6440  1.3686 -2.0864
 2754TIP3    H229754   2.122   1.060  10.924 -0.0297 -1.9645  1.9070
 2755TIP3   OH229755   0.207   0.556  14.699 -0.4789 -0.2708  0.1101
 2755TIP3    H129756   0.125   0.538  14.653 -0.6361  0.7507 -0.0410
 2755TIP3    H229757   0.233   0.472  14.736 -1.8660 -0.5121  0.6040
 2756TIP3   OH229758   5.997   3.270  15.749  0.0179 -0.1937  0.0313
 2756TIP3    H129759   6.092   3.280  15.748  0.2141 -1.6612 -1.5768
 2756TIP3    H229760   5.962   3.359  15.743  1.2622  0.3888  1.0306
 2757TIP3   OH229761   0.892   1.405   3.449  0.7537  0.1211  0.6797
 2757TIP3    H129762   0.846   1.412   3.533 -1.4039 -1.2264 -0.3030
 2757TIP3    H229763   0.888   1.312   3.427  0.1036  0.6178 -1.5306
 2758TIP3   OH229764   5.113   4.344   6.380 -0.0300  0.7579 -0.5899
 2758TIP3    H129765   5.067   4.340   6.296  1.1804  2.2549 -1.3697
 2758TIP3    H229766   5.199   4.305   6.363  0.4247  1.5620 -0.2179
 2759TIP3   OH229767   0.044   2.071   3.951 -0.0192 -0.5001 -0.0080
 2759TIP3    H129768   0.017   1.980   3.939 -0.5937 -0.2462 -0.6070
 2759TIP3    H229769   0.125   2.064   4.003  0.0171 -1.3546 -0.1614
 2760TIP3   OH229770   6.251   3.808  16.010  0.1844 -0.4765  0.0747
 2760TIP3    H129771   6.319   3.856  16.058 -0.8176 -0.2748  1.3531
 2760TIP3    H229772   6.175   3.866  16.010 -0.7692 -1.6493  0.8670
 2761TIP3   OH229773   4.284   3.554   4.172  0.3001 -0.0759  0.5134
 2761TIP3    H129774   4.270   3.476   4.119  0.1229 -0.0542  0.5288
 2761TIP3    H229775   4.374   3.581   4.152  0.6820 -0.8013  1.1825
 2762TIP3   OH229776   6.472   3.238   3.388 -0.0881 -0.4954 -0.8113
 2762TIP3    H129777   6.405   3.204   3.329  0.5535 -0.1958 -1.7269
 2762TIP3    H229778   6.522   3.161   3.416 -1.6193 -0.9253  0.9756
 2763TIP3   OH229779   4.125   0.652   4.950 -0.5162  0.0594 -0.5097
 2763TIP3    H129780   4.062   0.587   4.918 -0.4988  0.3442 -1.1303
 2763TIP3    H229781   4.207   0.604   4.957 -0.9606 -0.5347  1.1013
 2764TIP3   OH229782   1.644   1.692   4.924  0.3010 -0.1278  0.3977
 2764TIP3    H129783   1.719   1.656   4.876  1.1559  0.9086  0.9027
 2764TIP3    H229784   1.672   1.780   4.950 -1.1754  0.3768  0.4196
 2765TIP3   OH229785   3.055   0.350   2.227 -0.2026  0.1927 -0.0891
 2765TIP3    H129786   3.072   0.431   2.274 -2.1797  0.6517 -0.0811
 2765TIP3    H229787   2.995   0.302   2.284  3.0929 -2.7028  1.3245
 2766TIP3   OH229788   4.929   2.358  13.805  0.2052  0.0420 -0.5584
 2766TIP3    H129789   4.843   2.374  13.843  0.5824  0.4310  0.1488
 2766TIP3    H229790   4.950   2.438  13.757 -0.0014 -0.2080 -1.0654
 2767TIP3   OH229791   2.489   4.272  16.503 -0.2323 -0.1977  0.0226
 2767TIP3    H129792   2.573   4.267  16.549 -0.9445 -0.8692  1.3020
 2767TIP3    H229793   2.511   4.304  16.416  1.0220  2.6175  1.2480
 2768TIP3   OH229794   4.065   6.049  15.245 -0.0760 -0.0296  0.8010
 2768TIP3    H129795   3.992   6.106  15.222 -0.7848 -1.2896 -0.2412
 2768TIP3    H229796   4.120   6.101  15.304 -0.9988  1.4856  0.3604
 2769TIP3   OH229797   3.684   4.951   2.950 -0.6655 -0.2807 -0.2703
 2769TIP3    H129798   3.668   4.859   2.928 -0.4327 -0.0542 -1.4353
 2769TIP3    H229799   3.762   4.975   2.900 -0.6740  0.5351  0.0873
 2770TIP3   OH229800   2.781   2.228  14.712  0.4487 -0.3016  0.4079
 2770TIP3    H129801   2.820   2.145  14.741  0.5336 -0.5578 -0.4018
 2770TIP3    H229802   2.821   2.294  14.768  1.2970 -0.6752  0.2664
 2771TIP3   OH229803   6.590   0.146   3.787  0.1390  0.4723 -0.2015
 2771TIP3    H129804   6.685   0.153   3.802 -0.0201  0.8585  0.6679
 2771TIP3    H229805   6.567   0.059   3.818 -0.2288  1.3461  2.1994
 2772TIP3   OH229806   6.154   6.166   6.568  0.3274  0.3173 -0.6624
 2772TIP3    H129807   6.135   6.080   6.606 -1.4840  0.7631 -0.4710
 2772TIP3    H229808   6.193   6.216   6.640  0.5712 -0.0715 -0.5237
 2773TIP3   OH229809   6.311   4.701  11.244  0.0980  0.8279 -0.2394
 2773TIP3    H129810   6.392   4.712  11.294  0.3705  2.0155 -0.9026
 2773TIP3    H229811   6.307   4.607  11.226  2.1292  0.9016 -1.4613
 2774TIP3   OH229812   5.319   6.312  12.944  0.5577 -0.3554  0.4332
 2774TIP3    H129813   5.361   6.243  12.995  0.5975  0.0908  1.0302
 2774TIP3    H229814   5.230   6.317  12.979  0.4545 -0.3301  0.1677
 2775TIP3   OH229815   1.935   6.383  15.896 -0.7029 -0.3948  0.2053
 2775TIP3    H129816   1.896   6.396  15.810  1.2562  1.2893 -0.5249
 2775TIP3    H229817   1.978   6.298  15.891 -0.7700 -0.3957 -0.4235
 2776TIP3   OH229818   5.982   0.784  12.844  0.0570  0.0571  0.1732
 2776TIP3    H129819   6.064   0.822  12.815  0.3888 -0.6735  0.1273
 2776TIP3    H229820   6.007   0.701  12.885 -0.7877 -1.0872 -1.4724
 2777TIP3   OH229821   5.089   5.910   0.634  0.3094 -0.2361 -0.4611
 2777TIP3    H129822   5.181   5.885   0.638  0.2370 -0.3949  0.4656
 2777TIP3    H229823   5.042   5.834   0.669 -0.0082  0.6472  1.1359
 2778TIP3   OH229824   5.126   2.240  11.558 -0.5839 -0.2370 -0.7340
 2778TIP3    H129825   5.036   2.230  11.529 -0.9058 -0.9134  0.4382
 2778TIP3    H229826   5.148   2.331  11.537 -1.1655 -0.3778 -2.0145
 2779TIP3   OH229827   2.760   5.744  13.761 -0.7467 -0.0189  0.7628
 2779TIP3    H129828   2.670   5.761  13.732 -0.5090 -0.8537 -0.4926
 2779TIP3    H229829   2.786   5.825  13.805 -1.3158  1.1023 -0.8787
 2780TIP3   OH229830   2.225   0.239   3.764  0.0098 -0.1142  0.8550
 2780TIP3    H129831   2.274   0.157   3.761 -0.7236 -0.5831  1.3609
 2780TIP3    H229832   2.168   0.236   3.687  0.2505  0.0996  0.6657
 2781TIP3   OH229833   2.771   6.006   3.760 -0.3092  0.2754  0.1275
 2781TIP3    H129834   2.713   5.941   3.720 -1.0094  1.8365 -1.5283
 2781TIP3    H229835   2.718   6.045   3.829  0.3981 -1.4105  1.7034
 2782TIP3   OH229836   2.039   5.651   4.109  0.0910  0.2683 -0.2552
 2782TIP3    H129837   2.091   5.697   4.174 -0.0652  0.8669 -0.5511
 2782TIP3    H229838   1.949   5.660   4.138 -0.3116  2.9888 -1.9771
 2783TIP3   OH229839   0.792   0.577   5.492 -0.0391  0.0300  0.4297
 2783TIP3    H129840   0.775   0.659   5.539 -2.2609  0.7631 -1.4340
 2783TIP3    H229841   0.874   0.593   5.445  0.0423  0.8453  0.8395
 2784TIP3   OH229842   5.244   4.395  13.179  0.3338  0.0944 -0.5622
 2784TIP3    H129843   5.217   4.318  13.129  0.1605  0.6581 -1.3469
 2784TIP3    H229844   5.188   4.466  13.149  1.9781  1.0651 -1.5177
 2785TIP3   OH229845   6.598   1.740   0.713  0.2161  0.2458 -0.4633
 2785TIP3    H129846   6.657   1.669   0.738  1.1117  1.3566  0.7933
 2785TIP3    H229847   6.510   1.705   0.727  0.5458 -1.2984 -1.9422
 2786TIP3   OH229848   5.652   2.421  13.759  0.1869 -0.2879  0.3792
 2786TIP3    H129849   5.745   2.402  13.767 -0.1005 -1.7314  0.6201
 2786TIP3    H229850   5.609   2.335  13.766 -1.1296  0.2923 -0.1798
 2787TIP3   OH229851   3.939   3.126  12.968  0.3668 -0.0144  0.2890
 2787TIP3    H129852   3.923   3.035  12.941  1.1556  0.3373 -1.5202
 2787TIP3    H229853   3.870   3.145  13.032 -0.2241 -1.6564  0.1854
 2788TIP3   OH229854   0.292   4.007   2.609 -0.3623 -0.1015 -0.2522
 2788TIP3    H129855   0.293   4.028   2.516 -0.8855  1.5290  0.0739
 2788TIP3    H229856   0.213   3.955   2.622 -1.2518  1.1566 -0.4553
 2789TIP3   OH229857   2.279   0.623  11.775 -0.0189  0.3570  0.2464
 2789TIP3    H129858   2.232   0.665  11.848  0.3149  1.6275 -0.2429
 2789TIP3    H229859   2.367   0.609  11.809  0.0841  0.7759  0.1620
 2790TIP3   OH229860   2.909   4.559  14.738  0.2155 -0.6722 -0.0153
 2790TIP3    H129861   2.908   4.470  14.773 -1.3970 -1.1762 -1.2256
 2790TIP3    H229862   2.835   4.603  14.780 -0.0724 -0.4550 -0.7237
 2791TIP3   OH229863   4.379   1.141   1.039 -0.4745  0.4677  0.4296
 2791TIP3    H129864   4.287   1.120   1.051 -0.3374 -0.7259 -0.4439
 2791TIP3    H229865   4.410   1.079   0.973  1.1685  0.2515  1.3295
 2792TIP3   OH229866   1.211   5.117  14.425 -0.4449  0.3432  0.1480
 2792TIP3    H129867   1.243   5.128  14.335  0.0698  0.8027  0.3788
 2792TIP3    H229868   1.119   5.093  14.415 -0.1041 -0.7159 -0.5217
 2793TIP3   OH229869   4.214   4.322  12.782 -0.4396  0.3233  0.4546
 2793TIP3    H129870   4.247   4.301  12.869  0.7992  0.3619  0.0243
 2793TIP3    H229871   4.292   4.349  12.733 -1.4683  2.9215  0.0921
 2794TIP3   OH229872   0.837   2.868  15.675 -0.2920 -0.0497 -0.3746
 2794TIP3    H129873   0.838   2.818  15.757 -2.0863  0.1411 -0.2160
 2794TIP3    H229874   0.830   2.801  15.607  1.4237 -0.2245 -0.4326
 2795TIP3   OH229875   3.004   2.810  13.945 -0.0883 -0.0897 -0.0286
 2795TIP3    H129876   2.983   2.902  13.953 -1.3168 -0.4307  0.9418
 2795TIP3    H229877   3.067   2.806  13.873 -2.0507  1.1951 -1.9480
 2796TIP3   OH229878   6.678   0.241  15.194 -0.3086 -0.5523 -0.2540
 2796TIP3    H129879   6.620   0.168  15.175  0.4124 -1.4612  0.8634
 2796TIP3    H229880   6.745   0.238  15.126  0.7738 -2.1405  0.8156
 2797TIP3   OH229881   3.138   3.219   0.591 -0.5233 -0.6439  0.7463
 2797TIP3    H129882   3.062   3.180   0.548 -0.2524 -1.3394  0.8924
 2797TIP3    H229883   3.104   3.254   0.674 -0.6788 -0.9548  0.8123
 2798TIP3   OH229884   3.344   2.686   0.590  0.0418 -0.3331  0.1375
 2798TIP3    H129885   3.303   2.767   0.559  1.0811  0.0354 -0.3281
 2798TIP3    H229886   3.300   2.668   0.673 -0.7181  0.3044 -0.1074
 2799TIP3   OH229887   2.143   3.878   2.693  0.2622  0.3827  0.2535
 2799TIP3    H129888   2.090   3.835   2.627  0.2294  0.2552  0.3629
 2799TIP3    H229889   2.198   3.808   2.729  0.0302  0.3796  0.6071
 2800TIP3   OH229890   1.683   1.751   2.361 -0.2276  0.5406  0.4174
 2800TIP3    H129891   1.639   1.819   2.412 -0.0788  1.6200 -0.8523
 2800TIP3    H229892   1.710   1.795   2.281  0.1648 -0.9519 -0.2959
 2801TIP3   OH229893   1.001   1.887  17.003 -0.5495  0.1656 -0.3327
 2801TIP3    H129894   0.999   1.849  16.915 -1.0718 -0.1385 -0.1962
 2801TIP3    H229895   1.079   1.942  17.003 -1.5499  1.6925 -1.6165
 2802TIP3   OH229896   1.392   6.131  11.497  0.0463  0.0351 -0.2109
 2802TIP3    H129897   1.429   6.203  11.548  0.6710 -0.5022  0.1066
 2802TIP3    H229898   1.298   6.148  11.497 -0.0608 -0.3316  1.7681
 2803TIP3   OH229899   4.005   2.549  17.154  0.0324  0.4934  0.0916
 2803TIP3    H129900   4.081   2.549  17.211  1.4779  0.7612 -1.7427
 2803TIP3    H229901   3.992   2.456  17.131  0.3473  0.5328 -0.2582
 2804TIP3   OH229902   4.350   0.239   0.387 -0.1447  0.0046  0.0455
 2804TIP3    H129903   4.339   0.146   0.369 -0.0138 -0.1179  0.5787
 2804TIP3    H229904   4.423   0.243   0.450 -0.5844  0.4112  0.5392
 2805TIP3   OH229905   3.420   4.943   2.988 -0.1346  0.4115 -0.2809
 2805TIP3    H129906   3.406   5.020   2.933  0.3980 -0.3214 -1.4800
 2805TIP3    H229907   3.516   4.937   2.997 -0.1959  0.2459  0.3295
 2806TIP3   OH229908   5.832   0.133   2.333 -0.1113  0.4198  0.2660
 2806TIP3    H129909   5.924   0.156   2.318 -0.3696  1.1037 -0.3526
 2806TIP3    H229910   5.798   0.113   2.246 -0.5677  0.2287  0.4836
 2807TIP3   OH229911   4.172   4.093  14.418  0.0467 -0.0575 -0.4212
 2807TIP3    H129912   4.198   4.184  14.410 -3.6437  1.2839  0.6054
 2807TIP3    H229913   4.082   4.091  14.383 -0.2435 -3.1619  0.1837
 2808TIP3   OH229914   1.200   1.505   1.380  0.0286 -0.5699 -0.0018
 2808TIP3    H129915   1.227   1.419   1.345  0.5268  0.0329 -1.1754
 2808TIP3    H229916   1.282   1.545   1.409 -0.2926 -0.7596  1.2002
 2809TIP3   OH229917   5.039   1.446  13.155  0.7934  0.2685  0.4911
 2809TIP3    H129918   4.964   1.507  13.154 -0.2263 -0.9399  0.9006
 2809TIP3    H229919   5.019   1.386  13.227  0.7115 -1.8390 -1.1903
 2810TIP3   OH229920   2.526   4.744   3.470 -0.0421  0.2017 -0.5656
 2810TIP3    H129921   2.434   4.760   3.491  0.0520  1.0651 -0.7483
 2810TIP3    H229922   2.538   4.650   3.481 -1.3034 -0.1556 -1.9536
 2811TIP3   OH229923   5.862   2.604  12.093  0.1108 -0.0983 -0.2919
 2811TIP3    H129924   5.942   2.580  12.140  0.3520  0.9996 -0.1175
 2811TIP3    H229925   5.855   2.699  12.104 -2.2911 -0.3921  1.3896
 2812TIP3   OH229926   6.813   5.204  16.481 -0.6138 -0.0398 -0.3385
 2812TIP3    H129927   6.821   5.281  16.426 -1.7368 -0.0517 -0.5349
 2812TIP3    H229928   6.834   5.234  16.569  2.8992 -0.3590 -0.9041
 2813TIP3   OH229929   4.715   2.616   2.509  0.7253  0.1868  0.0391
 2813TIP3    H129930   4.627   2.641   2.482  1.1109  1.1909 -0.3316
 2813TIP3    H229931   4.760   2.597   2.427  0.1774 -2.8116  0.3305
 2814TIP3   OH229932   0.793   1.536   5.764  0.6742 -0.8285  0.5277
 2814TIP3    H129933   0.884   1.507   5.767 -0.2794 -4.3253  0.0734
 2814TIP3    H229934   0.762   1.531   5.854  0.8496  0.2089  0.6584
 2815TIP3   OH229935   2.642   0.437   4.696  0.0413 -0.8473  0.3931
 2815TIP3    H129936   2.609   0.442   4.786 -1.2314 -1.3374 -0.0229
 2815TIP3    H229937   2.702   0.511   4.688 -1.3399  0.3698  1.0463
 2816TIP3   OH229938   2.935   6.379   0.104  0.1117 -0.2250 -0.0415
 2816TIP3    H129939   2.841   6.378   0.084 -0.0440  1.0715  0.5164
 2816TIP3    H229940   2.948   6.304   0.163 -0.6626 -0.1336  0.2536
 2817TIP3   OH229941   1.606   6.183  12.891  0.0866 -0.2348 -0.0117
 2817TIP3    H129942   1.694   6.169  12.855  0.3687  0.1513  0.5149
 2817TIP3    H229943   1.558   6.104  12.867  0.9286 -1.0000  0.7318
 2818TIP3   OH229944   3.724   2.724   4.972 -0.0881  0.3625  0.2139
 2818TIP3    H129945   3.814   2.753   4.962 -0.5745  1.2305 -2.1980
 2818TIP3    H229946   3.700   2.687   4.887 -2.0476  0.2633  0.7440
 2819TIP3   OH229947   3.280   6.336   3.750  0.2394  0.0455 -0.0590
 2819TIP3    H129948   3.341   6.400   3.713  0.0181 -0.4362 -1.3213
 2819TIP3    H229949   3.215   6.388   3.797  0.4472  0.7017 -0.4904
 2820TIP3   OH229950   0.534   2.426  13.654  0.4453  0.7747 -0.0983
 2820TIP3    H129951   0.481   2.493  13.610 -1.1011 -1.0474 -1.1291
 2820TIP3    H229952   0.474   2.383  13.713  1.7037  0.9657  1.3909
 2821TIP3   OH229953   0.168   2.261  13.110  0.0199 -0.0271 -0.5934
 2821TIP3    H129954   0.213   2.176  13.111  0.4837  0.2217  0.1911
 2821TIP3    H229955   0.081   2.241  13.144  0.6749  0.0891  1.2351
 2822TIP3   OH229956   2.581   5.958  16.661 -0.2470  0.4884 -0.2078
 2822TIP3    H129957   2.646   5.978  16.728  0.4617  1.1168 -1.0584
 2822TIP3    H229958   2.575   5.863  16.660 -1.2284  0.4796  1.6248
 2823TIP3   OH229959   2.874   2.900   4.875  0.1359 -0.2559  0.4399
 2823TIP3    H129960   2.815   2.825   4.872 -0.7615  0.4306  0.3250
 2823TIP3    H229961   2.879   2.923   4.968 -0.9313  0.5528  0.3122
 2824TIP3   OH229962   1.924   3.325   5.265 -0.2292 -0.1949  0.4798
 2824TIP3    H129963   1.930   3.280   5.181  3.5279  2.4131 -0.8824
 2824TIP3    H229964   1.899   3.415   5.242  1.0482  0.6140  2.1083
 2825TIP3   OH229965   4.011   4.463   5.229  0.2342 -0.2134  0.1621
 2825TIP3    H129966   4.082   4.500   5.282  1.2353  1.8034 -2.4057
 2825TIP3    H229967   4.055   4.406   5.166 -0.4167  0.7296 -1.1885
 2826TIP3   OH229968   1.118   3.350  13.974  0.0281  0.0226  0.1272
 2826TIP3    H129969   1.147   3.267  13.937  0.1064 -0.2438  0.7847
 2826TIP3    H229970   1.168   3.359  14.055  0.3030  0.8950 -0.1237
 2827TIP3   OH229971   3.001   2.553   5.672  0.7189 -0.2708 -0.2227
 2827TIP3    H129972   3.096   2.549   5.672  0.7337  0.0948 -0.3042
 2827TIP3    H229973   2.976   2.528   5.761  0.9162  0.2751 -0.0129
 2828TIP3   OH229974   1.446   1.614  11.790 -0.0306  0.1717  0.2753
 2828TIP3    H129975   1.508   1.598  11.719 -0.4065 -0.1857  0.0275
 2828TIP3    H229976   1.481   1.691  11.835 -0.2684  0.9819 -0.8572
 2829TIP3   OH229977   2.400   1.900   5.198  0.0092  0.0948 -0.2884
 2829TIP3    H129978   2.481   1.932   5.238 -0.7542 -0.1533  1.5647
 2829TIP3    H229979   2.385   1.815   5.240 -0.7777 -0.2411 -1.2151
 2830TIP3   OH229980   6.455   1.510  15.441 -0.2212  0.1272 -0.1241
 2830TIP3    H129981   6.480   1.563  15.517  0.3714  0.0415 -0.2545
 2830TIP3    H229982   6.535   1.464  15.416 -0.4396  0.0574 -0.7231
 2831TIP3   OH229983   5.414   0.723  13.196  0.1300 -0.6468 -0.4002
 2831TIP3    H129984   5.473   0.773  13.252 -2.4357  0.4907  1.4763
 2831TIP3    H229985   5.430   0.756  13.108  3.3965 -1.6010 -0.3164
 2832TIP3   OH229986   2.210   2.499  16.532 -0.2737 -0.0062  0.0693
 2832TIP3    H129987   2.230   2.540  16.616 -1.2646 -0.2253  0.4242
 2832TIP3    H229988   2.167   2.417  16.554 -2.1480  0.7267 -0.6221
 2833TIP3   OH229989   2.904   6.408   4.223  0.0146 -0.0900  0.4288
 2833TIP3    H129990   2.816   6.371   4.221  0.5481 -1.4757 -1.2718
 2833TIP3    H229991   2.891   6.501   4.237 -1.5925 -0.4923  2.0129
 2834TIP3   OH229992   5.517   4.796  13.433  0.7619 -0.1934  0.3610
 2834TIP3    H129993   5.547   4.710  13.463  1.4667 -0.7649 -1.8007
 2834TIP3    H229994   5.466   4.777  13.354  0.8733  1.3628 -0.1120
 2835TIP3   OH229995   5.014   5.932  14.675  0.0304  0.2930  0.0275
 2835TIP3    H129996   4.945   5.953  14.612  0.7440 -0.1045 -0.9104
 2835TIP3    H229997   5.053   6.017  14.697  0.8862  0.2989 -1.3900
 2836TIP3   OH229998   3.617   2.527  12.540 -0.3517 -0.4400  0.1141
 2836TIP3    H129999   3.676   2.592  12.579  1.8784 -2.3591  0.1636
 2836TIP3    H230000   3.584   2.476  12.614 -1.1957 -0.0985 -0.0166
 2837TIP3   OH230001   0.420   0.224  15.957 -0.3524 -0.3672 -0.4830
 2837TIP3    H130002   0.328   0.212  15.977 -0.5367  0.1329 -0.9942
 2837TIP3    H230003   0.455   0.136  15.947 -1.0043 -0.5390 -1.2916
 2838TIP3   OH230004   3.219   0.814   4.861  0.3835 -0.1589  0.0370
 2838TIP3    H130005   3.267   0.732   4.851 -0.4428 -0.7252  0.6471
 2838TIP3    H230006   3.210   0.825   4.955 -0.8046 -0.1363 -0.0687
 2839TIP3   OH230007   2.234   3.761  13.169  0.1250  0.4556  0.1489
 2839TIP3    H130008   2.159   3.817  13.147 -0.8674 -1.1917 -0.8078
 2839TIP3    H230009   2.196   3.686  13.214  1.2346 -0.2793 -0.1098
 2840TIP3   OH230010   1.104   4.781  15.361 -0.2832  0.3023 -0.6481
 2840TIP3    H130011   1.105   4.709  15.298  2.2935  0.0373 -0.4081
 2840TIP3    H230012   1.108   4.737  15.446 -0.2027  0.7286 -0.4321
 2841TIP3   OH230013   3.190   5.172   4.821  0.2981 -0.6037 -0.2338
 2841TIP3    H130014   3.161   5.235   4.756  0.2376 -0.0737  0.2944
 2841TIP3    H230015   3.110   5.142   4.863  0.4403  3.1404  3.3578
 2842TIP3   OH230016   0.392   3.492   4.219  0.4674  0.3223 -0.4870
 2842TIP3    H130017   0.392   3.578   4.178 -2.8955  0.0643 -1.3505
 2842TIP3    H230018   0.365   3.509   4.309  0.1045  0.2261 -0.5749
 2843TIP3   OH230019   4.449   1.951  15.198  0.4254  0.4037 -0.4099
 2843TIP3    H130020   4.523   1.934  15.140 -1.5028 -2.0224 -2.3696
 2843TIP3    H230021   4.462   1.892  15.272  0.4496 -0.0144 -0.7478
 2844TIP3   OH230022   5.029   1.063   2.698  0.7327 -0.5108 -0.4314
 2844TIP3    H130023   5.018   0.971   2.719 -0.2976 -0.3575 -0.2705
 2844TIP3    H230024   5.113   1.068   2.653  0.9792 -1.4637 -0.0852
 2845TIP3   OH230025   2.926   1.270  10.758  0.1569  0.1424  0.2635
 2845TIP3    H130026   2.950   1.360  10.779  0.9401  0.0325 -0.1488
 2845TIP3    H230027   2.855   1.250  10.819 -2.2062  2.0603 -1.6619
 2846TIP3   OH230028   5.067   4.478   3.019  0.3639  0.0780  0.1894
 2846TIP3    H130029   5.065   4.397   3.069 -0.5161  0.2626  0.4731
 2846TIP3    H230030   5.160   4.501   3.014  0.4273  0.7592  2.9023
 2847TIP3   OH230031   0.049   3.456   2.839 -0.3550  0.5975  0.1571
 2847TIP3    H130032   0.036   3.515   2.913 -0.4668 -0.4204  0.9844
 2847TIP3    H230033   0.133   3.414   2.857 -0.8829 -0.4416  0.2867
 2848TIP3   OH230034   4.866   2.489   4.381  0.3661  0.4429  0.1845
 2848TIP3    H130035   4.775   2.499   4.354  0.8101  1.1505 -1.1129
 2848TIP3    H230036   4.916   2.539   4.318  1.6470  0.3615  1.0893
 2849TIP3   OH230037   2.353   3.627   5.370 -0.0534  0.3302  0.3167
 2849TIP3    H130038   2.332   3.563   5.439 -3.1704  1.1610  0.2954
 2849TIP3    H230039   2.373   3.708   5.418  0.5481  0.1990  0.2883
 2850TIP3   OH230040   5.357   5.430  11.636 -0.2581  0.0777 -0.1878
 2850TIP3    H130041   5.305   5.510  11.647 -1.2545 -0.3396 -1.5792
 2850TIP3    H230042   5.300   5.360  11.667 -0.5593 -0.3857 -1.7178
 2851TIP3   OH230043   6.630   3.025   3.462  0.2310 -0.1448  0.1688
 2851TIP3    H130044   6.665   2.938   3.446 -0.3650 -0.4595  0.5155
 2851TIP3    H230045   6.688   3.064   3.527  0.5276 -0.2646 -0.0251
 2852TIP3   OH230046   1.242   4.298  10.414  0.1699 -0.0693  0.2307
 2852TIP3    H130047   1.171   4.264  10.468 -1.9945 -0.4880 -2.6320
 2852TIP3    H230048   1.206   4.299  10.325  3.3962  0.8123 -1.2090
 2853TIP3   OH230049   0.608   6.076  13.757  0.1457 -0.3853  0.1612
 2853TIP3    H130050   0.619   6.156  13.705 -0.8941 -0.1828  0.2320
 2853TIP3    H230051   0.546   6.023  13.706  0.1206 -0.7459  0.5656
 2854TIP3   OH230052   2.918   4.887   0.489 -0.0559  0.8749 -0.5390
 2854TIP3    H130053   2.862   4.839   0.550  0.5711 -0.0787 -0.6938
 2854TIP3    H230054   2.877   4.973   0.481 -2.8458 -0.4784 -2.3996
 2855TIP3   OH230055   0.548   3.296  13.327 -0.9230  0.3475  0.5538
 2855TIP3    H130056   0.530   3.265  13.237  0.8095 -0.1780  0.3595
 2855TIP3    H230057   0.635   3.335  13.322 -1.1459  1.0467  1.8515
 2856TIP3   OH230058   3.145   1.072  13.989  0.3418  0.3396  0.0913
 2856TIP3    H130059   3.110   1.160  13.971 -0.4134  0.2221  0.8959
 2856TIP3    H230060   3.075   1.013  13.960 -0.3156  0.1104  2.0215
 2857TIP3   OH230061   4.103   4.851   1.507  0.1602  0.1851  0.0708
 2857TIP3    H130062   4.124   4.811   1.592 -0.8758  1.7037  1.1103
 2857TIP3    H230063   4.027   4.803   1.476 -0.2521  0.4543  0.6477
 2858TIP3   OH230064   4.462   5.665   1.610  0.2498  0.5073 -0.2600
 2858TIP3    H130065   4.414   5.584   1.625 -1.8436  1.9844  1.7813
 2858TIP3    H230066   4.403   5.718   1.556  1.1152  1.0898 -0.6558
 2859TIP3   OH230067   5.117   0.665  12.256  0.1979  0.1109 -0.1620
 2859TIP3    H130068   5.182   0.603  12.226 -0.4339 -0.1481 -1.0366
 2859TIP3    H230069   5.038   0.644  12.206 -0.3596  0.8681  0.3625
 2860TIP3   OH230070   4.833   5.194  16.329  0.2912  0.2456  0.2555
 2860TIP3    H130071   4.892   5.171  16.401 -0.2755 -0.9211  0.3836
 2860TIP3    H230072   4.795   5.110  16.302  0.3034  0.6912 -1.2430
 2861TIP3   OH230073   3.307   0.978   1.622  0.5331 -0.7440  0.2941
 2861TIP3    H130074   3.240   0.965   1.555  0.7606 -2.3156  0.3294
 2861TIP3    H230075   3.353   1.057   1.596  0.0285 -0.8296 -0.9052
 2862TIP3   OH230076   2.484   3.108   1.370 -0.9188 -0.0119 -0.5780
 2862TIP3    H130077   2.514   3.096   1.279  0.8204  0.3364 -0.0916
 2862TIP3    H230078   2.533   3.183   1.401 -0.7503 -0.7299  0.9671
 2863TIP3   OH230079   3.609   4.967   5.649  0.1544  0.2940 -0.6163
 2863TIP3    H130080   3.635   4.986   5.740  0.3449  0.0884 -0.6292
 2863TIP3    H230081   3.690   4.941   5.606 -0.4518 -2.9180 -0.0233
 2864TIP3   OH230082   6.668   5.715  13.757 -0.0779 -0.2614  0.3253
 2864TIP3    H130083   6.600   5.720  13.690 -1.4558  1.3894  1.7280
 2864TIP3    H230084   6.724   5.791  13.740  1.2877 -1.4040 -0.5914
 2865TIP3   OH230085   3.243   0.801  10.508  0.3811 -0.4524 -0.4998
 2865TIP3    H130086   3.282   0.812  10.594  0.5134 -0.6883 -0.5306
 2865TIP3    H230087   3.284   0.723  10.472 -0.2920 -0.8489 -0.4352
 2866TIP3   OH230088   1.774   0.152  16.515 -0.1031 -0.5716 -0.7010
 2866TIP3    H130089   1.821   0.083  16.561 -2.0959 -2.1752 -0.8720
 2866TIP3    H230090   1.701   0.174  16.573 -0.4103  0.2100 -1.3683
 2867TIP3   OH230091   6.473   4.400   2.407  0.1103 -0.2469 -0.3414
 2867TIP3    H130092   6.440   4.489   2.417 -0.3247 -0.5360  1.1075
 2867TIP3    H230093   6.402   4.344   2.438  0.6612 -1.0590 -0.5008
 2868TIP3   OH230094   1.668   1.370  12.710 -0.4780  0.0174  0.3146
 2868TIP3    H130095   1.685   1.322  12.629 -0.7032 -2.2185  1.5019
 2868TIP3    H230096   1.744   1.354  12.765 -0.6938  0.8068  0.8708
 2869TIP3   OH230097   5.738   0.572   2.787  0.1710  0.4177 -0.2020
 2869TIP3    H130098   5.653   0.530   2.773  1.0715 -1.5313 -0.1392
 2869TIP3    H230099   5.776   0.580   2.699  0.1744  0.7376 -0.1728
 2870TIP3   OH230100   1.501   0.220   3.500  0.0588  0.0322  0.6321
 2870TIP3    H130101   1.519   0.143   3.447  1.4459  0.2205  0.8079
 2870TIP3    H230102   1.407   0.237   3.486  0.1912 -0.4429 -1.0468
 2871TIP3   OH230103   5.530   2.928   3.796  0.2533  0.0211 -0.3708
 2871TIP3    H130104   5.596   2.993   3.819 -0.7168  1.0356 -0.3336
 2871TIP3    H230105   5.535   2.863   3.866  1.3206 -0.0180 -0.4696
 2872TIP3   OH230106   1.448   0.008   2.645  0.6014  0.1506  0.5645
 2872TIP3    H130107   1.529   0.011   2.595  0.0048  1.9693 -0.3786
 2872TIP3    H230108   1.384  -0.029   2.584  0.1434  1.2437  0.3554
 2873TIP3   OH230109   0.183   6.485   2.622 -0.2124  0.1138  0.2304
 2873TIP3    H130110   0.154   6.495   2.532 -1.0605  1.3168  0.6077
 2873TIP3    H230111   0.126   6.417   2.658  0.9948 -1.3316 -0.4609
 2874TIP3   OH230112   4.282   1.319  16.750 -0.4089  0.5666 -0.4600
 2874TIP3    H130113   4.243   1.286  16.831 -0.1648  0.2164 -0.4809
 2874TIP3    H230114   4.375   1.298  16.759 -0.0495  2.2173  0.0055
 2875TIP3   OH230115   2.935   1.962  13.343  0.2114  0.1368  0.0614
 2875TIP3    H130116   2.925   2.039  13.287 -3.1366 -1.0779 -1.2413
 2875TIP3    H230117   3.017   1.977  13.390  0.2157  3.9829 -0.8640
 2876TIP3   OH230118   2.521   3.594   2.177 -0.0953 -0.2061  0.0887
 2876TIP3    H130119   2.607   3.554   2.167 -0.4086 -0.6694 -0.9220
 2876TIP3    H230120   2.514   3.614   2.270  0.5867 -1.3475  0.4077
 2877TIP3   OH230121   3.809   5.408   0.390  0.1990 -0.6841 -0.3928
 2877TIP3    H130122   3.742   5.421   0.457  1.0987 -0.7396  0.5495
 2877TIP3    H230123   3.826   5.497   0.356 -0.1415 -0.6339 -0.4338
 2878TIP3   OH230124   4.662   4.860  16.895  0.4062  0.3911  0.4199
 2878TIP3    H130125   4.620   4.870  16.810  1.1449  2.3741  0.2145
 2878TIP3    H230126   4.724   4.788  16.883  0.2080  0.3746 -0.5906
 2879TIP3   OH230127   2.715   5.351  12.309  0.0782 -0.5293  0.3747
 2879TIP3    H130128   2.620   5.352  12.304  0.0094 -1.4054  1.2567
 2879TIP3    H230129   2.743   5.305  12.231 -0.0653  1.9424 -1.2485
 2880TIP3   OH230130   4.110   3.436  13.002 -0.0066  0.1092 -0.0480
 2880TIP3    H130131   4.105   3.522  12.959 -0.3043  1.1991  2.0458
 2880TIP3    H230132   4.109   3.374  12.930  2.4483  1.8864 -1.7647
 2881TIP3   OH230133   4.511   2.010   3.448  1.1432  0.4597  0.0083
 2881TIP3    H130134   4.419   1.994   3.424  1.8791 -2.6052 -1.3544
 2881TIP3    H230135   4.512   2.099   3.481 -2.8086 -0.2232  2.6554
 2882TIP3   OH230136   4.216   0.773  10.993  0.6599  0.7357 -0.1241
 2882TIP3    H130137   4.233   0.867  10.996  3.6894  0.2720  1.3070
 2882TIP3    H230138   4.158   0.757  11.067 -0.0280  1.4794 -0.4891
 2883TIP3   OH230139   5.056   6.045  13.263  0.4966  0.4439 -0.4312
 2883TIP3    H130140   5.108   5.965  13.270  1.3701  1.1161  1.6837
 2883TIP3    H230141   4.971   6.022  13.298  0.9830  0.5883  0.9073
 2884TIP3   OH230142   0.913   1.786  12.987  0.0890 -0.2921 -0.2273
 2884TIP3    H130143   0.947   1.710  13.033 -0.3833 -0.8059 -0.7077
 2884TIP3    H230144   0.990   1.829  12.950  0.3491 -0.5891 -0.0336
 2885TIP3   OH230145   5.574   2.798   1.295  0.0032  0.5253  0.2667
 2885TIP3    H130146   5.482   2.771   1.298  0.1271  0.0136 -0.2835
 2885TIP3    H230147   5.622   2.717   1.273  0.2965  1.3510 -2.5147
 2886TIP3   OH230148   4.302   4.341   5.747 -0.0892 -0.2038 -0.4285
 2886TIP3    H130149   4.332   4.343   5.837 -0.7748  0.8971 -0.2061
 2886TIP3    H230150   4.256   4.257   5.738  1.0193 -0.8636 -0.1261
 2887TIP3   OH230151   2.520   1.926   4.952 -0.2417 -0.2676  0.4130
 2887TIP3    H130152   2.473   1.918   5.035 -0.6329  0.6303  0.2886
 2887TIP3    H230153   2.467   1.986   4.900 -1.5553 -2.9781 -1.6072
 2888TIP3   OH230154   2.441   1.102   2.026 -0.2483 -0.4824  0.2807
 2888TIP3    H130155   2.503   1.173   2.042  0.5275 -0.1817 -3.2648
 2888TIP3    H230156   2.357   1.147   2.014 -0.4591 -0.5365  1.4825
 2889TIP3   OH230157   3.172   1.592   3.201  0.0602  0.1998 -0.2330
 2889TIP3    H130158   3.227   1.628   3.270  0.1275  1.6494 -0.9935
 2889TIP3    H230159   3.098   1.652   3.196 -1.0925 -1.1377  0.0733
 2890TIP3   OH230160   2.072   6.223   5.321 -0.3938 -0.1719  0.0896
 2890TIP3    H130161   2.005   6.180   5.373 -0.7749  1.0402  0.6441
 2890TIP3    H230162   2.031   6.236   5.235 -1.3681  1.6039  0.7540
 2891TIP3   OH230163   6.019   4.982   2.173  0.0929  0.1618 -0.2434
 2891TIP3    H130164   5.992   4.924   2.244  1.1650 -0.0780 -0.0107
 2891TIP3    H230165   6.091   5.033   2.210 -0.5370  1.3336 -0.5867
 2892TIP3   OH230166   2.690   6.804  15.187 -0.3450  0.6708 -0.1916
 2892TIP3    H130167   2.723   6.819  15.275 -0.0775 -0.9194  0.0091
 2892TIP3    H230168   2.758   6.754  15.143 -0.7058  0.9753 -1.1379
 2893TIP3   OH230169   4.064   1.094   5.871 -0.0683  0.7760  0.0259
 2893TIP3    H130170   4.073   1.189   5.866 -1.6775  0.9895  0.5641
 2893TIP3    H230171   4.080   1.072   5.963 -2.4630  0.9297  0.5560
 2894TIP3   OH230172   1.516   0.174  12.722 -0.0274 -0.6526 -0.3101
 2894TIP3    H130173   1.452   0.109  12.693 -0.3170 -0.1821 -0.7317
 2894TIP3    H230174   1.601   0.131  12.710 -0.2100 -0.9037 -0.7171
 2895TIP3   OH230175   3.229   0.323   0.757  0.4010 -0.7523 -0.6908
 2895TIP3    H130176   3.240   0.303   0.664 -0.8766 -1.7149 -0.6646
 2895TIP3    H230177   3.253   0.241   0.802 -1.8007 -1.3102 -0.3817
 2896TIP3   OH230178   2.569   4.994  13.734  0.1120  0.1882 -0.1336
 2896TIP3    H130179   2.616   4.911  13.729 -0.5349 -0.1649 -0.5153
 2896TIP3    H230180   2.637   5.060  13.720  0.9083 -0.1739  1.6728
 2897TIP3   OH230181   5.613   4.869   5.410  0.0421 -0.1105  0.4976
 2897TIP3    H130182   5.535   4.900   5.365  0.6551  0.8996  0.0995
 2897TIP3    H230183   5.580   4.832   5.492 -0.6939  2.4464  1.4577
 2898TIP3   OH230184   0.911   5.091   4.515 -0.1266 -0.0727  0.0729
 2898TIP3    H130185   0.837   5.086   4.454  0.3542 -0.0291 -0.5203
 2898TIP3    H230186   0.987   5.109   4.459  0.3013  0.0897  0.6991
 2899TIP3   OH230187   2.443   6.676  15.659 -0.4358 -0.1245  0.0915
 2899TIP3    H130188   2.428   6.593  15.616 -1.4729 -0.3754  0.8922
 2899TIP3    H230189   2.473   6.735  15.590 -0.1035 -1.0507 -0.5566
 2900TIP3   OH230190   6.714   4.417   6.079  0.0106  0.0852  0.3044
 2900TIP3    H130191   6.669   4.368   6.148  2.6792 -0.3069  1.9079
 2900TIP3    H230192   6.644   4.462   6.032 -2.1612 -1.8474  1.4866
 2901TIP3   OH230193   5.234   0.385   5.185 -0.3738  0.2062  0.1717
 2901TIP3    H130194   5.304   0.409   5.123  0.7939  0.1049  1.4042
 2901TIP3    H230195   5.157   0.433   5.153  0.0299 -0.2908 -1.6758
 2902TIP3   OH230196   0.817   5.119  16.880  0.1463  0.4748  0.2185
 2902TIP3    H130197   0.730   5.138  16.915 -0.1452 -3.3703  2.0813
 2902TIP3    H230198   0.876   5.131  16.954  0.8086  0.4980 -0.3074
 2903TIP3   OH230199   1.430   2.934  14.196  0.3229 -0.2561  0.7117
 2903TIP3    H130200   1.489   3.009  14.186 -0.1473  0.0248 -0.0974
 2903TIP3    H230201   1.472   2.864  14.146  0.0886 -0.1139  0.3035
 2904TIP3   OH230202   0.862   5.977  16.982  0.1396 -0.1093 -0.4367
 2904TIP3    H130203   0.841   5.996  17.074  1.0216  0.9936 -0.4508
 2904TIP3    H230204   0.885   6.061  16.944 -2.8577 -0.0453 -2.4436
 2905TIP3   OH230205   4.049   1.889   5.726  0.5588  0.1840  0.1379
 2905TIP3    H130206   3.960   1.872   5.696  0.9164  0.1046 -0.9163
 2905TIP3    H230207   4.065   1.981   5.705  0.7981  0.1428  0.1275
 2906TIP3   OH230208   2.864   4.704  16.159  0.3735  0.2796 -0.2728
 2906TIP3    H130209   2.844   4.770  16.093 -1.4435 -0.7669 -0.8459
 2906TIP3    H230210   2.799   4.718  16.228 -1.7392 -2.3080 -1.5087
 2907TIP3   OH230211   4.202   4.074   5.318 -0.3762  0.1733  0.0189
 2907TIP3    H130212   4.241   3.990   5.295 -1.2466  0.1364 -1.4702
 2907TIP3    H230213   4.276   4.126   5.350  0.6950 -0.3101 -1.5091
 2908TIP3   OH230214   2.914   2.231   5.832  0.1149 -0.2947 -0.1601
 2908TIP3    H130215   2.963   2.180   5.768  0.8055 -0.5945  0.5778
 2908TIP3    H230216   2.920   2.180   5.913  1.6885  1.3586  0.8756
 2909TIP3   OH230217   5.024   4.116   2.561  0.0533 -0.0492  0.0895
 2909TIP3    H130218   4.959   4.174   2.522 -1.3704 -1.0914  0.7873
 2909TIP3    H230219   5.091   4.105   2.494 -0.9256  0.3803 -0.9894
 2910TIP3   OH230220   1.590   3.640   3.117 -0.0802  0.3190 -0.5730
 2910TIP3    H130221   1.550   3.650   3.204 -0.3179  0.2268 -0.6696
 2910TIP3    H230222   1.547   3.562   3.080 -0.6806  0.9067 -1.1537
 2911TIP3   OH230223   0.963   1.979  14.513  0.4916  0.6100  0.3269
 2911TIP3    H130224   1.021   1.975  14.437 -0.7360  1.9953 -0.7305
 2911TIP3    H230225   0.988   2.060  14.558 -0.0426  0.7766  0.3288
 2912TIP3   OH230226   5.393   0.880   3.431  0.3080  0.0582  0.3751
 2912TIP3    H130227   5.414   0.969   3.461  0.2797 -0.0226  0.6325
 2912TIP3    H230228   5.460   0.861   3.365  0.5895  0.0953  0.6468
 2913TIP3   OH230229   6.038   5.138  13.786  0.4699 -0.0649 -0.1126
 2913TIP3    H130230   5.984   5.193  13.842  1.4898  1.7308 -0.8093
 2913TIP3    H230231   6.001   5.149  13.699  1.5001  0.6376 -0.4798
 2914TIP3   OH230232   1.744   6.172   2.145  0.1387  0.4630  0.7761
 2914TIP3    H130233   1.736   6.096   2.202  0.7916  0.2895  0.6424
 2914TIP3    H230234   1.821   6.218   2.177  0.1497  0.6938  0.4229
 2915TIP3   OH230235   1.201   1.477   3.971  0.6855 -0.6974 -0.0112
 2915TIP3    H130236   1.292   1.504   3.956  0.0546 -0.0424 -3.5933
 2915TIP3    H230237   1.150   1.554   3.946 -0.8945 -1.5234  0.6073
 2916TIP3   OH230238   0.841   0.768   5.690  0.1185  0.2727 -0.4785
 2916TIP3    H130239   0.887   0.693   5.729 -0.0640  0.9076  1.0454
 2916TIP3    H230240   0.909   0.832   5.674  0.1244  0.2050 -0.7207
 2917TIP3   OH230241   2.052   4.067  12.221  0.7167  0.0727  0.6031
 2917TIP3    H130242   2.106   4.038  12.148 -0.0773 -2.7180  1.0279
 2917TIP3    H230243   1.965   4.080  12.183  0.6171 -0.0246  0.7993
 2918TIP3   OH230244   5.697   1.691  12.687  0.8896 -0.1506 -0.2011
 2918TIP3    H130245   5.736   1.732  12.764  1.9528  1.0515 -1.3498
 2918TIP3    H230246   5.687   1.762  12.624 -0.0939 -1.0878 -1.1420
 2919TIP3   OH230247   1.656   5.201   3.306  0.1774 -0.6931 -0.6125
 2919TIP3    H130248   1.686   5.291   3.300  1.0397 -1.0762 -2.9509
 2919TIP3    H230249   1.590   5.192   3.238 -0.9184 -1.5036  0.4955
 2920TIP3   OH230250   6.606   4.452   3.535  0.1930 -0.6278 -0.0605
 2920TIP3    H130251   6.530   4.474   3.589 -0.7646 -1.3527 -1.0645
 2920TIP3    H230252   6.579   4.474   3.446  0.4259 -2.6519 -0.6737
 2921TIP3   OH230253   3.250   3.733   2.259 -0.1500 -0.7089 -0.8933
 2921TIP3    H130254   3.251   3.658   2.318  0.3642 -1.2200 -1.5448
 2921TIP3    H230255   3.157   3.754   2.249 -0.2428 -0.6335  0.0649
 2922TIP3   OH230256   4.524   3.662   4.713 -0.2187 -0.4561 -0.3690
 2922TIP3    H130257   4.506   3.575   4.677  0.0233  0.3180 -2.5343
 2922TIP3    H230258   4.519   3.720   4.637 -0.3652  1.4313  1.0293
 2923TIP3   OH230259   0.001   0.771   2.598  0.1184  0.3474 -0.4223
 2923TIP3    H130260  -0.040   0.688   2.575  0.0530  0.4849 -0.7983
 2923TIP3    H230261   0.027   0.810   2.515 -3.2505  2.4834 -0.6746
 2924TIP3   OH230262   1.524   3.006  10.638 -0.0184  0.5507  0.2898
 2924TIP3    H130263   1.596   2.947  10.617 -0.7026 -1.2010  2.5096
 2924TIP3    H230264   1.484   3.027  10.553  1.4350 -0.6070 -0.7165
 2925TIP3   OH230265   3.092   2.793  12.073 -0.2335  0.6198 -0.4929
 2925TIP3    H130266   3.126   2.868  12.121  1.0049 -1.4375  2.0979
 2925TIP3    H230267   3.129   2.802  11.985  2.3563  1.5349  0.5875
 2926TIP3   OH230268   5.223   1.767  12.540 -0.4589 -0.0931 -0.0421
 2926TIP3    H130269   5.250   1.728  12.623 -0.0653  0.0643 -0.0959
 2926TIP3    H230270   5.267   1.714  12.473  0.7532  0.9355 -0.0937
 2927TIP3   OH230271   5.042   0.277  16.266  0.2726 -0.2405 -0.4187
 2927TIP3    H130272   5.086   0.353  16.303  0.1047  0.2405 -1.1828
 2927TIP3    H230273   5.082   0.266  16.180  2.5662 -2.9583  0.8166
 2928TIP3   OH230274   0.564   0.231   2.489  0.0565  0.5945 -0.4755
 2928TIP3    H130275   0.541   0.293   2.558  0.2183  0.4433 -0.2851
 2928TIP3    H230276   0.479   0.205   2.451 -0.1242 -0.2101  0.4431
 2929TIP3   OH230277   5.530   5.149  14.348  0.4209  0.1734 -0.6420
 2929TIP3    H130278   5.594   5.178  14.414  0.0795 -0.2438 -0.1135
 2929TIP3    H230279   5.583   5.113  14.277  0.7780 -0.5477 -0.0277
 2930TIP3   OH230280   1.057   6.669  11.324  1.1674  0.0252  0.1619
 2930TIP3    H130281   1.131   6.671  11.263  0.0519  1.2983 -1.2042
 2930TIP3    H230282   0.982   6.698  11.272  0.1209  0.9245  2.0772
 2931TIP3   OH230283   3.485   1.342  15.822 -0.0774 -0.5999  0.2736
 2931TIP3    H130284   3.532   1.315  15.743 -0.4112  0.1239 -0.1841
 2931TIP3    H230285   3.543   1.317  15.894  0.2349 -1.2612 -0.1982
 2932TIP3   OH230286   6.312   5.754   5.701 -0.0424 -0.0690  0.2243
 2932TIP3    H130287   6.279   5.717   5.783 -1.1322 -2.3693 -1.1517
 2932TIP3    H230288   6.234   5.767   5.647  0.8855 -2.3117 -1.8372
 2933TIP3   OH230289   2.953   5.663  12.354 -0.0438  0.3679  0.4158
 2933TIP3    H130290   3.021   5.729  12.369  1.0537 -0.7680  0.6303
 2933TIP3    H230291   2.939   5.623  12.440  1.1141 -1.3230 -0.1098
 2934TIP3   OH230292   6.130   6.817  12.018 -0.1971  0.0126  0.2865
 2934TIP3    H130293   6.042   6.824  11.980 -0.5619  1.2809  1.2616
 2934TIP3    H230294   6.138   6.726  12.044 -1.2470 -0.1172  0.2054
 2935TIP3   OH230295   6.115   1.069  13.958 -0.1006 -0.3175  0.0666
 2935TIP3    H130296   6.199   1.057  14.003 -0.0474  0.8329  0.2919
 2935TIP3    H230297   6.052   1.022  14.011  0.0107  0.7661  1.1969
 2936TIP3   OH230298   5.204   4.283   1.950 -0.4874 -0.0516  0.5632
 2936TIP3    H130299   5.213   4.189   1.935 -1.0076 -0.1483  0.8242
 2936TIP3    H230300   5.119   4.305   1.914 -0.8182  0.1171  1.4335
 2937TIP3   OH230301   2.392   0.593  15.283 -0.5703 -0.3072  0.0226
 2937TIP3    H130302   2.476   0.638  15.283 -0.5185 -0.4002  0.6196
 2937TIP3    H230303   2.413   0.500  15.284 -0.6775 -0.3615 -1.4056
 2938TIP3   OH230304   4.989   4.664  10.451 -0.3053  0.2277 -0.1385
 2938TIP3    H130305   4.924   4.612  10.498  0.8117 -0.5293  0.6164
 2938TIP3    H230306   4.938   4.729  10.404 -1.5474  0.2924  1.2275
 2939TIP3   OH230307   0.927   6.158   3.466 -0.1004  0.2756 -0.3513
 2939TIP3    H130308   0.960   6.239   3.425 -0.0414  0.1150 -0.6276
 2939TIP3    H230309   0.834   6.157   3.445 -0.6230  1.4586  1.6468
 2940TIP3   OH230310   1.191   4.093  15.985 -0.5145  0.2033  0.2260
 2940TIP3    H130311   1.194   4.063  15.895  0.5384  0.7300  0.0754
 2940TIP3    H230312   1.156   4.018  16.034  3.4985 -2.0384  0.1300
 2941TIP3   OH230313   5.533   2.131  11.023  0.0219 -0.0525 -0.3821
 2941TIP3    H130314   5.543   2.043  10.988 -1.9255  0.0876 -1.4223
 2941TIP3    H230315   5.619   2.152  11.060 -0.0449 -3.2187  2.0089
 2942TIP3   OH230316   6.002   3.723  11.852 -0.0155 -0.2873 -0.0911
 2942TIP3    H130317   5.981   3.752  11.941  0.5031 -0.6834  0.1616
 2942TIP3    H230318   6.063   3.789  11.820 -0.4499  0.0296 -0.2712
 2943TIP3   OH230319   4.535   5.359   0.809  0.2556 -0.4103 -0.4301
 2943TIP3    H130320   4.487   5.411   0.745 -1.5093  0.3982  1.4443
 2943TIP3    H230321   4.476   5.287   0.832  0.1700  0.1953  1.3953
 2944TIP3   OH230322   6.641   2.593  10.550  0.4588 -0.0418 -0.3646
 2944TIP3    H130323   6.574   2.654  10.519  1.1409  0.2009 -1.4349
 2944TIP3    H230324   6.639   2.522  10.485 -0.7433 -1.5044  1.1815
 2945TIP3   OH230325   0.125   4.166  14.929 -0.8035  0.4394  0.4508
 2945TIP3    H130326   0.133   4.239  14.868  1.7619 -0.6162 -0.6267
 2945TIP3    H230327   0.107   4.206  15.013 -0.7277  2.2010 -0.3355
 2946TIP3   OH230328   1.789   1.624   0.350  0.3249 -0.8205 -0.5258
 2946TIP3    H130329   1.735   1.546   0.336  1.5524 -1.8031 -0.0665
 2946TIP3    H230330   1.730   1.698   0.336 -1.3447 -1.8321  0.8319
 2947TIP3   OH230331   6.605   0.203  13.508 -0.0838  0.0183 -0.0577
 2947TIP3    H130332   6.662   0.217  13.584 -0.2969 -0.1321  0.1329
 2947TIP3    H230333   6.529   0.258  13.526  0.3166  0.8029 -0.6655
 2948TIP3   OH230334   3.704   3.411   0.397  0.5862 -0.2523  0.5985
 2948TIP3    H130335   3.757   3.373   0.466  0.8077  0.6459  0.9418
 2948TIP3    H230336   3.640   3.466   0.444  1.7547  1.6464  0.0577
 2949TIP3   OH230337   0.939   0.530   1.693 -0.0486 -0.4398 -0.6368
 2949TIP3    H130338   0.920   0.564   1.781  1.0294  0.1774 -0.6373
 2949TIP3    H230339   0.870   0.465   1.678  0.5416 -1.5553  1.2184
 2950TIP3   OH230340   2.811   1.673  14.087 -0.1468 -0.8636  0.3532
 2950TIP3    H130341   2.781   1.719  14.165  1.3963 -0.0908  0.5300
 2950TIP3    H230342   2.747   1.697  14.019 -0.5521 -0.1729  0.9604
 2951TIP3   OH230343   0.998   4.852  11.825 -0.0865  0.3772  0.3419
 2951TIP3    H130344   0.929   4.874  11.762  0.8668 -2.2993 -1.8202
 2951TIP3    H230345   1.011   4.758  11.814  2.4595  0.4216  2.2056
 2952TIP3   OH230346   3.780   6.184   1.490  0.2773  0.8134 -0.2583
 2952TIP3    H130347   3.863   6.137   1.481  0.0969  0.8391 -2.7265
 2952TIP3    H230348   3.722   6.143   1.426 -1.8956  0.3529  1.8530
 2953TIP3   OH230349   5.491   6.331   1.114  0.0637  0.1635 -0.0341
 2953TIP3    H130350   5.435   6.351   1.039 -0.7222  0.8072  0.6980
 2953TIP3    H230351   5.570   6.292   1.076 -1.1894 -1.5460 -1.0586
 2954TIP3   OH230352   5.005   3.324  12.031 -0.2292 -0.0699  0.1864
 2954TIP3    H130353   4.954   3.391  12.077  0.0630 -0.8981  1.7873
 2954TIP3    H230354   4.944   3.250  12.022 -0.4516  0.2654 -1.2850
 2955TIP3   OH230355   4.549   3.935  12.510  0.4302  0.1622  0.4573
 2955TIP3    H130356   4.464   3.920  12.468  0.8574 -0.6117 -0.1486
 2955TIP3    H230357   4.542   3.890  12.594  0.5661 -0.7337  0.0035
 2956TIP3   OH230358   1.279   3.219   2.600 -0.2718  0.1508  0.6804
 2956TIP3    H130359   1.348   3.188   2.541 -0.0038  0.7709  0.6608
 2956TIP3    H230360   1.206   3.158   2.586  0.7258 -1.3229  1.6666
 2957TIP3   OH230361   1.802   4.044   3.763  0.0602 -0.1895 -0.2840
 2957TIP3    H130362   1.875   4.076   3.817 -0.7806 -0.1042  0.8591
 2957TIP3    H230363   1.810   3.949   3.766  0.2090 -0.1780 -0.2917
 2958TIP3   OH230364   1.604   1.295   1.957  0.2188  0.5301 -0.2516
 2958TIP3    H130365   1.667   1.352   1.914  0.6914 -0.0910 -0.3968
 2958TIP3    H230366   1.553   1.353   2.013 -0.3296  1.3458 -1.5447
 2959TIP3   OH230367   1.716   4.664   2.548  0.2657 -0.0684 -0.4198
 2959TIP3    H130368   1.651   4.725   2.581  0.9781 -0.3324  1.6317
 2959TIP3    H230369   1.667   4.585   2.528 -0.0828 -0.3409  1.3193
 2960TIP3   OH230370   1.466   4.568   4.386  0.4571 -0.8302  0.2761
 2960TIP3    H130371   1.418   4.485   4.388 -0.0308 -0.5367  1.5672
 2960TIP3    H230372   1.510   4.567   4.301  0.3485 -2.3426  0.1958
 2961TIP3   OH230373   1.409   1.504   5.180 -0.1481  0.0826 -0.3014
 2961TIP3    H130374   1.369   1.425   5.142  1.6257 -0.8126 -0.3875
 2961TIP3    H230375   1.363   1.577   5.138 -2.6203 -0.8316  0.5919
 2962TIP3   OH230376   3.021   0.602  16.481 -0.0391  0.0638  0.0455
 2962TIP3    H130377   3.017   0.697  16.472  0.1261  0.0862  0.2064
 2962TIP3    H230378   2.948   0.570  16.428  1.1325  0.1578 -1.6922
 2963TIP3   OH230379   3.175   4.463  16.650  0.4580  0.6761  0.3198
 2963TIP3    H130380   3.146   4.554  16.639  0.3110  0.8242  1.6510
 2963TIP3    H230381   3.204   4.459  16.741  1.2960 -0.3943  0.0177
 2964TIP3   OH230382   4.318   5.738   3.853 -0.2325  0.2591  0.0651
 2964TIP3    H130383   4.355   5.685   3.924 -1.5093  0.6308  1.0383
 2964TIP3    H230384   4.368   5.712   3.776 -0.3287 -1.8521  0.6385
 2965TIP3   OH230385   0.849   1.433  15.509 -0.3650  0.0197  0.1294
 2965TIP3    H130386   0.934   1.443  15.553 -0.3105 -2.4328  0.7201
 2965TIP3    H230387   0.871   1.410  15.419 -0.4207  0.3425  0.0325
 2966TIP3   OH230388   3.423   2.814  11.895 -0.8587 -0.9241  0.0315
 2966TIP3    H130389   3.373   2.874  11.840 -0.3817 -0.3188  0.2523
 2966TIP3    H230390   3.458   2.868  11.965  0.4788 -1.2417 -0.3623
 2967TIP3   OH230391   5.275   1.786  13.666 -0.2143  0.0269 -0.2991
 2967TIP3    H130392   5.276   1.691  13.677  0.6068 -0.0230 -0.7964
 2967TIP3    H230393   5.265   1.819  13.756 -0.6484 -0.5265 -0.1359
 2968TIP3   OH230394   3.309   1.036  13.703 -0.2961 -0.0344  0.5304
 2968TIP3    H130395   3.374   0.967  13.689 -0.1546  0.2625 -0.3109
 2968TIP3    H230396   3.269   1.014  13.787  1.0007 -0.1374  1.1486
 2969TIP3   OH230397   3.271   4.587  12.789  0.1668  0.1965 -0.0897
 2969TIP3    H130398   3.202   4.606  12.725 -0.7282  2.4360  1.4025
 2969TIP3    H230399   3.245   4.503  12.827 -1.5594  0.7778  0.1392
 2970TIP3   OH230400   3.059   6.077   6.220 -0.2533  0.0102 -0.0024
 2970TIP3    H130401   3.033   6.149   6.162 -0.8586 -0.6696 -0.5810
 2970TIP3    H230402   2.985   6.017   6.219  0.4571 -0.8847  0.0634
 2971TIP3   OH230403   6.221   3.468   1.684  0.2380  0.4070 -0.4225
 2971TIP3    H130404   6.165   3.478   1.607  1.8533 -0.6295 -1.7941
 2971TIP3    H230405   6.307   3.446   1.649  0.5638 -2.2909  1.6898
 2972TIP3   OH230406   1.060   3.936   0.262 -0.3819  0.6613 -0.1155
 2972TIP3    H130407   1.142   3.892   0.281 -0.2476 -0.0956 -2.2098
 2972TIP3    H230408   1.077   4.028   0.281  0.5478  0.3457  0.6443
 2973TIP3   OH230409   3.524   1.787   4.641  0.7893 -0.1728 -0.5414
 2973TIP3    H130410   3.550   1.699   4.666 -0.0835 -0.4420 -0.5651
 2973TIP3    H230411   3.494   1.827   4.723 -0.6800 -0.5666 -0.8593
 2974TIP3   OH230412   5.964   0.100   6.135  0.4293 -0.0734 -0.8986
 2974TIP3    H130413   5.993   0.191   6.132  0.0277  0.0393 -1.8639
 2974TIP3    H230414   5.888   0.097   6.077 -0.2103 -0.8041 -0.0396
 2975TIP3   OH230415   0.869   2.041  12.741 -0.1313  0.4706  0.2063
 2975TIP3    H130416   0.822   1.970  12.698 -0.0904  0.4566  0.1846
 2975TIP3    H230417   0.818   2.058  12.821 -1.4648  2.0054 -0.9198
 2976TIP3   OH230418   2.206   4.413  17.079 -0.1733  0.7601  0.4336
 2976TIP3    H130419   2.159   4.335  17.049 -1.1777  0.9164  1.5596
 2976TIP3    H230420   2.276   4.380  17.134 -0.0508  0.6232  0.2002
 2977TIP3   OH230421   1.401   3.107   5.390  0.2871  0.0417 -0.2966
 2977TIP3    H130422   1.385   3.121   5.297 -0.9186  1.9000  0.1247
 2977TIP3    H230423   1.316   3.079   5.425  0.4101  0.5460  0.4269
 2978TIP3   OH230424   5.758   4.521  11.565 -0.5004  0.4181  0.4265
 2978TIP3    H130425   5.813   4.532  11.643 -0.9222 -0.1343  0.8114
 2978TIP3    H230426   5.727   4.609  11.544  0.7456  0.7869  0.0381
 2979TIP3   OH230427   0.381   1.008  13.152  0.3521 -0.3871  0.0601
 2979TIP3    H130428   0.429   0.938  13.107 -0.5535 -0.5274 -0.7228
 2979TIP3    H230429   0.425   1.088  13.125  0.0246 -0.4965 -0.8248
 2980TIP3   OH230430   1.297   1.836  14.638 -0.5795  0.3786  0.3516
 2980TIP3    H130431   1.294   1.814  14.545  0.6619 -1.1194  0.6300
 2980TIP3    H230432   1.312   1.930  14.640  0.0360  0.3296 -0.9812
 2981TIP3   OH230433   2.568   6.505  14.672  0.0647  0.0604 -0.3262
 2981TIP3    H130434   2.566   6.572  14.604  0.5936  0.1959 -0.2136
 2981TIP3    H230435   2.629   6.539  14.738 -0.0875 -0.2795 -0.0043
 2982TIP3   OH230436   1.823   3.769  11.228  0.2783  0.6482  0.0945
 2982TIP3    H130437   1.823   3.716  11.149 -1.1745  0.2641  0.3187
 2982TIP3    H230438   1.748   3.736  11.279  0.6442  1.4799  1.2110
 2983TIP3   OH230439   1.412   2.107  16.809  0.1729 -0.5915  0.7125
 2983TIP3    H130440   1.368   2.095  16.725  0.8401  2.2319 -0.1467
 2983TIP3    H230441   1.496   2.063  16.798  0.8350  0.8819 -0.7030
 2984TIP3   OH230442   1.144   1.533   3.535  0.2914  0.1482  0.1002
 2984TIP3    H130443   1.064   1.495   3.498  0.4033  1.4116 -1.5484
 2984TIP3    H230444   1.165   1.476   3.609 -0.3346 -2.1483 -1.3740
 2985TIP3   OH230445   6.163   2.448   2.640  0.9169  0.5935 -0.2863
 2985TIP3    H130446   6.123   2.462   2.554  1.7957 -0.0328 -0.8173
 2985TIP3    H230447   6.237   2.508   2.642 -0.3333  2.1945  0.9356
 2986TIP3   OH230448   3.774   2.816  13.931 -0.1218  0.7539  0.0785
 2986TIP3    H130449   3.682   2.843  13.937 -0.2389  0.1152  1.9212
 2986TIP3    H230450   3.796   2.827  13.839 -1.3125  3.2827  0.0004
 2987TIP3   OH230451   1.124   6.191   0.394  0.4199 -0.0169  0.2688
 2987TIP3    H130452   1.155   6.253   0.461 -0.7057 -1.4815  2.2394
 2987TIP3    H230453   1.162   6.224   0.312  1.8536  1.8631  1.5937
 2988TIP3   OH230454   4.448   1.768   0.429  0.2130 -0.1440 -0.0960
 2988TIP3    H130455   4.501   1.804   0.358  0.1327  1.2477  0.5270
 2988TIP3    H230456   4.362   1.809   0.418  0.5505  1.0700  1.5198
 2989TIP3   OH230457   2.896   3.658   4.313 -0.1726  0.1489 -0.3146
 2989TIP3    H130458   2.898   3.743   4.270 -2.2758  0.4169  0.0363
 2989TIP3    H230459   2.830   3.608   4.265  2.2977 -2.0075 -1.7058
 2990TIP3   OH230460   2.589   5.537  13.041 -0.0058  0.0210 -0.0326
 2990TIP3    H130461   2.548   5.549  13.127 -0.0047  0.7615 -0.1285
 2990TIP3    H230462   2.683   5.539  13.060  0.0073 -1.8669  0.2122
 2991TIP3   OH230463   2.409   0.742   0.744  0.5392 -0.3169 -0.2647
 2991TIP3    H130464   2.463   0.671   0.780 -0.3109 -1.0864 -0.4768
 2991TIP3    H230465   2.413   0.730   0.650  1.4869  0.7515 -0.3776
 2992TIP3   OH230466   1.822   4.936   5.695  0.5668 -0.3521  0.5519
 2992TIP3    H130467   1.811   4.910   5.787 -0.0699  0.0042  0.5759
 2992TIP3    H230468   1.917   4.948   5.686  0.5735  0.3104  1.3547
 2993TIP3   OH230469   6.419   0.686  14.276  0.5430 -0.2378 -0.2716
 2993TIP3    H130470   6.341   0.633  14.288  0.8982 -0.7627 -0.2147
 2993TIP3    H230471   6.492   0.625  14.291  0.9682  0.0623 -1.0197
 2994TIP3   OH230472   3.850   6.346  14.284 -1.1093 -0.0121 -0.1615
 2994TIP3    H130473   3.936   6.334  14.243 -1.3726 -0.1007 -0.6871
 2994TIP3    H230474   3.860   6.426  14.336 -1.5085  1.5556 -2.3760
 2995TIP3   OH230475   3.241   4.376  13.126  0.0573 -0.0473  0.0550
 2995TIP3    H130476   3.253   4.391  13.032 -0.7506 -0.2913 -0.0940
 2995TIP3    H230477   3.166   4.317  13.132 -1.9500  2.3874  0.9547
 2996TIP3   OH230478   6.752   6.138   3.306  0.0965  0.2092 -0.2097
 2996TIP3    H130479   6.715   6.087   3.234 -0.7282  0.1388  0.2602
 2996TIP3    H230480   6.841   6.160   3.276 -0.1748  0.0410 -1.1734
 2997TIP3   OH230481   0.839   2.551  17.055 -0.2486  0.1569 -0.0369
 2997TIP3    H130482   0.752   2.563  17.093 -0.4572  2.6790 -1.1445
 2997TIP3    H230483   0.826   2.491  16.982 -1.3229  1.3960 -0.9049
 2998TIP3   OH230484   5.209   5.191   4.653 -0.5498 -0.0837 -0.1464
 2998TIP3    H130485   5.144   5.126   4.679 -1.8137  0.9332 -0.6399
 2998TIP3    H230486   5.261   5.149   4.585 -0.5040 -1.0010  0.4405
 2999TIP3   OH230487   5.563   0.890   4.637  0.4953  1.0025  0.3470
 2999TIP3    H130488   5.543   0.983   4.642  1.1597  1.0859  3.9068
 2999TIP3    H230489   5.652   0.882   4.671  1.2016 -0.7937 -1.6961
 3000TIP3   OH230490   2.601   1.927   0.249  0.0499 -0.1246  0.6266
 3000TIP3    H130491   2.679   1.874   0.261  0.7539  0.6136 -0.5381
 3000TIP3    H230492   2.585   1.926   0.155 -0.2607  1.2246  0.6420
 3001TIP3   OH230493   2.541   4.969   2.727 -0.3446  0.0864 -0.0508
 3001TIP3    H130494   2.473   4.988   2.791 -1.7748 -2.0417 -0.8155
 3001TIP3    H230495   2.536   5.041   2.664 -2.6334 -0.5032 -0.6279
 3002TIP3   OH230496   4.899   5.757  15.124 -0.0106 -0.4791  0.0954
 3002TIP3    H130497   4.910   5.755  15.029  0.6984 -0.8874  0.1821
 3002TIP3    H230498   4.811   5.723  15.139  0.6319 -2.4167 -0.2975
 3003TIP3   OH230499   5.301   4.625   0.162  0.3537 -0.3909 -0.2697
 3003TIP3    H130500   5.273   4.678   0.237 -0.9828 -4.1105  2.1602
 3003TIP3    H230501   5.222   4.614   0.109  0.0868 -1.4569  0.3154
 3004TIP3   OH230502   6.469   3.994  12.257  0.3757 -0.2303 -0.8670
 3004TIP3    H130503   6.539   3.969  12.316 -1.8052  0.4613  2.2517
 3004TIP3    H230504   6.490   4.084  12.231 -0.4232  0.8723  1.9784
 3005TIP3   OH230505   2.140   2.028   5.161 -0.9493  0.5365  0.2375
 3005TIP3    H130506   2.226   1.991   5.179 -0.7545  0.6753 -0.3665
 3005TIP3    H230507   2.154   2.086   5.086 -1.2931  1.6461  0.9951
 3006TIP3   OH230508   1.713   4.248  15.540 -0.4118  0.3525 -0.3258
 3006TIP3    H130509   1.642   4.213  15.486  0.2304 -0.3788 -0.7201
 3006TIP3    H230510   1.790   4.243  15.484  0.0947  0.4043  0.3602
 3007TIP3   OH230511   5.966   4.554   3.953  0.8509  0.3341 -0.0747
 3007TIP3    H130512   6.058   4.540   3.977 -0.0295 -0.7993  3.1947
 3007TIP3    H230513   5.947   4.642   3.985  0.5217  0.1445  0.2474
 3008TIP3   OH230514   1.576   1.465  15.087  0.0681 -0.0714  0.1918
 3008TIP3    H130515   1.620   1.381  15.070  0.7310  0.5641 -1.5823
 3008TIP3    H230516   1.579   1.476  15.182  0.6948 -1.6682  0.3855
 3009TIP3   OH230517   2.001   4.924   0.327  0.2520 -0.2402  0.2035
 3009TIP3    H130518   2.084   4.884   0.353  0.6496  0.3342 -0.1616
 3009TIP3    H230519   1.982   4.887   0.241  1.1644  1.1141 -0.6206
 3010TIP3   OH230520   4.784   0.465  11.160  0.4563 -0.3533  0.2281
 3010TIP3    H130521   4.815   0.407  11.089 -0.7018 -1.1122  0.3192
 3010TIP3    H230522   4.706   0.508  11.124  2.8937  3.5873 -0.9992
 3011TIP3   OH230523   6.112   6.136  16.515  0.3826 -0.4088 -0.0072
 3011TIP3    H130524   6.063   6.055  16.525  1.6220 -0.9771  2.1192
 3011TIP3    H230525   6.126   6.144  16.421 -1.2794 -1.7161 -0.4033
 3012TIP3   OH230526   0.769   1.949  13.151  0.4058  0.2739 -0.4748
 3012TIP3    H130527   0.840   1.982  13.205 -0.6676 -0.4267  1.4370
 3012TIP3    H230528   0.803   1.867  13.113  0.8398  0.2870 -0.1152
 3013TIP3   OH230529   5.857   2.248  17.169  0.7542 -0.1685 -0.0252
 3013TIP3    H130530   5.772   2.284  17.193  0.3534 -0.5852 -0.8006
 3013TIP3    H230531   5.886   2.300  17.095  1.4527  0.3454  0.5869
 3014TIP3   OH230532   4.200   0.560  13.379 -0.0598  0.2799  0.2139
 3014TIP3    H130533   4.259   0.583  13.307  0.4548  0.0451  0.5538
 3014TIP3    H230534   4.255   0.563  13.457 -0.7930  1.3250  0.7157
 3015TIP3   OH230535   1.708   2.946  13.950  0.5708 -0.1269  0.2494
 3015TIP3    H130536   1.625   2.899  13.943  0.3204 -0.0522  2.1905
 3015TIP3    H230537   1.693   3.028  13.904 -0.6785  0.1939  1.2034
 3016TIP3   OH230538   5.347   0.132   2.776  0.6645  0.1176  0.3158
 3016TIP3    H130539   5.400   0.090   2.708  0.0309  2.4171 -1.7495
 3016TIP3    H230540   5.407   0.194   2.817 -0.0726  2.1625 -1.4995
 3017TIP3   OH230541   2.054   5.637   1.909 -0.0524  0.0895 -0.5242
 3017TIP3    H130542   2.036   5.708   1.847  1.3676  1.2041  0.2890
 3017TIP3    H230543   2.121   5.672   1.968 -0.8105 -1.2000  1.2025
 3018TIP3   OH230544   2.665   4.098  11.921 -0.2045 -0.1649  0.3550
 3018TIP3    H130545   2.596   4.052  11.970  0.1696  1.4954  2.5638
 3018TIP3    H230546   2.624   4.180  11.894  0.9736  1.0686  2.1225
 3019TIP3   OH230547   6.420   6.078   3.973 -0.3896 -0.3376  0.3980
 3019TIP3    H130548   6.344   6.125   4.007  0.5545  0.7736  1.0431
 3019TIP3    H230549   6.398   5.985   3.986 -2.1260 -0.1080 -0.5408
 3020TIP3   OH230550   3.303   1.765   2.430  0.1707  0.9349 -0.2228
 3020TIP3    H130551   3.378   1.705   2.432  0.7702  1.6872  0.5636
 3020TIP3    H230552   3.271   1.765   2.520 -1.9684 -0.8051 -0.8932
 3021TIP3   OH230553   5.622   4.075   2.075 -0.1570 -0.7204 -0.2828
 3021TIP3    H130554   5.567   4.059   1.998 -1.0250 -0.4474  0.2634
 3021TIP3    H230555   5.647   3.988   2.105  1.5132 -0.7986 -1.7819
 3022TIP3   OH230556   0.636   5.529   0.462  0.0054 -0.5070  0.0579
 3022TIP3    H130557   0.561   5.523   0.521  0.6394 -0.2849  0.8954
 3022TIP3    H230558   0.597   5.530   0.374 -1.1323  1.8897  0.5090
 3023TIP3   OH230559   0.478   6.634  15.576  0.2412 -0.4821 -0.3167
 3023TIP3    H130560   0.431   6.566  15.625  0.2359  0.2538  0.7325
 3023TIP3    H230561   0.415   6.705  15.568  0.8182  0.0886  0.1499
 3024TIP3   OH230562   2.612   1.508  16.343 -0.5656 -0.0037  0.1477
 3024TIP3    H130563   2.619   1.486  16.250  0.9262  0.6524  0.0772
 3024TIP3    H230564   2.698   1.542  16.366 -1.6307  2.1591  1.1767
 3025TIP3   OH230565   0.889   3.066   0.876  0.4157  0.2829 -0.2451
 3025TIP3    H130566   0.872   3.080   0.782 -1.8397  1.4747  0.2753
 3025TIP3    H230567   0.897   3.154   0.912  1.2630 -0.1711  0.6992
 3026TIP3   OH230568   4.550   3.381   4.684 -0.4091  0.2050 -0.4276
 3026TIP3    H130569   4.600   3.300   4.694 -1.2426 -0.1599  1.2295
 3026TIP3    H230570   4.494   3.365   4.608 -1.3632 -1.2517  0.5194
 3027TIP3   OH230571   0.911   1.664  15.970  0.0854 -0.4076 -0.5308
 3027TIP3    H130572   0.903   1.591  16.030  0.6146 -1.9635 -2.2544
 3027TIP3    H230573   0.978   1.636  15.907  3.3318  3.1342  0.9550
 3028TIP3   OH230574   1.735   2.496   5.254  0.2773 -0.4997  0.0666
 3028TIP3    H130575   1.727   2.568   5.317  0.5283  0.2596 -0.7307
 3028TIP3    H230576   1.825   2.466   5.263  0.6683  0.3685 -0.6823
 3029TIP3   OH230577   6.185   5.161   2.341 -0.4493 -0.1709 -0.0015
 3029TIP3    H130578   6.212   5.252   2.353 -3.7886  0.9256  0.1657
 3029TIP3    H230579   6.200   5.121   2.427  0.8681  0.2167 -0.0225
 3030TIP3   OH230580   4.979   4.259   3.888 -0.1947 -0.0838  0.0927
 3030TIP3    H130581   4.938   4.275   3.974  0.5083 -0.0081  0.4199
 3030TIP3    H230582   5.052   4.200   3.907  0.4398  0.5458 -0.3350
 3031TIP3   OH230583   0.537   3.566   3.856  0.1250 -0.1318  0.8870
 3031TIP3    H130584   0.592   3.498   3.818  0.1584 -0.7236  1.9647
 3031TIP3    H230585   0.499   3.611   3.781 -0.2885 -1.6507  0.1592
 3032TIP3   OH230586   0.524   5.741   4.613  0.2682  0.2536  0.2148
 3032TIP3    H130587   0.475   5.816   4.580  0.9841  0.1967 -1.0229
 3032TIP3    H230588   0.544   5.689   4.535 -0.8013 -1.6078  1.0904
 3033TIP3   OH230589   6.836   4.817  14.582  0.1442  0.2611 -0.0886
 3033TIP3    H130590   6.882   4.776  14.509  0.8185  0.3411  0.2822
 3033TIP3    H230591   6.799   4.898  14.546  2.7890  1.7495  0.2539
 3034TIP3   OH230592   3.604   0.463  13.119  0.1383  0.3198  0.1208
 3034TIP3    H130593   3.687   0.425  13.148  0.3269 -0.8650 -1.8007
 3034TIP3    H230594   3.615   0.557  13.133  1.8246  0.1851 -0.1106
 3035TIP3   OH230595   4.331   2.795   5.260  0.0735  0.5210 -0.4738
 3035TIP3    H130596   4.295   2.830   5.342  0.5575  0.1015 -0.0711
 3035TIP3    H230597   4.273   2.722   5.238 -0.3514  0.9460 -0.7796
 3036TIP3   OH230598   6.366   5.058   0.188  0.5342  0.1802  0.1667
 3036TIP3    H130599   6.427   5.131   0.183 -0.6940  1.3905  1.8096
 3036TIP3    H230600   6.281   5.098   0.208  0.0933 -1.7281  2.7524
 3037TIP3   OH230601   5.685   4.235  15.725 -0.4963  0.3176  0.0547
 3037TIP3    H130602   5.671   4.309  15.666 -0.2580  0.2118 -0.1400
 3037TIP3    H230603   5.658   4.159  15.673  0.1698  0.1761 -0.0930
 3038TIP3   OH230604   3.345   3.011  11.728  0.0913 -0.7033  0.0365
 3038TIP3    H130605   3.415   2.951  11.703  1.3930  0.3787  0.9269
 3038TIP3    H230606   3.329   3.064  11.649  0.0033 -1.2012 -0.2837
 3039TIP3   OH230607   0.664   4.759  11.866 -0.0484 -0.0421  0.4680
 3039TIP3    H130608   0.687   4.769  11.773  0.8550 -1.4785  0.5075
 3039TIP3    H230609   0.715   4.827  11.911  2.3546 -1.6017  0.2711
 3040TIP3   OH230610   4.336   1.834   1.066 -0.1904 -0.5848  0.0651
 3040TIP3    H130611   4.327   1.761   1.127  0.2699 -0.0794  0.7635
 3040TIP3    H230612   4.376   1.795   0.988 -1.2244 -1.3316 -0.1168
 3041TIP3   OH230613   0.581   2.611  11.774 -0.1239  0.5255  0.7099
 3041TIP3    H130614   0.629   2.639  11.696 -0.3075 -2.6896 -0.6994
 3041TIP3    H230615   0.493   2.645  11.760  0.1779  1.1398  0.2044
 3042TIP3   OH230616   5.503   2.085  12.306  0.3953 -0.1023 -0.0363
 3042TIP3    H130617   5.491   2.002  12.258 -2.7185  0.7462 -1.0243
 3042TIP3    H230618   5.519   2.058  12.396 -0.1999 -1.8261 -0.3907
 3043TIP3   OH230619   4.017   1.880  13.108  0.3040  0.0347 -0.4242
 3043TIP3    H130620   3.933   1.836  13.119  0.1750  0.1278 -1.0454
 3043TIP3    H230621   4.009   1.929  13.027  0.9699  0.0189 -0.5061
 3044TIP3   OH230622   6.198   4.424   3.096 -0.9215 -0.5303  0.7896
 3044TIP3    H130623   6.274   4.386   3.140 -1.0140 -1.8201 -0.1123
 3044TIP3    H230624   6.191   4.512   3.133  2.9254  0.9299 -1.3205
 3045TIP3   OH230625   0.162   5.137   0.904  0.2513  0.2329  0.4425
 3045TIP3    H130626   0.256   5.135   0.917 -0.0954 -0.0403  3.9290
 3045TIP3    H230627   0.143   5.225   0.874  1.4627  1.0686  1.9699
 3046TIP3   OH230628   1.080   4.242  15.565  0.3276  0.2952  0.6987
 3046TIP3    H130629   1.009   4.260  15.627  1.2742 -0.2123  1.9687
 3046TIP3    H230630   1.059   4.296  15.489 -1.4642  0.0918  1.0047
 3047TIP3   OH230631   5.697   5.215   6.118 -0.5101  0.7708 -0.0936
 3047TIP3    H130632   5.781   5.193   6.158  0.2143  1.0017 -1.4458
 3047TIP3    H230633   5.633   5.162   6.166  0.5450 -0.3224  0.1509
 3048TIP3   OH230634   5.441   2.122  14.658 -0.3001  0.3211 -0.2767
 3048TIP3    H130635   5.470   2.204  14.697  0.2889 -0.3137  0.6685
 3048TIP3    H230636   5.349   2.114  14.684  0.0570 -0.0460  0.9487
 3049TIP3   OH230637   6.662   1.440  10.997  0.6297 -0.2277  0.0266
 3049TIP3    H130638   6.695   1.458  10.909  0.3402  1.2928  0.2102
 3049TIP3    H230639   6.695   1.512  11.051  1.8226 -1.7541  1.4574
 3050TIP3   OH230640   0.170   3.919  11.586  0.5418 -0.2545  0.0402
 3050TIP3    H130641   0.175   3.898  11.679  0.1028  1.3190  0.4627
 3050TIP3    H230642   0.078   3.908  11.563  0.4991  0.1348  0.0091
 3051TIP3   OH230643   4.271   2.842   2.120 -0.1161  0.0369 -0.0660
 3051TIP3    H130644   4.354   2.847   2.167  0.2752 -0.2356 -0.7166
 3051TIP3    H230645   4.296   2.832   2.028 -0.8391 -2.3456 -0.0687
 3052TIP3   OH230646   2.083   5.839   6.278 -0.7613  0.3276  0.1910
 3052TIP3    H130647   1.999   5.795   6.292  0.5223 -1.9165  1.4587
 3052TIP3    H230648   2.144   5.793   6.336  1.2988  2.1077 -0.4271
 3053TIP3   OH230649   3.814   5.236  13.759 -0.2971  0.3757 -0.0375
 3053TIP3    H130650   3.749   5.200  13.700  0.4462 -0.3201 -0.4571
 3053TIP3    H230651   3.859   5.160  13.795 -0.3242  0.8144  0.9540
 3054TIP3   OH230652   2.458   5.476  16.722  0.4163 -0.5369  0.3093
 3054TIP3    H130653   2.436   5.393  16.680 -1.1100  0.6188 -1.3103
 3054TIP3    H230654   2.382   5.532  16.708  0.5744  0.5530  3.1000
 3055TIP3   OH230655   2.518   2.890   2.560 -0.3743 -0.1737  0.5646
 3055TIP3    H130656   2.551   2.802   2.542  0.1288 -0.0765  1.0097
 3055TIP3    H230657   2.557   2.945   2.491 -1.3101 -0.4189 -0.1930
 3056TIP3   OH230658   5.906   0.121   0.059 -0.5870 -0.1773  0.1057
 3056TIP3    H130659   5.964   0.195   0.073  1.6958 -1.7504 -0.4305
 3056TIP3    H230660   5.818   0.156   0.073  0.4130  2.4893  0.2531
 3057TIP3   OH230661   2.357   6.464   6.266 -0.0954 -0.7471  0.1174
 3057TIP3    H130662   2.407   6.386   6.241 -0.4658 -0.8944 -0.1868
 3057TIP3    H230663   2.266   6.441   6.245  0.0454  0.8208 -2.7298
 3058TIP3   OH230664   4.820   3.032   1.749  0.1038  0.3971  0.2327
 3058TIP3    H130665   4.779   3.007   1.667  2.8977 -0.1860 -1.0918
 3058TIP3    H230666   4.788   2.968   1.813  0.6855 -1.4134 -1.2352
 3059TIP3   OH230667   3.525   2.070   4.768 -0.4835 -0.4386 -0.2438
 3059TIP3    H130668   3.474   2.090   4.690  0.8587  2.4640 -0.5023
 3059TIP3    H230669   3.472   2.101   4.841 -1.1282 -1.8867 -0.0570
 3060TIP3   OH230670   5.333   0.287   0.002  0.4717  0.5813 -0.0782
 3060TIP3    H130671   5.294   0.336   0.074  1.2896 -0.7485  1.3277
 3060TIP3    H230672   5.427   0.295   0.014  0.6491  1.0909 -1.5564
 3061TIP3   OH230673   5.207   6.476  14.349  0.1434  0.1215 -0.3647
 3061TIP3    H130674   5.194   6.570  14.365  1.2153  0.2564 -0.2024
 3061TIP3    H230675   5.119   6.439  14.351 -0.1301  0.7677  1.8512
 3062TIP3   OH230676   1.746   4.329  12.390  0.3558  0.8010 -0.1047
 3062TIP3    H130677   1.826   4.352  12.342  0.7164  1.1960  0.6783
 3062TIP3    H230678   1.723   4.409  12.438 -0.7139  0.8036 -0.5919
 3063TIP3   OH230679   2.520   1.768   1.808 -0.2892 -0.7515 -0.6484
 3063TIP3    H130680   2.443   1.813   1.842 -0.9006 -2.5574  0.5080
 3063TIP3    H230681   2.493   1.676   1.800  2.0665 -1.7032  1.0848
 3064TIP3   OH230682   3.020   5.765  10.297 -0.4661 -0.0275  0.2066
 3064TIP3    H130683   3.088   5.743  10.360 -0.7902 -1.4516  0.1036
 3064TIP3    H230684   3.030   5.859  10.281  0.8111 -0.0226  0.9533
 3065TIP3   OH230685   1.429   1.390   2.432 -0.4609  0.5358  0.0394
 3065TIP3    H130686   1.495   1.335   2.391 -0.2434  2.1853 -2.0259
 3065TIP3    H230687   1.453   1.393   2.524  1.4512 -0.1208 -0.4000
 3066TIP3   OH230688   0.704   4.995   6.033  0.1160 -0.5143  0.1900
 3066TIP3    H130689   0.761   5.048   6.088  0.2352  0.3681 -0.7563
 3066TIP3    H230690   0.617   5.033   6.045  0.2675  0.1956 -0.8036
 3067TIP3   OH230691   3.326   2.775  14.268 -0.0281  0.0102  0.1090
 3067TIP3    H130692   3.326   2.813  14.356 -0.3913  0.2857 -0.0057
 3067TIP3    H230693   3.256   2.822  14.222  1.1502  0.9377 -0.7888
 3068TIP3   OH230694   1.601   1.541   4.595 -0.0149  0.1078  0.4092
 3068TIP3    H130695   1.575   1.462   4.642  0.3795 -0.4481 -0.3033
 3068TIP3    H230696   1.518   1.581   4.569 -0.2122 -0.1936  0.5627
 3069TIP3   OH230697   0.382   2.169  16.735  0.4353 -0.3496 -0.3967
 3069TIP3    H130698   0.384   2.185  16.829  2.7751 -0.8677 -0.3030
 3069TIP3    H230699   0.327   2.091  16.725  0.8168 -0.7616  0.6332
 3070TIP3   OH230700   0.750   0.845   1.574 -0.1475  0.2742 -0.3674
 3070TIP3    H130701   0.801   0.780   1.526 -0.3068  0.0742 -0.2653
 3070TIP3    H230702   0.671   0.857   1.521 -0.1451  0.3393 -0.3561
 3071TIP3   OH230703   0.879   2.655   6.314 -0.0541  0.3922 -0.5775
 3071TIP3    H130704   0.791   2.650   6.350 -0.5177 -0.3313 -1.7308
 3071TIP3    H230705   0.913   2.739   6.343 -0.8230  0.3382  0.5327
 3072TIP3   OH230706   3.694   5.979   2.829 -0.5308  0.2073 -0.1977
 3072TIP3    H130707   3.710   5.915   2.760  2.7801 -0.6664  1.2164
 3072TIP3    H230708   3.758   6.048   2.813 -1.0923  1.0047  0.8618
 3073TIP3   OH230709   4.260   3.560  11.302 -0.4368 -0.3474  0.0400
 3073TIP3    H130710   4.339   3.613  11.316  0.6695 -1.5027 -1.5357
 3073TIP3    H230711   4.189   3.624  11.300  0.4336  0.7309  1.4210
 3074TIP3   OH230712   1.174   2.143   5.522 -0.0930 -0.1398 -0.2168
 3074TIP3    H130713   1.242   2.184   5.576 -0.8524  0.4078  0.3565
 3074TIP3    H230714   1.200   2.051   5.517  0.0285 -0.1963  1.0542
 3075TIP3   OH230715   2.382   5.406   2.333  0.1972  0.0378 -0.7579
 3075TIP3    H130716   2.347   5.465   2.400  0.6516 -1.0072  0.4380
 3075TIP3    H230717   2.453   5.455   2.292  1.0778  0.0625  0.7446
 3076TIP3   OH230718   1.783   6.573   4.381 -0.1633 -0.0815  0.1597
 3076TIP3    H130719   1.748   6.555   4.293  1.5495 -2.4318 -0.1156
 3076TIP3    H230720   1.796   6.668   4.382  3.8653 -0.2916 -3.8474
 3077TIP3   OH230721   1.260   1.059   3.656  0.0399 -0.5152  0.4813
 3077TIP3    H130722   1.258   0.980   3.603 -0.0412 -0.0242 -0.2585
 3077TIP3    H230723   1.288   1.128   3.596  1.2652 -0.1908  1.4057
 3078TIP3   OH230724   5.015   3.402   2.663 -0.1316  0.4645 -0.1608
 3078TIP3    H130725   4.982   3.462   2.596 -2.2305  0.7844  1.0604
 3078TIP3    H230726   4.999   3.448   2.746 -2.3467 -1.9206  0.8776
 3079TIP3   OH230727   5.589   2.152  13.725  0.1317 -0.0838 -0.0309
 3079TIP3    H130728   5.502   2.172  13.691 -0.5249 -3.0112 -0.2716
 3079TIP3    H230729   5.630   2.098  13.658  0.8473 -1.5363  1.4968
 3080TIP3   OH230730   1.266   2.747  11.223  0.4435 -0.2353  0.0046
 3080TIP3    H130731   1.199   2.749  11.290 -0.1813  1.6175 -0.6160
 3080TIP3    H230732   1.348   2.737  11.271 -0.0717 -0.0931  0.9361
 3081TIP3   OH230733   1.455   0.448   4.074  0.0663 -0.1340  0.2011
 3081TIP3    H130734   1.521   0.446   4.005  0.6950  1.0787  0.7252
 3081TIP3    H230735   1.425   0.358   4.083  1.7816 -0.7404  0.0612
 3082TIP3   OH230736   3.439   0.378   4.939  0.2595 -0.9897 -0.5718
 3082TIP3    H130737   3.505   0.424   4.990 -0.0375 -0.6473 -0.4884
 3082TIP3    H230738   3.404   0.446   4.880  0.7055 -1.4074 -1.3394
 3083TIP3   OH230739   5.234   4.926   4.887  0.0356 -0.2225  0.3717
 3083TIP3    H130740   5.165   4.930   4.821  0.4677  2.0393 -0.0284
 3083TIP3    H230741   5.252   4.833   4.897 -0.0551 -0.6925 -2.7161
 3084TIP3   OH230742   4.072   1.261   4.337 -0.1249  0.1264 -0.2072
 3084TIP3    H130743   4.160   1.295   4.353 -0.2202 -0.6439  2.5162
 3084TIP3    H230744   4.067   1.249   4.242  1.7531  2.5923 -0.7082
 3085TIP3   OH230745   2.002   4.267   5.652  0.9412  0.0506  0.3700
 3085TIP3    H130746   2.036   4.264   5.563  0.6515  1.6759  0.1710
 3085TIP3    H230747   1.986   4.176   5.675  2.2326 -0.4863 -0.7598
 3086TIP3   OH230748   1.172   1.291  14.627  0.2352  0.0596 -0.5259
 3086TIP3    H130749   1.115   1.368  14.623 -2.7161 -1.9628 -0.3857
 3086TIP3    H230750   1.209   1.284  14.539  1.6261  2.2570 -0.2134
 3087TIP3   OH230751   1.815   1.075   2.561 -0.1487 -0.3824 -0.4481
 3087TIP3    H130752   1.828   1.165   2.591 -1.2712 -0.6466  0.9314
 3087TIP3    H230753   1.727   1.052   2.592 -0.3793 -1.5439 -1.8491
 3088TIP3   OH230754   0.149   0.648  10.847 -0.0959 -0.0457 -0.1661
 3088TIP3    H130755   0.148   0.610  10.759 -0.1522  0.1468 -0.2499
 3088TIP3    H230756   0.197   0.731  10.836  0.4777 -0.3413  0.1151
 3089TIP3   OH230757   0.411   4.846   2.450 -0.2815  0.0090  0.3391
 3089TIP3    H130758   0.334   4.791   2.468 -0.2516  0.2797  1.3360
 3089TIP3    H230759   0.414   4.908   2.523 -0.2947  1.3268 -0.7463
 3090TIP3   OH230760   0.200   2.116  14.387 -0.6425 -0.5823  0.3870
 3090TIP3    H130761   0.285   2.144  14.419 -0.6660  2.0917 -1.5608
 3090TIP3    H230762   0.219   2.070  14.305 -1.0040 -1.5038  0.8025
 3091TIP3   OH230763   3.332   3.882  12.346 -0.1179 -0.1477  0.7520
 3091TIP3    H130764   3.335   3.795  12.386  3.3055 -0.5913 -0.1453
 3091TIP3    H230765   3.324   3.865  12.252 -0.5854  0.5694  0.6524
 3092TIP3   OH230766   3.143   0.940   0.290  0.0983 -0.2203  0.3518
 3092TIP3    H130767   3.181   0.986   0.215 -0.4025  2.1831  1.4677
 3092TIP3    H230768   3.192   0.974   0.366 -1.2715 -0.4474  1.3715
 3093TIP3   OH230769   3.803   6.527   3.015 -0.9067 -0.1177 -0.2222
 3093TIP3    H130770   3.831   6.436   3.002  0.9055  0.2246  0.9589
 3093TIP3    H230771   3.768   6.528   3.103 -0.9378  0.3291 -0.2401
 3094TIP3   OH230772   5.091   6.571  12.958  0.1929 -0.1080  0.4909
 3094TIP3    H130773   5.095   6.580  13.054 -0.0764  0.1213  0.4802
 3094TIP3    H230774   5.057   6.655  12.928 -0.0522 -0.3066  0.2176
 3095TIP3   OH230775   1.643   5.336  13.389  0.1330  0.5630 -0.4790
 3095TIP3    H130776   1.547   5.339  13.396  0.0645  1.3686 -1.5805
 3095TIP3    H230777   1.667   5.253  13.429 -1.1331 -0.2525 -1.3491
 3096TIP3   OH230778   6.382   2.745   1.853  0.2377  0.2251  0.1139
 3096TIP3    H130779   6.452   2.809   1.841 -0.2074  1.0119  1.5327
 3096TIP3    H230780   6.358   2.719   1.764  0.6366  1.7888 -0.4786
 3097TIP3   OH230781   2.069   1.115   2.157 -0.4320  0.4803  0.6035
 3097TIP3    H130782   1.977   1.141   2.148 -0.1329  1.7398  1.0335
 3097TIP3    H230783   2.118   1.183   2.112  0.1798 -2.3235 -3.5982
 3098TIP3   OH230784   1.810   0.858   2.350  0.1190 -0.2149 -0.2256
 3098TIP3    H130785   1.873   0.929   2.362  1.0728 -1.1189  0.2330
 3098TIP3    H230786   1.862   0.786   2.314 -0.2968 -1.5317  1.6721
 3099TIP3   OH230787   3.478   2.357   2.933 -0.5351  0.3586  0.0622
 3099TIP3    H130788   3.424   2.316   3.001  0.1372 -1.1816 -0.2788
 3099TIP3    H230789   3.415   2.389   2.869 -1.0963 -0.2656  0.2831
 3100TIP3   OH230790   3.730   3.088  12.260  0.4659 -0.3073  0.5120
 3100TIP3    H130791   3.802   3.141  12.227 -0.4593  0.5586 -0.2128
 3100TIP3    H230792   3.698   3.135  12.337  0.7542 -0.7536  0.9057
 3101TIP3   OH230793   0.751   1.630   1.643  0.0801 -0.0236 -0.2831
 3101TIP3    H130794   0.747   1.664   1.553 -0.0447  0.6734 -0.0203
 3101TIP3    H230795   0.661   1.633   1.674  0.3350  1.2807  0.4117
 3102TIP3   OH230796   5.932   4.058  14.462  0.3455  0.2133 -0.6574
 3102TIP3    H130797   6.018   4.065  14.422  1.8922 -0.2856  2.3083
 3102TIP3    H230798   5.889   4.141  14.442  1.9829  0.9758 -1.1425
 3103TIP3   OH230799   0.711   0.248  17.081 -0.1962 -0.3281  0.2091
 3103TIP3    H130800   0.644   0.197  17.035  0.1109 -0.0616 -0.5622
 3103TIP3    H230801   0.762   0.288  17.010  1.1646 -1.0308  0.7612
 3104TIP3   OH230802   1.514   2.028  15.114 -0.5622  0.3139  0.0242
 3104TIP3    H130803   1.424   2.005  15.088 -0.2481 -0.9169 -0.0353
 3104TIP3    H230804   1.560   1.944  15.117  0.3457  0.8246  1.0035
 3105TIP3   OH230805   4.383   0.578   3.501 -0.0198  0.2107 -0.3718
 3105TIP3    H130806   4.368   0.579   3.596 -0.6471  0.6157 -0.4672
 3105TIP3    H230807   4.477   0.596   3.491 -0.2811  2.0886  0.1208
 3106TIP3   OH230808   0.395   5.745   1.653  0.0592  0.2059 -0.0212
 3106TIP3    H130809   0.447   5.825   1.650 -0.0394  0.3052  0.7093
 3106TIP3    H230810   0.357   5.737   1.565  0.2190  0.8602 -0.1512
 3107TIP3   OH230811   4.340   5.498  14.229  0.0215 -0.5693  0.0644
 3107TIP3    H130812   4.335   5.557  14.305  1.1240  0.9942 -0.9986
 3107TIP3    H230813   4.393   5.547  14.166 -0.2844 -2.1304 -1.4440
 3108TIP3   OH230814   6.551   3.233   4.866  0.5487  0.1249  0.4177
 3108TIP3    H130815   6.558   3.196   4.778  0.7281 -1.1850  0.9567
 3108TIP3    H230816   6.566   3.327   4.854  2.1476 -0.2331 -0.7476
 3109TIP3   OH230817   4.309   0.066  16.010  0.3044  0.9170  0.3600
 3109TIP3    H130818   4.280   0.057  16.100  2.4599 -2.5457  0.8615
 3109TIP3    H230819   4.401   0.092  16.017  0.5097  0.5656 -0.8396
 3110TIP3   OH230820   0.874   0.852  13.540 -0.5603 -0.2768 -0.0621
 3110TIP3    H130821   0.855   0.877  13.631 -0.7573  0.9435 -0.4166
 3110TIP3    H230822   0.815   0.778  13.523 -2.3822  1.0631  0.0499
 3111TIP3   OH230823   4.781   5.524  17.168 -0.4175  0.1497 -0.5109
 3111TIP3    H130824   4.817   5.449  17.121 -1.4394 -0.4763 -0.3177
 3111TIP3    H230825   4.700   5.545  17.121 -0.7048  0.4249  0.1036
 3112TIP3   OH230826   4.549   1.495  11.285  0.2597  0.5711 -0.3920
 3112TIP3    H130827   4.562   1.433  11.214  0.1387  0.1701 -0.0691
 3112TIP3    H230828   4.571   1.445  11.364  0.1305  0.9284 -0.1287
 3113TIP3   OH230829   5.532   3.674   2.229  0.1901 -0.6526  0.3281
 3113TIP3    H130830   5.460   3.664   2.166 -0.1168  1.3868  0.2749
 3113TIP3    H230831   5.489   3.707   2.309  0.8042 -1.5136  1.0327
 3114TIP3   OH230832   3.900   2.444  13.389  0.1591  0.6531 -0.1811
 3114TIP3    H130833   3.987   2.419  13.358 -0.7062 -0.7555 -1.6837
 3114TIP3    H230834   3.898   2.539  13.379  1.1766  0.6043 -1.1200
 3115TIP3   OH230835   4.337   1.634   4.053  0.5038 -0.0182  0.2483
 3115TIP3    H130836   4.378   1.562   4.005 -1.1680 -0.7107 -0.2191
 3115TIP3    H230837   4.317   1.700   3.987  1.1001  0.4378  0.5147
 3116TIP3   OH230838   3.496   4.317  13.925 -0.3250  0.2074  0.3511
 3116TIP3    H130839   3.407   4.285  13.915 -0.5201  0.8357  0.0042
 3116TIP3    H230840   3.491   4.410  13.904  0.3627  0.3084  0.5847
 3117TIP3   OH230841   6.001   0.682   0.570  0.5579  0.0751 -0.0417
 3117TIP3    H130842   5.966   0.613   0.626 -0.0473  0.8895  0.6055
 3117TIP3    H230843   5.955   0.670   0.487  0.8718 -0.6400 -0.1225
 3118TIP3   OH230844   2.465   4.434  15.830  0.4484 -0.2582  0.2887
 3118TIP3    H130845   2.407   4.360  15.848  2.5797 -1.9143  0.7514
 3118TIP3    H230846   2.510   4.450  15.913  2.1851 -0.4506 -0.5904
 3119TIP3   OH230847   6.615   6.016  11.680  0.1530  0.7014  0.6077
 3119TIP3    H130848   6.556   6.067  11.625  0.2111  1.1057  0.9073
 3119TIP3    H230849   6.697   6.010  11.630  0.2446  1.1657  0.6955
 3120TIP3   OH230850   1.202   4.448   4.633 -1.0723  0.1008 -0.4098
 3120TIP3    H130851   1.237   4.536   4.643 -0.5351 -0.2717  1.2087
 3120TIP3    H230852   1.107   4.460   4.623 -1.2360  0.8019  1.5793
 3121TIP3   OH230853   4.425   0.366  11.992  0.8066  0.0055 -0.7608
 3121TIP3    H130854   4.370   0.392  12.065  0.7365 -0.2633 -0.7169
 3121TIP3    H230855   4.434   0.445  11.938  3.5216  1.2082  1.1942
 3122TIP3   OH230856   2.904   6.107   4.863 -0.0049  0.5159 -0.3266
 3122TIP3    H130857   2.855   6.118   4.944 -1.1250  0.7134 -1.0097
 3122TIP3    H230858   2.857   6.159   4.799  0.5054 -0.1240 -1.2479
 3123TIP3   OH230859   1.962   4.274  15.403  0.0241 -0.2914 -0.1776
 3123TIP3    H130860   1.966   4.203  15.466  0.1793  0.3893  0.5917
 3123TIP3    H230861   2.033   4.333  15.428 -1.2617  1.0781  0.3859
 3124TIP3   OH230862   1.838   3.297   3.683  0.0106  0.3281  0.7276
 3124TIP3    H130863   1.919   3.348   3.682 -0.0529  0.4313  0.8331
 3124TIP3    H230864   1.851   3.233   3.753  0.1231  0.1442  0.5413
 3125TIP3   OH230865   4.919   2.115   1.431  0.2658  0.1645 -0.1307
 3125TIP3    H130866   4.876   2.068   1.359 -0.0355  1.6527 -0.9580
 3125TIP3    H230867   4.991   2.163   1.389  0.2346  0.8743  0.5975
 3126TIP3   OH230868   1.780   3.616   0.471  0.4409 -0.1096 -0.5816
 3126TIP3    H130869   1.736   3.531   0.476  1.0155 -0.3767  0.0107
 3126TIP3    H230870   1.751   3.652   0.387  0.1793 -0.8836 -0.8387
 3127TIP3   OH230871   4.451   0.384  13.462  0.9146  0.2394 -0.0480
 3127TIP3    H130872   4.439   0.462  13.408 -1.0533  0.3932  0.5365
 3127TIP3    H230873   4.531   0.344  13.428  0.9713  1.5263 -1.5689
 3128TIP3   OH230874   5.381   5.567  11.384  0.4080 -0.0220  0.3328
 3128TIP3    H130875   5.388   5.504  11.456  1.1442 -1.5492 -0.9994
 3128TIP3    H230876   5.319   5.526  11.323 -0.1835  1.2235  0.0800
 3129TIP3   OH230877   5.892   4.014   5.341 -0.5837 -0.2835 -0.1233
 3129TIP3    H130878   5.868   3.977   5.425  3.8962  1.8573  2.4540
 3129TIP3    H230879   5.967   3.963   5.312  0.8545  1.8074 -0.3352
 3130TIP3   OH230880   2.497   2.477   3.193  0.3830  0.0855 -0.0584
 3130TIP3    H130881   2.543   2.430   3.124 -0.2395 -0.1147 -0.3422
 3130TIP3    H230882   2.404   2.468   3.171  0.1805  0.0903  0.7593
 3131TIP3   OH230883   0.427   0.396  13.749 -0.7789 -0.0647 -0.5567
 3131TIP3    H130884   0.481   0.412  13.827 -2.5065  0.0519  0.6951
 3131TIP3    H230885   0.384   0.481  13.733 -1.6077 -0.5011 -0.6802
 3132TIP3   OH230886   3.122   0.900  11.291  0.6407  0.0121  0.5777
 3132TIP3    H130887   3.112   0.808  11.314  1.2043  0.1423  1.3772
 3132TIP3    H230888   3.048   0.944  11.335  0.5453 -0.0172  0.4471
 3133TIP3   OH230889   5.036   1.008  11.298 -0.1797 -0.0892  0.2080
 3133TIP3    H130890   4.974   0.935  11.304  0.2647 -0.3731  1.8324
 3133TIP3    H230891   4.995   1.078  11.349  0.7757 -0.2754  1.2803
 3134TIP3   OH230892   2.716   6.810   0.986 -0.0973 -0.7896 -0.3595
 3134TIP3    H130893   2.727   6.750   0.913 -2.6397 -0.5279 -1.0320
 3134TIP3    H230894   2.645   6.772   1.038  1.0760 -0.5244  1.5652
 3135TIP3   OH230895   4.420   6.062   1.906  0.4700  0.4382  0.9553
 3135TIP3    H130896   4.416   6.156   1.926 -2.0925  0.3384  1.3445
 3135TIP3    H230897   4.392   6.056   1.815 -0.5497  0.0043  1.2820
 3136TIP3   OH230898   4.484   2.396   5.905  0.0295  0.3879  0.4748
 3136TIP3    H130899   4.458   2.333   5.972  1.4192 -1.2444 -0.4399
 3136TIP3    H230900   4.424   2.381   5.833  0.0543  0.4610  0.4390
 3137TIP3   OH230901   0.378   5.586   3.640  0.5090  0.3258 -0.1035
 3137TIP3    H130902   0.439   5.522   3.677 -0.5528  0.4329  1.9887
 3137TIP3    H230903   0.430   5.666   3.629  0.9793  0.1505  0.7671
 3138TIP3   OH230904   4.161   5.650  12.388  0.1553  0.1354  0.3865
 3138TIP3    H130905   4.201   5.657  12.475  0.7771 -0.2406  0.1373
 3138TIP3    H230906   4.082   5.704  12.393  0.1864  0.1157  1.1861
 3139TIP3   OH230907   1.086   4.776   5.707  0.1418  0.4463  0.5614
 3139TIP3    H130908   1.057   4.713   5.640  1.4631 -0.5557  0.8908
 3139TIP3    H230909   1.006   4.802   5.752 -1.1818  2.7792 -2.6789
 3140TIP3   OH230910   3.348   2.225   3.126 -0.5945  0.2161 -0.4401
 3140TIP3    H130911   3.280   2.284   3.160 -0.3139  0.9416 -1.1067
 3140TIP3    H230912   3.343   2.148   3.183 -0.3664  1.2366  1.0095
 3141TIP3   OH230913   4.937   5.424   0.621 -0.1811 -0.4860 -0.3007
 3141TIP3    H130914   5.003   5.485   0.652 -0.9555 -0.5539  1.6240
 3141TIP3    H230915   4.985   5.343   0.603  0.3423 -0.3821  0.5827
 3142TIP3   OH230916   6.106   2.221   2.804  0.0418  0.0481  0.0327
 3142TIP3    H130917   6.122   2.289   2.738 -0.7888  0.3748  0.1525
 3142TIP3    H230918   6.074   2.269   2.880 -1.4004 -0.5404 -0.1688
 3143TIP3   OH230919   6.045   0.111   4.962 -0.1267  0.4596 -0.0377
 3143TIP3    H130920   5.960   0.146   4.937 -0.5657 -0.2811  0.3761
 3143TIP3    H230921   6.041   0.105   5.057  0.1451 -0.1647 -0.0581
 3144TIP3   OH230922   6.145   6.122  12.760 -0.4044 -0.1493  0.3854
 3144TIP3    H130923   6.102   6.047  12.801 -0.3396 -0.0441  0.6521
 3144TIP3    H230924   6.076   6.187  12.750 -0.9840 -1.0407 -1.9217
 3145TIP3   OH230925   2.574   2.319   1.255 -0.2171  0.3199 -0.0669
 3145TIP3    H130926   2.518   2.377   1.307  0.2047  1.2518 -0.6172
 3145TIP3    H230927   2.627   2.379   1.202  0.2289 -0.5812 -0.6603
 3146TIP3   OH230928   2.131   4.410   6.466 -0.6307  0.1921  0.4607
 3146TIP3    H130929   2.043   4.447   6.457 -0.3943  1.0619  1.4442
 3146TIP3    H230930   2.187   4.485   6.484  0.5412 -0.1970 -1.2995
 3147TIP3   OH230931   1.099   2.210  12.052 -0.4251 -0.9216 -0.1585
 3147TIP3    H130932   1.086   2.281  12.116  1.1887  0.6448 -1.4760
 3147TIP3    H230933   1.014   2.200  12.010 -1.1227 -0.9700  1.2168
 3148TIP3   OH230934   5.748   2.189  15.007 -0.2145  0.0515  0.1494
 3148TIP3    H130935   5.668   2.184  15.057  0.0373  1.4106  0.7242
 3148TIP3    H230936   5.764   2.283  14.996 -0.4933 -0.1509 -2.8614
 3149TIP3   OH230937   5.099   2.454   3.903  0.4421 -0.3072 -0.4589
 3149TIP3    H130938   5.014   2.425   3.870 -0.1328  0.4099  0.3505
 3149TIP3    H230939   5.092   2.549   3.909  1.9230 -0.0310 -2.0346
 3150TIP3   OH230940   6.596   3.143   5.972 -0.2744 -0.6617 -0.0034
 3150TIP3    H130941   6.539   3.128   6.047 -1.0683 -0.4311 -0.5552
 3150TIP3    H230942   6.578   3.233   5.946  1.3134 -0.1318  0.6251
 3151TIP3   OH230943   3.252   4.836  15.544  0.2340 -0.1227  0.0735
 3151TIP3    H130944   3.291   4.917  15.511  1.3227 -0.0544  1.4311
 3151TIP3    H230945   3.175   4.865  15.594  0.3381  0.0300  0.1454
 3152TIP3   OH230946   3.314   5.484  11.891 -0.1182 -0.2499  0.2485
 3152TIP3    H130947   3.343   5.457  11.804  0.2058 -0.2675  0.3622
 3152TIP3    H230948   3.240   5.426  11.911  0.1049 -0.5586  0.1826
 3153TIP3   OH230949   5.290   6.573  12.754 -0.0178 -0.3367 -0.4798
 3153TIP3    H130950   5.237   6.560  12.833  0.1330  1.9756  0.0732
 3153TIP3    H230951   5.318   6.485  12.729 -1.6238 -1.3049  0.9506
 3154TIP3   OH230952   2.565   3.971   4.443 -0.0173 -0.3150  0.0994
 3154TIP3    H130953   2.543   4.058   4.476  0.0245  0.3724 -1.5904
 3154TIP3    H230954   2.511   3.911   4.496 -2.0246  0.9279 -0.4182
 3155TIP3   OH230955   1.945   0.238   1.899 -0.3382 -0.3928  0.0125
 3155TIP3    H130956   1.895   0.278   1.970 -1.0927  0.6476 -1.0601
 3155TIP3    H230957   1.996   0.310   1.862 -0.6733 -0.6899 -1.0836
 3156TIP3   OH230958   0.924   3.669   6.164 -0.3697 -0.2300  0.5471
 3156TIP3    H130959   0.954   3.580   6.150 -0.0832 -0.3591  1.8715
 3156TIP3    H230960   0.937   3.685   6.257  3.0511  2.4211 -0.1339
 3157TIP3   OH230961   2.199   6.400   4.626 -0.2298 -0.4344  0.4953
 3157TIP3    H130962   2.144   6.475   4.649  2.6107  1.5242  1.4940
 3157TIP3    H230963   2.244   6.428   4.545  0.2181 -1.4256  0.3852
 3158TIP3   OH230964   3.519   2.806  13.770  0.0532 -0.5297  0.2685
 3158TIP3    H130965   3.523   2.713  13.745 -0.9635 -0.2907 -0.8651
 3158TIP3    H230966   3.537   2.853  13.689 -2.0252  0.2711  0.2360
 3159TIP3   OH230967   0.546   0.620  14.328 -0.2351  0.7386 -0.3158
 3159TIP3    H130968   0.593   0.547  14.368  0.1307  0.9506 -0.3516
 3159TIP3    H230969   0.546   0.601  14.235 -0.5780  0.5337 -0.2719
 3160TIP3   OH230970   2.282   3.333   0.782 -0.0815 -0.1035 -0.1039
 3160TIP3    H130971   2.311   3.244   0.802  0.4988 -0.1577 -1.1634
 3160TIP3    H230972   2.352   3.370   0.730  0.2671  1.4278  1.3662
 3161TIP3   OH230973   6.516   1.227  17.023  0.6667  0.6070  0.4835
 3161TIP3    H130974   6.422   1.219  17.042  0.8798  1.4660  1.9980
 3161TIP3    H230975   6.537   1.319  17.042  1.6506  0.6640 -0.7109
 3162TIP3   OH230976   4.685   0.433   1.508  0.1451 -0.3489 -0.2105
 3162TIP3    H130977   4.669   0.373   1.581 -2.2832 -0.2177 -0.5561
 3162TIP3    H230978   4.775   0.413   1.480  1.0157 -0.6553  2.5246
 3163TIP3   OH230979   0.477   5.358   4.765 -0.1869 -0.3333  0.3147
 3163TIP3    H130980   0.517   5.432   4.810  0.4523 -0.7557  0.4636
 3163TIP3    H230981   0.388   5.387   4.744 -0.5842 -0.2069  2.0430
 3164TIP3   OH230982   0.450   2.321   2.210 -0.3846 -0.0412  0.0307
 3164TIP3    H130983   0.469   2.402   2.258 -1.6231  1.1933 -1.4466
 3164TIP3    H230984   0.409   2.264   2.274 -1.7219  1.4396  0.5579
 3165TIP3   OH230985   1.985   1.517  16.860  0.1143 -0.3103  0.9044
 3165TIP3    H130986   1.897   1.495  16.832  0.4696 -0.6811  0.0554
 3165TIP3    H230987   1.985   1.613  16.867  0.2307 -0.1159 -1.1651
 3166TIP3   OH230988   0.431   0.327   1.863 -0.3915 -0.0161  0.1571
 3166TIP3    H130989   0.359   0.383   1.833  0.5728  0.5503 -1.1865
 3166TIP3    H230990   0.498   0.389   1.893  0.0621 -0.4992  0.1497
 3167TIP3   OH230991   6.038   3.494   4.665  0.1256 -0.2872  0.5215
 3167TIP3    H130992   6.081   3.466   4.584  2.4366 -0.0202  1.5853
 3167TIP3    H230993   5.947   3.509   4.640  0.3877 -1.8725 -1.6346
 3168TIP3   OH230994   2.739   6.577  15.903  0.1417  0.1785  0.4794
 3168TIP3    H130995   2.663   6.632  15.921 -1.2950 -2.2606  2.4774
 3168TIP3    H230996   2.792   6.581  15.982 -0.1814 -1.4952  0.8291
 3169TIP3   OH230997   4.538   1.276   3.179  0.1271 -0.3485 -0.7050
 3169TIP3    H130998   4.503   1.241   3.261  0.9038  1.8579  0.6573
 3169TIP3    H230999   4.550   1.199   3.124 -2.3061 -1.7149  0.4842
 3170TIP3   OH231000   2.785   6.101  13.950  0.8254 -1.0815  0.1369
 3170TIP3    H131001   2.848   6.030  13.959  0.4769 -1.4432 -0.2359
 3170TIP3    H231002   2.707   6.071  13.996  0.7650 -0.8253  0.2075
 3171TIP3   OH231003   6.149   0.054  17.039 -0.5978  0.1460  0.2981
 3171TIP3    H131004   6.196   0.091  17.113 -1.7488  1.2850  0.5033
 3171TIP3    H231005   6.158  -0.041  17.049  2.2240  0.3032 -0.1088
 3172TIP3   OH231006   1.386   3.208   5.867  0.1279 -0.2578 -0.0521
 3172TIP3    H131007   1.359   3.255   5.945 -1.4979  0.8720 -1.2179
 3172TIP3    H231008   1.349   3.120   5.878 -0.1520 -0.0841  0.4014
 3173TIP3   OH231009   2.466   2.810   1.272  0.0449 -0.1694  0.2710
 3173TIP3    H131010   2.443   2.790   1.181 -1.2097 -2.5512  1.0056
 3173TIP3    H231011   2.548   2.858   1.267 -0.6082  0.8115 -2.1579
 3174TIP3   OH231012   3.266   3.459  11.355 -0.1282 -0.2794 -0.7522
 3174TIP3    H131013   3.240   3.504  11.436 -1.5000 -1.4598 -0.4787
 3174TIP3    H231014   3.361   3.451  11.361 -0.2417 -0.8116  1.0459
 3175TIP3   OH231015   1.976   0.055   3.929  0.4807 -0.9221  0.0789
 3175TIP3    H131016   1.918  -0.013   3.962  1.4647 -1.5952  0.4848
 3175TIP3    H231017   1.925   0.102   3.863 -0.9416 -0.6535  1.3329
 3176TIP3   OH231018   3.766   0.472   1.182 -0.1175 -0.0748 -0.1106
 3176TIP3    H131019   3.733   0.512   1.102 -0.5961 -0.5929 -0.1781
 3176TIP3    H231020   3.711   0.508   1.252  1.0603  1.2935  0.1535
 3177TIP3   OH231021   5.775   4.346   4.077  0.3457  0.3616 -0.2688
 3177TIP3    H131022   5.838   4.393   4.023  1.6979 -0.8685  0.1800
 3177TIP3    H231023   5.827   4.312   4.150 -1.0914  0.4122  0.8050
 3178TIP3   OH231024   5.786   1.953   4.827 -0.1454 -0.1767  0.0237
 3178TIP3    H131025   5.733   2.023   4.790 -0.3478  0.1226  0.8445
 3178TIP3    H231026   5.722   1.889   4.859 -0.0709  0.4068  1.4506
 3179TIP3   OH231027   0.718   3.379   2.785 -0.1638 -0.2435  0.1923
 3179TIP3    H131028   0.716   3.419   2.698  4.3929 -1.6565 -0.8558
 3179TIP3    H231029   0.684   3.291   2.772  2.4594 -1.1902 -0.8114
 3180TIP3   OH231030   1.203   4.499  13.904  0.4162 -0.4971 -0.9759
 3180TIP3    H131031   1.291   4.470  13.881 -0.2938 -1.2107 -2.9373
 3180TIP3    H231032   1.149   4.477  13.828 -0.8872  2.6840 -1.1313
 3181TIP3   OH231033   6.836   5.261   0.137 -0.0074  0.0380 -0.0713
 3181TIP3    H131034   6.914   5.284   0.187  0.2244 -1.0517  0.0932
 3181TIP3    H231035   6.870   5.234   0.051 -0.3233  0.8879 -0.4813
 3182TIP3   OH231036   5.028   1.041  13.514 -0.0271  0.3049  0.3530
 3182TIP3    H131037   5.064   1.075  13.433 -0.5202  1.5571  0.6354
 3182TIP3    H231038   4.992   1.118  13.559 -1.1426 -0.5753  1.0377
 3183TIP3   OH231039   3.294   0.599  13.754 -0.3569 -0.2616 -0.0184
 3183TIP3    H131040   3.238   0.629  13.826  1.6037 -0.7675  1.7955
 3183TIP3    H231041   3.276   0.660  13.683 -1.6432  0.8656  1.2097
 3184TIP3   OH231042   2.179   3.703   0.029 -0.1431  0.1079 -0.6962
 3184TIP3    H131043   2.118   3.745   0.090  1.2094 -1.4579  1.9170
 3184TIP3    H231044   2.207   3.774  -0.028 -1.2282  1.7871  0.7144
 3185TIP3   OH231045   2.544   0.415  16.368  0.4784  0.0503 -0.4977
 3185TIP3    H131046   2.612   0.351  16.386 -0.1390 -0.7355 -0.8856
 3185TIP3    H231047   2.512   0.442  16.454  0.0978 -0.8843 -0.3330
 3186TIP3   OH231048   1.985   6.713  16.925 -0.2621 -0.8085  0.3055
 3186TIP3    H131049   1.892   6.702  16.906 -0.0157 -0.6046 -1.1619
 3186TIP3    H231050   1.999   6.808  16.922 -0.3239 -0.6922  2.2979
 3187TIP3   OH231051   3.624   5.408  11.852 -0.2865  0.4634 -0.2466
 3187TIP3    H131052   3.603   5.393  11.944 -2.4743  0.4109 -0.7003
 3187TIP3    H231053   3.711   5.371  11.841 -0.9071 -1.6372  1.2834
 3188TIP3   OH231054   1.837   6.372   1.586  0.1581  0.1352  1.0423
 3188TIP3    H131055   1.877   6.448   1.544  0.2368  0.5044  1.7642
 3188TIP3    H231056   1.765   6.409   1.638 -1.3303 -0.5438 -0.4601
 3189TIP3   OH231057   5.019   1.485  15.699  0.4396  0.3612 -0.0805
 3189TIP3    H131058   4.943   1.535  15.728 -0.1190  0.3790 -1.4936
 3189TIP3    H231059   5.094   1.542  15.716 -0.0631  1.1732 -0.5390
 3190TIP3   OH231060   6.107   6.409  14.624 -0.3341 -0.2171  0.6995
 3190TIP3    H131061   6.122   6.337  14.562  0.8578 -0.3962  1.1601
 3190TIP3    H231062   6.124   6.370  14.710  0.0895  0.5496  0.9721
 3191TIP3   OH231063   1.867   5.831  17.019  1.0422 -0.3822 -0.0819
 3191TIP3    H131064   1.863   5.913  16.970  0.9356  1.2302  2.4564
 3191TIP3    H231065   1.780   5.793  17.009 -0.1381  1.6725  1.5677
 3192TIP3   OH231066   5.530   4.435  15.557 -0.2994  0.0149  0.0172
 3192TIP3    H131067   5.439   4.406  15.562 -0.3278  0.0084 -0.4353
 3192TIP3    H231068   5.554   4.420  15.465  0.5041 -1.0489  0.3710
 3193TIP3   OH231069   3.448   5.148  12.440  0.4382 -0.3281 -0.4253
 3193TIP3    H131070   3.407   5.221  12.394 -0.8039  0.0546  1.1820
 3193TIP3    H231071   3.390   5.074  12.425 -0.4514  0.0037  1.1326
 3194TIP3   OH231072   3.100   0.997   4.535  0.0579  0.8922  0.0716
 3194TIP3    H131073   3.186   0.967   4.502  0.2831  3.2707 -1.7808
 3194TIP3    H231074   3.043   0.993   4.458 -1.5323 -0.5264  1.2539
 3195TIP3   OH231075   4.230   0.358  12.650  0.1959 -0.7099  0.3532
 3195TIP3    H131076   4.162   0.357  12.717 -1.3221 -0.8262 -1.1065
 3195TIP3    H231077   4.291   0.289  12.676 -1.0585 -1.6518  0.9256
 3196TIP3   OH231078   0.000   1.599  12.290  0.0957 -0.7318 -0.1452
 3196TIP3    H131079   0.044   1.678  12.256  0.0073  0.1289  1.6098
 3196TIP3    H231080  -0.091   1.608  12.262  0.0605 -0.1371  0.1467
 3197TIP3   OH231081   4.003   4.631  15.096 -0.1875  0.5423  0.5562
 3197TIP3    H131082   4.033   4.658  15.183 -1.7609 -0.0073  1.2963
 3197TIP3    H231083   3.923   4.581  15.112 -0.6883  0.6974 -1.2367
 3198TIP3   OH231084   5.711   2.190   4.237 -0.1460 -0.2516 -0.3810
 3198TIP3    H131085   5.702   2.106   4.281  0.0828 -1.4012 -2.3658
 3198TIP3    H231086   5.806   2.200   4.223  0.0292  1.3355  1.5591
 3199TIP3   OH231087   6.155   1.908   0.353 -0.0664 -0.2736 -0.1754
 3199TIP3    H131088   6.231   1.904   0.412 -0.3964  0.6552  0.3284
 3199TIP3    H231089   6.187   1.869   0.271  1.5432  1.6867 -0.5793
 3200TIP3   OH231090   5.211   4.604   4.766 -0.1061  0.2702 -0.1384
 3200TIP3    H131091   5.121   4.594   4.797 -0.7116  1.3959 -1.4174
 3200TIP3    H231092   5.258   4.642   4.841 -0.7732  0.0216  0.4169
 3201TIP3   OH231093   1.390   0.818   0.845  0.6544 -0.3656 -0.1048
 3201TIP3    H131094   1.413   0.899   0.801  0.3842  0.3005  0.9411
 3201TIP3    H231095   1.297   0.826   0.864  0.6965 -0.7755  0.2921
 3202TIP3   OH231096   3.302   3.451  14.838  0.4043 -0.1835  0.3372
 3202TIP3    H131097   3.280   3.448  14.745  0.3377  2.5442  0.1774
 3202TIP3    H231098   3.326   3.361  14.860  1.5925 -0.7139 -2.6140
 3203TIP3   OH231099   5.693   5.879   5.832 -0.0933  0.1149  0.1135
 3203TIP3    H131100   5.755   5.835   5.890  0.0162 -1.5628 -1.2110
 3203TIP3    H231101   5.654   5.808   5.780 -2.7551  1.1645  0.5435
 3204TIP3   OH231102   0.410   6.055  13.161 -0.0564  0.3639  0.2479
 3204TIP3    H131103   0.331   6.004  13.182  0.9262 -1.5474 -0.4443
 3204TIP3    H231104   0.435   6.096  13.244 -0.7976 -0.4308  0.8786
 3205TIP3   OH231105   0.227   1.493   0.223 -0.6031  0.1346  0.6042
 3205TIP3    H131106   0.233   1.530   0.135  2.5476  0.7321  0.9661
 3205TIP3    H231107   0.252   1.401   0.213 -3.5017 -0.7428  0.4790
 3206TIP3   OH231108   0.717   1.600   0.716  0.1712  0.1655 -0.1863
 3206TIP3    H131109   0.621   1.611   0.715 -0.0783 -1.7071 -1.0532
 3206TIP3    H231110   0.745   1.651   0.792 -1.6358  0.0040  0.6689
 3207TIP3   OH231111   3.944   3.254   1.075  0.4669  0.0575  0.2842
 3207TIP3    H131112   3.965   3.232   0.985  0.8379  0.1097  0.3573
 3207TIP3    H231113   3.984   3.185   1.127  1.0697  0.5323  0.4693
 3208TIP3   OH231114   1.904   6.302   1.166 -0.3426  0.7034  0.1137
 3208TIP3    H131115   1.952   6.219   1.174  1.6685  1.7607 -0.6017
 3208TIP3    H231116   1.825   6.278   1.117  1.8718 -0.2401 -3.3179
 3209TIP3   OH231117   4.087   0.433  15.837  0.2506  0.3616 -0.4618
 3209TIP3    H131118   4.077   0.419  15.743 -0.0058  0.9514 -0.5284
 3209TIP3    H231119   4.079   0.528  15.848 -3.5321  0.1027  0.5821
 3210TIP3   OH231120   1.903   2.890   4.600  1.0239  0.2717 -0.2606
 3210TIP3    H131121   1.933   2.861   4.686  3.1550  1.8071 -0.4198
 3210TIP3    H231122   1.979   2.931   4.560 -0.6118  2.0105 -1.8219
 3211TIP3   OH231123   0.608   0.496   3.445 -0.1077  0.2817  0.4722
 3211TIP3    H131124   0.570   0.435   3.508 -0.1073  1.0264  1.2103
 3211TIP3    H231125   0.537   0.557   3.424 -0.2323 -0.1948 -0.5807
 3212TIP3   OH231126   5.317   3.124   2.724  0.1557  0.2734 -0.4942
 3212TIP3    H131127   5.268   3.107   2.805 -0.2309 -0.0215 -0.7882
 3212TIP3    H231128   5.312   3.041   2.675 -0.0006  0.5921 -1.0239
 3213TIP3   OH231129   0.670   3.293   0.268 -0.4203  0.2437  0.0464
 3213TIP3    H131130   0.615   3.222   0.301 -0.7675 -0.0229 -1.0687
 3213TIP3    H231131   0.738   3.304   0.334 -1.9925  0.8267  1.6536
 3214TIP3   OH231132   2.368   0.338   5.367 -0.1491  0.1318  0.7193
 3214TIP3    H131133   2.338   0.281   5.296  1.3532 -0.6421  0.6792
 3214TIP3    H231134   2.295   0.399   5.380 -1.3800 -1.1403  0.0711
 3215TIP3   OH231135   2.696   4.032  12.377  0.1425  0.0125  0.4762
 3215TIP3    H131136   2.746   3.980  12.315  0.4065  1.8474 -0.9269
 3215TIP3    H231137   2.722   4.122  12.360 -0.7518  0.6929  2.3946
 3216TIP3   OH231138   1.313   2.636  12.722  0.2235 -0.1378 -0.3344
 3216TIP3    H131139   1.359   2.701  12.776 -0.1048  0.2004 -0.4610
 3216TIP3    H231140   1.246   2.686  12.677 -0.3689 -0.6586 -0.0402
 3217TIP3   OH231141   6.145   1.324  16.073  0.3446 -0.4520 -0.3736
 3217TIP3    H131142   6.161   1.230  16.081  0.0685 -0.3398  3.5621
 3217TIP3    H231143   6.231   1.365  16.087  0.0286 -0.1457  0.8397
 3218TIP3   OH231144   3.669   3.374   4.149 -0.2952 -0.3277 -0.1504
 3218TIP3    H131145   3.578   3.394   4.128 -0.2081 -0.9557 -1.2123
 3218TIP3    H231146   3.667   3.285   4.184  0.0552 -0.8896 -1.4989
 3219TIP3   OH231147   0.607   6.129  12.235  0.3805  0.2491 -0.3953
 3219TIP3    H131148   0.623   6.166  12.322 -3.4054 -1.9791  1.5210
 3219TIP3    H231149   0.547   6.192  12.194 -1.4366 -0.7614  0.5566
 3220TIP3   OH231150   1.553   2.701   6.438 -0.0512  0.1676 -0.4545
 3220TIP3    H131151   1.496   2.624   6.436 -0.4755  0.4817 -0.9914
 3220TIP3    H231152   1.625   2.679   6.379  1.2101 -0.8190  1.3523
 3221TIP3   OH231153   2.781   2.911   4.410  0.1004 -0.1849  0.2374
 3221TIP3    H131154   2.863   2.862   4.418 -0.6092 -1.5899 -0.6380
 3221TIP3    H231155   2.773   2.959   4.492  1.9662  0.2611  0.1934
 3222TIP3   OH231156   0.646   1.038  11.652 -0.4406  0.1470  0.0215
 3222TIP3    H131157   0.723   1.074  11.608 -0.7788  0.2159 -0.5288
 3222TIP3    H231158   0.676   0.954  11.688 -0.1702  0.0570 -0.4005
 3223TIP3   OH231159   5.723   3.633  12.198  0.5173 -0.1975  0.3763
 3223TIP3    H131160   5.659   3.693  12.160 -0.8822 -0.4048  2.2637
 3223TIP3    H231161   5.770   3.686  12.263  1.1585 -0.4780  0.1530
 3224TIP3   OH231162   5.345   6.685  11.535  0.1309 -0.0181  0.2465
 3224TIP3    H131163   5.409   6.629  11.491 -1.5750 -1.5692 -0.3840
 3224TIP3    H231164   5.397   6.755  11.575  2.0367 -0.3204 -1.5752
 3225TIP3   OH231165   2.978   1.833   4.434 -0.1093 -1.1510 -0.1520
 3225TIP3    H131166   2.926   1.817   4.355  0.9535  0.3414 -1.2066
 3225TIP3    H231167   3.033   1.908   4.412  1.3923 -1.7084  1.4530
 3226TIP3   OH231168   4.787   4.780   0.084  0.1058  0.5612  0.0449
 3226TIP3    H131169   4.781   4.758   0.177  1.3174 -0.3603 -0.0618
 3226TIP3    H231170   4.744   4.706   0.040 -1.7191  1.6547 -0.1170
 3227TIP3   OH231171   1.842   4.150  13.276  0.4369 -0.2230 -0.2835
 3227TIP3    H131172   1.768   4.170  13.219  0.8436  1.9661 -0.1397
 3227TIP3    H231173   1.805   4.094  13.344 -0.6436 -0.6803 -1.2171
 3228TIP3   OH231174   4.591   1.786   3.884  0.7244  0.3798  0.5017
 3228TIP3    H131175   4.622   1.825   3.966 -0.7448  0.1466  1.1998
 3228TIP3    H231176   4.529   1.850   3.849 -3.4660 -1.9738  2.7760
 3229TIP3   OH231177   1.961   4.395   5.266 -0.6551 -0.2621  0.0570
 3229TIP3    H131178   2.011   4.315   5.276  0.7720  0.4661 -0.8322
 3229TIP3    H231179   1.899   4.377   5.195 -1.0783 -0.9109  0.5928
 3230TIP3   OH231180   1.442   1.388  16.443  0.1027  0.5702  0.4094
 3230TIP3    H131181   1.468   1.376  16.534  1.8721  2.3794  0.2131
 3230TIP3    H231182   1.440   1.299  16.407  0.4087 -0.0916  1.9486
 3231TIP3   OH231183   3.681   4.954  10.220  0.5865  0.2124 -0.3006
 3231TIP3    H131184   3.637   5.017  10.163  1.4609  0.5134 -0.6648
 3231TIP3    H231185   3.721   4.891  10.160  1.7185  0.6638 -0.0388
 3232TIP3   OH231186   5.022   6.701   6.298 -0.3424  0.0015  0.1670
 3232TIP3    H131187   5.010   6.606   6.304 -1.1899  0.1575  1.3950
 3232TIP3    H231188   4.989   6.734   6.382 -0.8452  1.4520 -0.5710
 3233TIP3   OH231189   0.435   6.443  13.630 -0.1139  0.1457 -0.1612
 3233TIP3    H131190   0.346   6.441  13.665  0.7149  0.9692  2.1473
 3233TIP3    H231191   0.442   6.363  13.579 -1.7992 -0.5176  0.5720
 3234TIP3   OH231192   5.148   2.746  16.701  0.3024  0.1474  0.1829
 3234TIP3    H131193   5.168   2.675  16.640  0.9583 -1.6859  2.3908
 3234TIP3    H231194   5.232   2.763  16.745 -0.6598 -0.3669  2.3128
 3235TIP3   OH231195   2.531   5.166   5.772 -0.1601 -0.1011  0.3046
 3235TIP3    H131196   2.557   5.119   5.693  3.4762 -0.4471  1.5231
 3235TIP3    H231197   2.607   5.221   5.794 -0.9025 -0.1629  3.6187
 3236TIP3   OH231198   5.264   4.350  15.534  0.1180  0.1045 -0.0259
 3236TIP3    H131199   5.236   4.262  15.508 -2.2438  0.5910  0.6262
 3236TIP3    H231200   5.249   4.353  15.628  2.8905  0.3408  0.4850
 3237TIP3   OH231201   3.480   1.669   3.153 -0.4114 -0.1606 -0.1879
 3237TIP3    H131202   3.517   1.601   3.210 -2.2436 -1.5975 -0.6167
 3237TIP3    H231203   3.492   1.750   3.203  0.5225 -0.9876  1.0027
 3238TIP3   OH231204   1.107   5.133  11.001 -0.2237 -0.2448  0.3837
 3238TIP3    H131205   1.040   5.124  11.069 -1.3270 -1.3656 -0.7895
 3238TIP3    H231206   1.087   5.218  10.960 -0.8650 -0.5018  0.1393
 3239TIP3   OH231207   0.177   5.963  14.519  0.4220 -0.3136  0.7598
 3239TIP3    H131208   0.091   5.921  14.523  0.3469 -0.7514 -2.4344
 3239TIP3    H231209   0.235   5.905  14.568 -0.6172 -1.5333  0.6039
 3240TIP3   OH231210   4.631   5.625   1.894  0.0846  0.2716  0.5893
 3240TIP3    H131211   4.619   5.687   1.822  1.3685 -0.2935 -0.1426
 3240TIP3    H231212   4.543   5.613   1.930 -1.0678 -1.1573 -2.3472
 3241TIP3   OH231213   5.053   3.045  13.901 -0.2538 -0.2232  0.4541
 3241TIP3    H131214   5.094   3.130  13.887 -0.3518 -0.2971 -0.3639
 3241TIP3    H231215   5.119   2.993  13.947 -0.0101  0.1383  0.5163
 3242TIP3   OH231216   0.690   5.494   3.363 -0.6746 -0.4869 -0.7835
 3242TIP3    H131217   0.757   5.426   3.359 -0.3810 -0.4179  1.8040
 3242TIP3    H231218   0.607   5.446   3.350 -0.3474 -1.0660 -0.7743
 3243TIP3   OH231219   2.046   3.642   4.151  0.1044  0.3372 -0.1215
 3243TIP3    H131220   1.951   3.655   4.146 -0.1190 -0.8470  0.7264
 3243TIP3    H231221   2.061   3.556   4.112  0.7547  0.2299  0.3516
 3244TIP3   OH231222   3.762   5.397  15.710 -0.2005 -0.0636 -0.0118
 3244TIP3    H131223   3.714   5.399  15.628  0.5506 -1.5360 -0.5242
 3244TIP3    H231224   3.819   5.320  15.703  0.0807 -0.0689  1.7741
 3245TIP3   OH231225   0.289   1.642   4.619  0.4428  0.3887  0.1085
 3245TIP3    H131226   0.209   1.595   4.641  0.7758  0.3980  1.4273
 3245TIP3    H231227   0.260   1.731   4.599  0.1464  0.4697  0.8734
 3246TIP3   OH231228   2.244   6.020   2.721  0.2999 -0.6308  0.0470
 3246TIP3    H131229   2.206   6.042   2.636 -0.6685 -1.5015  0.2362
 3246TIP3    H231230   2.338   6.029   2.708  0.1635 -0.6861 -1.0962
 3247TIP3   OH231231   0.582   4.879   1.324  0.5369  0.2114  0.0689
 3247TIP3    H131232   0.518   4.874   1.394  1.9551  0.4659  1.4400
 3247TIP3    H231233   0.622   4.965   1.333  1.6524 -0.2594 -0.2107
 3248TIP3   OH231234   4.506   2.057   1.326  0.5404  0.6908  0.3140
 3248TIP3    H131235   4.472   1.993   1.263  1.3022  1.5322 -1.0073
 3248TIP3    H231236   4.429   2.101   1.360 -0.0939 -1.5898  2.0619
 3249TIP3   OH231237   2.096   3.520  14.361  0.2262  0.2504  0.3677
 3249TIP3    H131238   2.181   3.493  14.398 -0.2281  1.2320  2.3027
 3249TIP3    H231239   2.091   3.476  14.277  2.6385  0.1169  0.2225
 3250TIP3   OH231240   1.491   5.778  15.148  0.0287 -0.6716 -0.6591
 3250TIP3    H131241   1.573   5.774  15.100  0.8455  0.6387  0.5376
 3250TIP3    H231242   1.449   5.859  15.120 -1.0505 -1.4880 -1.5069
 3251TIP3   OH231243   6.144   2.418   1.366  0.0551 -0.0003 -0.3552
 3251TIP3    H131244   6.216   2.405   1.304  1.2520 -2.1347  1.3305
 3251TIP3    H231245   6.103   2.333   1.374  0.8531 -0.2259  2.7343
 3252TIP3   OH231246   1.377   2.811  16.981  0.7615 -0.0808 -0.0131
 3252TIP3    H131247   1.464   2.812  17.020  0.6383  1.9130  0.3160
 3252TIP3    H231248   1.317   2.815  17.055  0.4153 -0.2716 -0.2777
 3253TIP3   OH231249   4.503   0.567   2.200  0.0969 -0.4082  0.7162
 3253TIP3    H131250   4.556   0.644   2.181 -0.5849  0.0690  0.7083
 3253TIP3    H231251   4.493   0.523   2.116  0.1435 -0.2884  0.6482
 3254TIP3   OH231252   4.427   4.561  14.802 -0.1232  0.5437 -0.1328
 3254TIP3    H131253   4.343   4.564  14.846  0.2487  0.0047  0.6422
 3254TIP3    H231254   4.461   4.650  14.806  0.5612  0.2453  2.0205
 3255TIP3   OH231255   4.186   1.259   2.711  0.3076 -0.4426 -0.2964
 3255TIP3    H131256   4.215   1.261   2.619  1.9880 -1.0891  0.1758
 3255TIP3    H231257   4.262   1.225   2.759 -0.6034 -0.2888  1.3196
 3256TIP3   OH231258   6.763   3.055   3.721  0.4852 -0.2794  0.0492
 3256TIP3    H131259   6.674   3.041   3.752  0.3423  0.0722 -0.1992
 3256TIP3    H231260   6.818   3.012   3.786  0.2715  1.4830  1.4470
 3257TIP3   OH231261   5.828   2.734   3.602 -0.4095 -0.7071 -0.3685
 3257TIP3    H131262   5.835   2.738   3.507 -1.1757 -0.3576 -0.4235
 3257TIP3    H231263   5.770   2.807   3.625  0.6682 -0.0757  0.4799
 3258TIP3   OH231264   1.268   5.016   3.605 -0.6391 -0.7161  0.4746
 3258TIP3    H131265   1.208   4.986   3.673 -1.3369  0.1740  0.2738
 3258TIP3    H231266   1.341   4.953   3.607 -0.7716 -0.8522  1.8570
 3259TIP3   OH231267   6.659   5.725   2.068 -0.0448 -0.3219  0.3548
 3259TIP3    H131268   6.585   5.697   2.015  0.0127  1.2474 -0.6052
 3259TIP3    H231269   6.731   5.667   2.041 -0.5005 -0.8074  0.1489
 3260TIP3   OH231270   2.855   1.528   3.831 -0.3004 -0.0608  0.1002
 3260TIP3    H131271   2.831   1.513   3.922 -0.2433  0.0594  0.1359
 3260TIP3    H231272   2.861   1.623   3.823 -0.4917 -0.0647 -0.0782
 3261TIP3   OH231273   2.016   5.031   2.484  0.4886 -0.5893 -0.0921
 3261TIP3    H131274   2.081   5.061   2.548 -0.4608 -1.2481  1.2081
 3261TIP3    H231275   2.004   4.938   2.503 -0.7100 -0.5201 -0.4166
 3262TIP3   OH231276   6.321   5.876  16.037  0.0016 -0.1816 -0.7666
 3262TIP3    H131277   6.244   5.881  16.094 -0.1495 -0.1312 -0.9757
 3262TIP3    H231278   6.355   5.787  16.051  1.7224  0.7521  1.6858
 3263TIP3   OH231279   1.902   1.335   2.919  0.0388  0.0170 -0.3146
 3263TIP3    H131280   1.946   1.302   2.997  3.1351 -1.2018 -2.3868
 3263TIP3    H231281   1.824   1.280   2.911 -0.6497  0.5292  2.1083
 3264TIP3   OH231282   3.257   1.208  13.219  0.0190 -0.6928 -0.4424
 3264TIP3    H131283   3.256   1.260  13.300 -1.6287 -0.6638 -0.4404
 3264TIP3    H231284   3.349   1.200  13.197  0.4504  0.1433  0.9061
 3265TIP3   OH231285   2.661   1.733  11.170 -0.1032 -0.1760  0.5235
 3265TIP3    H131286   2.724   1.663  11.151  0.4399  0.4253  0.0358
 3265TIP3    H231287   2.675   1.797  11.099 -2.7979 -1.0244 -0.8947
 3266TIP3   OH231288   2.243   3.394  13.839  0.1290  0.8084  0.4666
 3266TIP3    H131289   2.203   3.453  13.775  0.0912  0.6719  0.3650
 3266TIP3    H231290   2.283   3.325  13.787  1.8624  1.7637  0.4704
 3267TIP3   OH231291   3.449   5.535   1.899  0.2363 -1.0079 -0.1532
 3267TIP3    H131292   3.363   5.531   1.858  0.5444 -3.0509 -0.7184
 3267TIP3    H231293   3.510   5.518   1.828  1.3562  2.4035 -0.2082
 3268TIP3   OH231294   3.844   5.149  15.566 -0.3887 -0.0749 -0.0468
 3268TIP3    H131295   3.806   5.073  15.609 -0.7795  0.3137  0.3033
 3268TIP3    H231296   3.846   5.125  15.473 -1.2035 -0.2235 -0.0305
 3269TIP3   OH231297   2.449   5.628   1.862  0.4869  0.2013 -0.0179
 3269TIP3    H131298   2.450   5.562   1.792  0.3561 -0.4531  0.5851
 3269TIP3    H231299   2.448   5.712   1.816 -0.5026 -0.2226 -0.8047
 3270TIP3   OH231300   0.191   0.711  11.892 -0.1375  0.0620  0.3086
 3270TIP3    H131301   0.100   0.737  11.902 -0.3762 -0.2071 -0.9224
 3270TIP3    H231302   0.229   0.721  11.979 -0.9279  1.7351  0.5010
 3271TIP3   OH231303   4.232   6.832  15.120  0.1799 -0.3650 -0.6193
 3271TIP3    H131304   4.195   6.788  15.196 -0.1037  0.8566 -0.0286
 3271TIP3    H231305   4.235   6.765  15.052 -0.7612 -1.1386  0.0852
 3272TIP3   OH231306   1.405   4.431  11.035 -0.1396 -0.6793 -0.8332
 3272TIP3    H131307   1.484   4.408  10.986 -0.9415 -1.0514 -1.9919
 3272TIP3    H231308   1.433   4.430  11.127  1.3411 -0.1908 -1.2548
 3273TIP3   OH231309   3.744   6.531  12.698 -0.1954 -0.1434 -0.3574
 3273TIP3    H131310   3.699   6.482  12.629 -0.5891 -1.8833  1.0372
 3273TIP3    H231311   3.744   6.471  12.773  2.1156  0.8474  0.5118
 3274TIP3   OH231312   4.985   3.991   5.284 -0.2364  0.1827  0.2664
 3274TIP3    H131313   4.955   4.011   5.372 -1.9019  0.6137 -0.3608
 3274TIP3    H231314   4.960   4.067   5.232  0.2788 -0.2658 -0.6677
 3275TIP3   OH231315   0.797   1.469   4.389 -0.3807  0.1486 -0.4762
 3275TIP3    H131316   0.748   1.544   4.422 -0.5944  0.0280 -0.5156
 3275TIP3    H231317   0.872   1.462   4.448 -0.4807  0.2554 -0.3348
 3276TIP3   OH231318   5.105   6.738   0.689 -0.2513  0.4448 -0.1007
 3276TIP3    H131319   5.051   6.817   0.688  1.0926  1.4545 -2.1411
 3276TIP3    H231320   5.083   6.694   0.770 -0.1416  3.5950  1.8194
 3277TIP3   OH231321   2.369   3.602  16.953  0.4281  0.9994 -0.3425
 3277TIP3    H131322   2.336   3.628  16.867 -1.2603  0.6720  0.1794
 3277TIP3    H231323   2.302   3.544  16.989  2.0415 -0.5323  0.3694
 3278TIP3   OH231324   2.766   3.191  13.667  0.7467 -0.0482 -0.1937
 3278TIP3    H131325   2.753   3.111  13.616  1.7548  0.2387 -0.9231
 3278TIP3    H231326   2.701   3.185  13.738 -0.2019 -0.7847 -1.0954
 3279TIP3   OH231327   0.656   1.272   0.415 -0.3207 -0.8517  0.0101
 3279TIP3    H131328   0.653   1.264   0.510  0.7904 -0.5498  0.0889
 3279TIP3    H231329   0.610   1.195   0.383 -1.5410 -0.4679  0.7874
 3280TIP3   OH231330   6.209   4.129   0.684  0.1633  0.5405 -0.6054
 3280TIP3    H131331   6.234   4.221   0.683  2.0352  0.0622 -0.7210
 3280TIP3    H231332   6.231   4.098   0.771  0.7904 -0.0969 -0.9742
 3281TIP3   OH231333   2.495   2.577   5.745  0.4639 -0.0725  0.3980
 3281TIP3    H131334   2.549   2.541   5.816 -0.3791  0.0355  1.1123
 3281TIP3    H231335   2.534   2.662   5.726  2.2265 -1.1193 -1.0243
 3282TIP3   OH231336   4.100   2.931  12.344 -0.1499 -0.4771  0.7512
 3282TIP3    H131337   4.174   2.972  12.300 -2.3190  1.5152 -1.3477
 3282TIP3    H231338   4.140   2.870  12.406  3.2217  1.3509  0.6287
 3283TIP3   OH231339   3.002   6.367  14.395  0.1799 -0.1033 -0.3770
 3283TIP3    H131340   2.923   6.411  14.426 -0.1434 -0.5745 -0.5193
 3283TIP3    H231341   3.061   6.366  14.471 -0.1137 -0.1248 -0.1491
 3284TIP3   OH231342   6.465   2.682   4.626  0.3007 -0.3215  0.2308
 3284TIP3    H131343   6.413   2.612   4.584 -1.3763 -0.3749  2.2170
 3284TIP3    H231344   6.516   2.636   4.692  0.3510  0.1637  0.5269
 3285TIP3   OH231345   1.666   2.320  13.378  0.4774 -0.3524  0.6070
 3285TIP3    H131346   1.753   2.344  13.407  0.3200 -0.4110  1.1369
 3285TIP3    H231347   1.608   2.385  13.417  0.2884 -0.2625  0.1894
 3286TIP3   OH231348   3.535   1.109   4.024  0.0627  0.2477 -0.4115
 3286TIP3    H131349   3.460   1.169   4.021  0.6013  1.2180  2.2667
 3286TIP3    H231350   3.605   1.161   4.064  0.7835 -1.9120  1.3251
 3287TIP3   OH231351   0.440   2.909  11.859  0.2646  0.5117  0.8324
 3287TIP3    H131352   0.403   2.833  11.813 -0.8264  0.2276  2.1137
 3287TIP3    H231353   0.365   2.964  11.878  0.7501  0.8159  1.9142
 3288TIP3   OH231354   6.728   0.502  13.650  0.2215  0.5005  0.2101
 3288TIP3    H131355   6.670   0.425  13.656 -0.3242  0.8646 -0.2302
 3288TIP3    H231356   6.792   0.490  13.720  0.2556 -0.4556  0.0244
 3289TIP3   OH231357   5.271   0.962   4.385 -0.2195 -0.2609 -0.0817
 3289TIP3    H131358   5.234   0.921   4.307 -1.9330  1.7216 -0.4124
 3289TIP3    H231359   5.364   0.941   4.382 -0.5110 -1.4690 -1.8410
 3290TIP3   OH231360   5.635   0.967   2.235 -0.4253  0.6168  0.8590
 3290TIP3    H131361   5.585   0.932   2.161 -0.9864 -1.9319  2.3278
 3290TIP3    H231362   5.722   0.983   2.200 -1.0040  0.6697 -0.6356
 3291TIP3   OH231363   5.264   5.319  15.208  0.1054  0.1692 -0.5404
 3291TIP3    H131364   5.268   5.329  15.113  0.4174  1.7273 -0.3923
 3291TIP3    H231365   5.276   5.225  15.223  0.6725 -0.0133 -2.0027
 3292TIP3   OH231366   4.544   0.558   5.796 -0.2515 -0.0012  0.0407
 3292TIP3    H131367   4.454   0.535   5.818 -0.1517 -0.0953  0.3693
 3292TIP3    H231368   4.597   0.511   5.862  0.1306 -1.2657 -1.1203
 3293TIP3   OH231369   4.113   5.482   4.651 -0.2546 -0.2894 -0.4717
 3293TIP3    H131370   4.042   5.463   4.713  0.6917  2.6314  1.7621
 3293TIP3    H231371   4.187   5.430   4.682 -0.2723 -0.1376 -0.1685
 3294TIP3   OH231372   1.249   3.677  13.541  0.0649  0.2949 -0.0998
 3294TIP3    H131373   1.201   3.700  13.620 -0.0560 -1.1972  0.2899
 3294TIP3    H231374   1.338   3.709  13.557 -0.3178  1.4017 -0.0505
 3295TIP3   OH231375   6.267   0.358  11.088  0.5046 -0.4530 -0.7575
 3295TIP3    H131376   6.290   0.266  11.074 -0.7598 -0.8733 -0.2497
 3295TIP3    H231377   6.291   0.401  11.006  2.4055 -0.9477 -0.5137
 3296TIP3   OH231378   2.916   3.676   5.548 -0.1536 -0.5324 -0.3406
 3296TIP3    H131379   2.852   3.713   5.488 -1.1236 -1.9682 -0.2382
 3296TIP3    H231380   2.968   3.617   5.494  1.2903  0.8166 -0.4794
 3297TIP3   OH231381   3.376   0.702   5.254 -0.1300  0.0574 -0.1921
 3297TIP3    H131382   3.301   0.755   5.228  0.9042  1.8866  0.3475
 3297TIP3    H231383   3.451   0.742   5.210  0.8537 -0.2279  1.1392
 3298TIP3   OH231384   3.211   2.103   4.327  0.2881  0.1170 -0.4129
 3298TIP3    H131385   3.260   2.028   4.293  0.1620 -0.4965  0.7256
 3298TIP3    H231386   3.221   2.170   4.259  0.5530 -0.8590 -1.3685
 3299TIP3   OH231387   3.316   2.736   5.795 -0.2472 -0.4823 -0.5248
 3299TIP3    H131388   3.243   2.736   5.856  1.5766 -0.6585  1.7867
 3299TIP3    H231389   3.319   2.647   5.760  0.2499 -1.1813  1.1892
 3300TIP3   OH231390   5.716   1.968  12.822 -0.1606  0.0979 -0.0503
 3300TIP3    H131391   5.622   1.966  12.836 -0.3033  1.9206 -0.4706
 3300TIP3    H231392   5.751   2.006  12.903  0.1020  0.4157 -0.3094
 3301TIP3   OH231393   1.896   6.108  10.351  0.2613 -0.6414  0.1438
 3301TIP3    H131394   1.908   6.046  10.423  2.9442 -0.3558  0.0402
 3301TIP3    H231395   1.967   6.089  10.290 -0.6739  0.5362 -1.3889
 3302TIP3   OH231396   1.754   2.958  10.834 -0.1759  0.2854 -0.3735
 3302TIP3    H131397   1.825   2.969  10.771  0.5509 -0.7648  0.2542
 3302TIP3    H231398   1.708   3.042  10.832  1.7628  1.4092  0.0622
 3303TIP3   OH231399   2.542   5.819  10.480 -0.6558  0.0038 -0.3417
 3303TIP3    H131400   2.579   5.860  10.558  0.2096 -0.1169 -0.6771
 3303TIP3    H231401   2.617   5.806  10.422 -1.4463  1.0897 -1.6541
 3304TIP3   OH231402   0.504   4.757   3.400 -0.4046 -0.3669  0.6159
 3304TIP3    H131403   0.455   4.770   3.481 -0.4350 -1.4503  0.7828
 3304TIP3    H231404   0.442   4.717   3.339  0.2849 -1.9586  0.9026
 3305TIP3   OH231405   4.027   2.659   5.415 -0.2776 -0.7001  0.2507
 3305TIP3    H131406   4.090   2.729   5.434  0.7862 -1.7489  0.7112
 3305TIP3    H231407   3.947   2.687   5.458  1.1213 -1.4117  3.6225
 3306TIP3   OH231408   6.428   4.899  17.025 -0.1854 -0.6191  0.2710
 3306TIP3    H131409   6.393   4.811  17.013 -0.8983 -0.0068 -3.2179
 3306TIP3    H231410   6.516   4.885  17.060 -1.0794 -2.5555  1.9307
 3307TIP3   OH231411   2.448   3.636   2.433 -0.0854 -0.5301  0.1826
 3307TIP3    H131412   2.364   3.591   2.433  0.0874 -0.8546  0.2251
 3307TIP3    H231413   2.474   3.638   2.525  0.3340 -1.1465  0.0793
 3308TIP3   OH231414   1.425   6.199  14.643 -0.4103  0.1320  0.3628
 3308TIP3    H131415   1.393   6.136  14.579  0.0425  0.2571  0.0117
 3308TIP3    H231416   1.361   6.270  14.641  0.4269  0.8949 -1.1309
 3309TIP3   OH231417   0.463   6.695  13.515  0.0351 -0.2903  0.3671
 3309TIP3    H131418   0.467   6.606  13.551 -0.6262 -0.5627 -0.2235
 3309TIP3    H231419   0.415   6.745  13.581 -1.2830 -0.8156 -0.1614
 3310TIP3   OH231420   3.680   5.392   1.273 -0.1148  0.3111  0.2501
 3310TIP3    H131421   3.706   5.327   1.208  0.1581 -1.2643  1.8678
 3310TIP3    H231422   3.602   5.434   1.236  0.7799  0.3954 -1.6500
 3311TIP3   OH231423   0.659   1.795  14.720 -0.2741 -0.2266 -0.3588
 3311TIP3    H131424   0.631   1.859  14.786 -0.3750  0.6505 -1.2347
 3311TIP3    H231425   0.700   1.725  14.771  0.3405  0.7861  0.5915
 3312TIP3   OH231426   4.338   4.610   1.130  0.4368  0.1097 -0.4822
 3312TIP3    H131427   4.405   4.656   1.180 -0.5922  0.6615  0.4258
 3312TIP3    H231428   4.304   4.676   1.069 -0.0307  0.1569 -0.1792
 3313TIP3   OH231429   6.455   5.226   2.517 -0.5501 -0.1956  0.4877
 3313TIP3    H131430   6.463   5.259   2.606 -3.9780 -0.7279  1.1170
 3313TIP3    H231431   6.457   5.131   2.527 -3.6472 -0.3570  0.4832
 3314TIP3   OH231432   4.075   5.344  13.371  0.2694 -0.3046  0.0705
 3314TIP3    H131433   4.078   5.268  13.429 -0.8946 -1.1581 -0.9314
 3314TIP3    H231434   3.988   5.340  13.331  0.0049  1.8353  0.3373
 3315TIP3   OH231435   4.876   0.987   3.125  0.1258  0.3163 -0.4620
 3315TIP3    H131436   4.936   1.062   3.117  1.5193 -0.7902 -0.8464
 3315TIP3    H231437   4.890   0.955   3.214 -0.7308  0.7023 -0.1779
 3316TIP3   OH231438   1.618   0.082   5.450 -0.1691 -0.3994  0.1301
 3316TIP3    H131439   1.685   0.046   5.392  1.3529  0.2107  1.4224
 3316TIP3    H231440   1.577   0.006   5.491  0.0857 -0.7732 -0.3093
 3317TIP3   OH231441   5.657   5.938   4.479  0.4936  0.1295  0.6587
 3317TIP3    H131442   5.573   5.978   4.455  1.4833  0.5014 -2.5722
 3317TIP3    H231443   5.703   6.005   4.528 -0.1429  0.8238  0.3269
 3318TIP3   OH231444   1.089   0.974   1.940 -0.0918 -0.3787  0.4405
 3318TIP3    H131445   1.180   0.992   1.962  0.2399 -1.2857 -0.1200
 3318TIP3    H231446   1.062   0.907   2.003 -1.1797  1.6610  2.2401
 3319TIP3   OH231447   5.882   4.563  15.411  0.2949  0.9378  0.1687
 3319TIP3    H131448   5.880   4.475  15.373 -0.5631  0.2332  1.7423
 3319TIP3    H231449   5.975   4.578  15.430  0.5812  0.8184 -1.0366
 3320TIP3   OH231450   5.781   2.837  13.056 -0.1174  0.2854 -0.0438
 3320TIP3    H131451   5.747   2.844  13.145  0.1849  0.5232  0.0554
 3320TIP3    H231452   5.826   2.920  13.041  0.4777 -0.0483 -0.1471
 3321TIP3   OH231453   1.833   6.591  15.310 -0.5197 -0.1965 -0.4848
 3321TIP3    H131454   1.823   6.501  15.278  1.3242  0.3922 -2.9423
 3321TIP3    H231455   1.808   6.646  15.236  0.6486  1.2976  0.1825
 3322TIP3   OH231456   2.587   5.793  13.376 -0.2344  0.3446 -0.4753
 3322TIP3    H131457   2.535   5.773  13.298 -2.9039  1.4183  0.9153
 3322TIP3    H231458   2.604   5.708  13.417 -0.0050 -0.1014 -1.4683
 3323TIP3   OH231459   1.924   2.055  15.935  0.6590  0.7566 -1.1744
 3323TIP3    H131460   1.904   2.054  16.028 -0.5418  1.6845 -1.4107
 3323TIP3    H231461   1.916   1.963  15.908 -1.4415  0.7998 -0.8492
 3324TIP3   OH231462   1.609   3.905  14.420 -0.3375  0.3849 -0.0972
 3324TIP3    H131463   1.546   3.977  14.410 -0.3738  0.5264  1.0157
 3324TIP3    H231464   1.640   3.913  14.510 -1.5982 -1.9811  0.6454
 3325TIP3   OH231465   5.109   3.315  15.099 -0.8046 -0.0809 -0.1309
 3325TIP3    H131466   5.075   3.262  15.171  1.9100 -2.8826 -0.6702
 3325TIP3    H231467   5.191   3.351  15.132 -1.2623  1.5986 -0.7241
 3326TIP3   OH231468   3.124   5.979  16.217 -0.2751 -0.2624  0.4802
 3326TIP3    H131469   3.176   6.043  16.266 -0.9508 -0.1473  1.0573
 3326TIP3    H231470   3.172   5.968  16.135  0.6042 -0.0773  0.9504
 3327TIP3   OH231471   5.079   3.959  12.892  0.8289 -0.3502  0.2631
 3327TIP3    H131472   5.064   4.014  12.816  1.1252 -0.2198  0.2974
 3327TIP3    H231473   5.112   4.019  12.959  1.5048 -0.6251  0.1840
 3328TIP3   OH231474   3.351   0.356   6.236 -0.3445  0.0991  0.5920
 3328TIP3    H131475   3.355   0.419   6.164  0.1151  0.5046  0.9655
 3328TIP3    H231476   3.259   0.331   6.240  0.0140 -2.1502 -2.0239
 3329TIP3   OH231477   2.482   6.101  14.163 -0.2737 -0.4995  0.7443
 3329TIP3    H131478   2.512   6.024  14.211  1.9348  0.3493  0.8268
 3329TIP3    H231479   2.549   6.168  14.179 -1.7741  1.2455  0.1227
 3330TIP3   OH231480   2.102   0.125  12.813 -0.3395  0.0301 -0.6786
 3330TIP3    H131481   2.120   0.209  12.771 -0.9460 -0.1160 -1.2476
 3330TIP3    H231482   2.186   0.099  12.851  0.0122  0.5760 -1.0574
 3331TIP3   OH231483   4.729   4.227  11.454  0.2260 -0.0641 -0.1082
 3331TIP3    H131484   4.778   4.304  11.425  1.3236  0.4704  2.8479
 3331TIP3    H231485   4.638   4.256  11.456  0.4578  0.6969 -0.3756
 3332TIP3   OH231486   1.287   3.446  14.808  0.1658  0.4682  0.0123
 3332TIP3    H131487   1.359   3.444  14.872  1.8718  2.6935 -1.7049
 3332TIP3    H231488   1.212   3.477  14.859  0.8644 -0.0592  1.4365
 3333TIP3   OH231489   2.364   5.062   6.709 -0.4844 -0.4053 -0.6149
 3333TIP3    H131490   2.404   5.116   6.640  1.2596 -1.5103 -0.5312
 3333TIP3    H231491   2.308   5.000   6.662  1.0999 -1.4987 -1.1378
 3334TIP3   OH231492   3.997   1.400  11.397 -0.1732  0.6165 -0.3389
 3334TIP3    H131493   3.987   1.410  11.492 -2.7475 -1.8752 -0.1913
 3334TIP3    H231494   3.936   1.463  11.360 -0.9821 -0.0853 -0.2205
 3335TIP3   OH231495   2.722   2.605  11.579  0.7794 -0.0893  0.0374
 3335TIP3    H131496   2.718   2.620  11.673  1.0042 -1.8233  0.3695
 3335TIP3    H231497   2.709   2.510  11.570 -0.2507  0.1767 -1.7517
 3336TIP3   OH231498   0.189   1.335  12.924  0.3149  0.4211  0.0670
 3336TIP3    H131499   0.257   1.330  12.858 -0.5554 -0.6924 -0.7889
 3336TIP3    H231500   0.188   1.249  12.965  1.0391  1.1751  1.7773
 3337TIP3   OH231501   1.596   1.044   4.086 -0.0263  0.2339 -0.4150
 3337TIP3    H131502   1.624   1.060   3.996 -0.6232  0.7139 -0.5177
 3337TIP3    H231503   1.504   1.070   4.087 -1.0587 -2.9496 -0.5574
 3338TIP3   OH231504   0.534   0.978   4.013  0.3211  0.5947 -0.0042
 3338TIP3    H131505   0.549   0.907   3.951 -1.4173 -0.5780  0.8626
 3338TIP3    H231506   0.572   0.948   4.095 -0.2526  0.7476  0.3211
 3339TIP3   OH231507   6.032   4.368   2.914 -0.1178  0.1833  0.1033
 3339TIP3    H131508   6.093   4.412   2.974  0.0817 -0.0192  0.0489
 3339TIP3    H231509   6.040   4.275   2.936 -1.3069  0.2588  0.9397
 3340TIP3   OH231510   6.068   0.272   0.220  0.8516  0.3495  0.4796
 3340TIP3    H131511   6.088   0.189   0.263 -1.6210  0.5166  2.1609
 3340TIP3    H231512   6.037   0.328   0.291 -1.8121  1.2048 -1.2290
 3341TIP3   OH231513   2.434   4.975   3.326 -0.0786 -0.2741  0.4004
 3341TIP3    H131514   2.448   4.883   3.347 -1.2378 -0.6474 -0.3487
 3341TIP3    H231515   2.492   5.022   3.385  1.0434 -1.5076  0.3205
 3342TIP3   OH231516   1.521   4.827  11.126  0.5455  0.4758  0.3208
 3342TIP3    H131517   1.577   4.867  11.060  0.4044  0.2947  0.0890
 3342TIP3    H231518   1.432   4.849  11.098  0.4261 -0.6871 -0.2750
 3343TIP3   OH231519   5.522   5.245   1.744 -0.1218  0.8218  0.0972
 3343TIP3    H131520   5.563   5.269   1.827  0.7611  2.9033 -0.8502
 3343TIP3    H231521   5.579   5.177   1.708  0.1481  0.7241  0.7035
 3344TIP3   OH231522   0.766   5.376   5.268  0.3033  0.0185 -0.7004
 3344TIP3    H131523   0.710   5.453   5.273 -0.5175 -0.6353  1.5515
 3344TIP3    H231524   0.716   5.313   5.217 -0.1275  0.1361 -0.4296
 3345TIP3   OH231525   5.481   4.159   5.264  0.8751 -0.3265  0.0425
 3345TIP3    H131526   5.405   4.101   5.266  0.4143  0.2636 -0.0353
 3345TIP3    H231527   5.526   4.138   5.183  0.1142  0.1625 -0.5256
 3346TIP3   OH231528   4.005   5.321   4.436  0.3835 -0.0734  0.5229
 3346TIP3    H131529   3.911   5.305   4.439  0.1770  0.9573 -0.0118
 3346TIP3    H231530   4.020   5.389   4.502  0.0810  2.6636 -1.9989
 3347TIP3   OH231531   6.325   1.503  10.938 -0.1883  0.2684  0.6338
 3347TIP3    H131532   6.363   1.442  10.876 -1.5880 -0.8498  0.8033
 3347TIP3    H231533   6.358   1.475  11.023 -2.4386 -1.6796  0.9633
 3348TIP3   OH231534   4.653   4.736  15.124 -0.3460 -0.0597 -0.2563
 3348TIP3    H131535   4.601   4.800  15.076  0.0882  0.8814  0.4748
 3348TIP3    H231536   4.710   4.789  15.179 -0.4627 -1.0838  0.9025
 3349TIP3   OH231537   3.176   5.536   1.367  0.2812  0.0601  0.1202
 3349TIP3    H131538   3.257   5.491   1.391  1.0929  1.5014  0.1850
 3349TIP3    H231539   3.128   5.545   1.450 -0.0344 -0.9016  0.0620
 3350TIP3   OH231540   0.320   5.361   3.016 -0.1660 -0.1315  0.0400
 3350TIP3    H131541   0.313   5.453   3.040 -0.0201  0.0552 -0.6310
 3350TIP3    H231542   0.405   5.353   2.974  0.2605 -0.7860  0.9899
 3351TIP3   OH231543   3.271   0.182  11.547  0.6369  0.4248  0.6908
 3351TIP3    H131544   3.198   0.156  11.604  1.1503  0.3605  1.3330
 3351TIP3    H231545   3.344   0.197  11.607  1.1061  0.6665  0.0714
 3352TIP3   OH231546   3.520   1.885  15.433  0.2343  0.2870  1.2054
 3352TIP3    H131547   3.571   1.966  15.436 -1.5962  1.5384  0.5384
 3352TIP3    H231548   3.528   1.855  15.342 -0.4637  0.6904  0.9994
 3353TIP3   OH231549   5.692   0.300   1.688  0.7514  0.4299  0.0232
 3353TIP3    H131550   5.702   0.339   1.775  3.1078 -0.5299  0.2389
 3353TIP3    H231551   5.746   0.222   1.690  0.5890  0.2015 -2.2182
 3354TIP3   OH231552   4.538   6.128   6.629 -0.5660  0.0924  0.0396
 3354TIP3    H131553   4.574   6.208   6.668 -2.0978  1.6813 -1.6320
 3354TIP3    H231554   4.448   6.150   6.607 -0.8246 -1.8842 -1.1264
 3355TIP3   OH231555   6.336   0.104   4.949  0.5823  0.8320 -0.1763
 3355TIP3    H131556   6.241   0.092   4.957  0.6693  0.5320  0.5326
 3355TIP3    H231557   6.372   0.017   4.969  1.1043  1.4973  2.0327
 3356TIP3   OH231558   4.929   5.763   3.707  1.2045  0.1703  0.7066
 3356TIP3    H131559   4.878   5.729   3.634 -0.2077 -0.7106  2.0387
 3356TIP3    H231560   4.988   5.692   3.730  0.8578  0.0139  1.1248
 3357TIP3   OH231561   1.956   5.255  16.044  0.1110 -0.4657 -0.1035
 3357TIP3    H131562   1.930   5.167  16.019 -0.3173 -0.1592 -0.7683
 3357TIP3    H231563   1.882   5.289  16.094 -0.5908  0.2142 -1.5418
 3358TIP3   OH231564   6.667   1.442  10.720  0.4082 -0.2832 -0.3890
 3358TIP3    H131565   6.726   1.461  10.648  1.9549  0.0298  0.8988
 3358TIP3    H231566   6.579   1.460  10.685  1.1587  0.6079 -1.9207
 3359TIP3   OH231567   1.241   0.679  14.115  0.3499  0.1619  0.1112
 3359TIP3    H131568   1.229   0.599  14.165  1.5057  0.5284  1.0122
 3359TIP3    H231569   1.167   0.735  14.140 -1.9870 -1.5096 -2.4818
 3360TIP3   OH231570   3.175   4.733  16.607  0.4395  0.4107  0.3625
 3360TIP3    H131571   3.184   4.797  16.678 -0.9797  1.0715 -0.0181
 3360TIP3    H231572   3.087   4.747  16.574  0.3098 -1.3675 -0.1213
 3361TIP3   OH231573   6.546   0.500  15.256  0.1446  0.5592  0.1701
 3361TIP3    H131574   6.599   0.482  15.333  0.6579 -0.2815 -0.3631
 3361TIP3    H231575   6.608   0.500  15.183 -0.6217 -0.9660 -0.5393
 3362TIP3   OH231576   6.142   0.405  14.557  0.7768 -0.5870  0.0309
 3362TIP3    H131577   6.151   0.396  14.652  0.7621  0.1867  0.1117
 3362TIP3    H231578   6.167   0.495  14.539 -1.8168  0.1371 -0.3633
 3363TIP3   OH231579   2.168   0.847   0.616 -0.8443 -0.3659  0.5435
 3363TIP3    H131580   2.098   0.826   0.677 -0.9257  2.0612  1.4119
 3363TIP3    H231581   2.248   0.817   0.661 -1.1513 -1.4414  0.3931
 3364TIP3   OH231582   0.765   0.146  10.567 -0.2103  0.3824 -0.3033
 3364TIP3    H131583   0.735   0.101  10.647 -0.7287  0.4197 -0.4739
 3364TIP3    H231584   0.859   0.159  10.581 -0.4996  1.4919  0.8459
 3365TIP3   OH231585   1.745   3.959   1.923 -0.2788  0.4838  0.6260
 3365TIP3    H131586   1.695   3.971   2.004 -0.8884 -2.1992  0.7327
 3365TIP3    H231587   1.829   3.923   1.952  0.5888  2.0611  0.2065
 3366TIP3   OH231588   0.722   3.514   4.510  0.0312 -0.5479 -0.4572
 3366TIP3    H131589   0.772   3.436   4.537  0.2505  0.7293  3.3766
 3366TIP3    H231590   0.784   3.563   4.455  1.5772 -0.9561  0.8309
 3367TIP3   OH231591   2.107   3.977   2.359  0.4473  0.6157  0.1146
 3367TIP3    H131592   2.170   4.045   2.383  0.3042  1.0610 -0.7327
 3367TIP3    H231593   2.131   3.951   2.271 -0.2788  0.4675 -0.0501
 3368TIP3   OH231594   6.156   2.043   0.782 -0.2529  0.4799  0.4615
 3368TIP3    H131595   6.249   2.060   0.799 -0.0639 -0.6388  0.6274
 3368TIP3    H231596   6.139   1.958   0.824 -1.4362  0.8303  0.7280
 3369TIP3   OH231597   4.279   0.696   1.344  0.2848 -0.2090  0.0620
 3369TIP3    H131598   4.321   0.665   1.264  0.6277 -1.5010  0.7095
 3369TIP3    H231599   4.242   0.781   1.321  1.6895  0.1365 -1.0352
 3370TIP3   OH231600   6.719   2.405   5.596 -0.6398  0.1176 -0.2331
 3370TIP3    H131601   6.626   2.385   5.587 -0.7506  1.3408 -2.2671
 3370TIP3    H231602   6.759   2.371   5.516  0.7431 -0.6088  0.7134
 3371TIP3   OH231603   5.480   2.407  14.655 -0.1123  0.1764  0.1849
 3371TIP3    H131604   5.571   2.401  14.687 -0.2874  3.0419  1.6214
 3371TIP3    H231605   5.428   2.418  14.735 -1.7448 -1.1358 -0.6451
 3372TIP3   OH231606   5.931   5.670   5.357  0.1976 -0.0204  0.2278
 3372TIP3    H131607   5.911   5.743   5.299  0.5049  1.0630  1.4266
 3372TIP3    H231608   5.846   5.631   5.376  0.1627 -0.8791 -1.5118
 3373TIP3   OH231609   1.778   0.632   4.002 -0.1829  0.0652  0.3634
 3373TIP3    H131610   1.736   0.660   4.084 -0.2156  0.5483  0.1853
 3373TIP3    H231611   1.859   0.591   4.030 -1.3888 -2.1528  0.8167
 3374TIP3   OH231612   3.603   2.807  14.214 -0.2554 -0.1694 -0.7955
 3374TIP3    H131613   3.508   2.793  14.206  0.0099 -2.3336 -0.7210
 3374TIP3    H231614   3.622   2.788  14.306 -0.1150  3.1610 -0.0301
 3375TIP3   OH231615   1.372   2.150   2.954 -0.2069  0.5852  0.4229
 3375TIP3    H131616   1.371   2.061   2.989  1.4243 -0.0680 -1.0506
 3375TIP3    H231617   1.281   2.168   2.932 -0.4032 -1.2159 -0.4183
 3376TIP3   OH231618   2.619   6.706   3.751 -0.5837 -0.3322 -0.3592
 3376TIP3    H131619   2.635   6.717   3.845 -2.3388 -1.5666  0.1468
 3376TIP3    H231620   2.681   6.638   3.724 -0.9313 -0.8877  0.2114
 3377TIP3   OH231621   0.298   4.126  11.442  0.4089 -0.4704  0.1957
 3377TIP3    H131622   0.385   4.108  11.477 -0.0344  0.6250  1.9972
 3377TIP3    H231623   0.244   4.053  11.474 -0.1204  0.8195  2.4408
 3378TIP3   OH231624   1.834   3.237  13.156 -0.5415 -0.7564  0.0358
 3378TIP3    H131625   1.866   3.306  13.214 -1.8217 -0.5983  0.5803
 3378TIP3    H231626   1.771   3.281  13.099  0.2734 -1.0314 -1.1103
 3379TIP3   OH231627   2.254   3.040   1.484  0.5659  0.5427  0.4215
 3379TIP3    H131628   2.184   3.077   1.431  1.6547 -1.2369 -2.4545
 3379TIP3    H231629   2.334   3.078   1.449  1.2974 -0.1347  1.2957
 3380TIP3   OH231630   3.084   4.184   3.736 -0.0764  0.3172 -1.0827
 3380TIP3    H131631   3.102   4.264   3.785  1.1631  1.0058 -2.5778
 3380TIP3    H231632   3.105   4.113   3.797 -1.7463  1.0808  0.4617
 3381TIP3   OH231633   4.108   5.221   3.335 -0.3090  0.4933  0.2917
 3381TIP3    H131634   4.087   5.232   3.428 -2.3761 -2.2066  0.2691
 3381TIP3    H231635   4.072   5.135   3.312 -0.8023  1.4856 -3.2640
 3382TIP3   OH231636   4.656   3.087  16.159 -0.2797  0.0477  0.7781
 3382TIP3    H131637   4.631   3.143  16.085  1.0824  1.1459  1.0867
 3382TIP3    H231638   4.751   3.079  16.151 -0.3176 -1.2437  1.4508
 3383TIP3   OH231639   4.781   0.822  15.453  0.1234 -0.1376  0.2402
 3383TIP3    H131640   4.782   0.744  15.397  1.3907 -0.7628  1.0855
 3383TIP3    H231641   4.690   0.831  15.480 -0.4014 -0.1766 -1.4219
 3384TIP3   OH231642   2.445   2.765   6.117  0.6300 -0.4319  0.5600
 3384TIP3    H131643   2.366   2.728   6.078 -0.2933  0.8169  1.1694
 3384TIP3    H231644   2.474   2.699   6.180  0.2379 -1.0259  0.1297
 3385TIP3   OH231645   5.969   3.772   0.081  0.2049  0.1679 -0.2115
 3385TIP3    H131646   5.952   3.840   0.147  0.3294  1.1468 -1.1717
 3385TIP3    H231647   6.007   3.700   0.131  1.8571  1.5059  0.5685
 3386TIP3   OH231648   0.648   0.853  15.094 -0.5331 -0.1063  0.2763
 3386TIP3    H131649   0.724   0.826  15.147 -1.7718 -2.2238  1.0821
 3386TIP3    H231650   0.671   0.941  15.064  1.9549 -0.3973  1.0294
 3387TIP3   OH231651   5.806   4.650  12.031 -0.4237  0.5816 -0.0756
 3387TIP3    H131652   5.789   4.717  12.098  0.1359  0.0490  0.6139
 3387TIP3    H231653   5.780   4.568  12.072  1.6871 -0.0059  0.2375
 3388TIP3   OH231654   0.150   5.065  12.483  0.3677 -0.3400  0.0701
 3388TIP3    H131655   0.245   5.076  12.477  0.1551  2.8543  0.9450
 3388TIP3    H231656   0.138   4.982  12.529  2.8262  0.3501  2.1486
 3389TIP3   OH231657   3.718   2.668   3.631  0.0996  0.3253 -0.3026
 3389TIP3    H131658   3.791   2.625   3.587 -0.3518 -2.0435  1.0694
 3389TIP3    H231659   3.751   2.690   3.718 -0.0751  1.6832 -0.5541
 3390TIP3   OH231660   2.914   1.921   0.136  0.1799  0.0954 -0.5134
 3390TIP3    H131661   2.847   1.967   0.085  1.9094 -0.1796 -3.2067
 3390TIP3    H231662   2.865   1.855   0.186 -1.7332  1.1819 -0.8692
 3391TIP3   OH231663   3.852   2.759  16.221  0.6958 -0.0310  0.0906
 3391TIP3    H131664   3.815   2.793  16.303  0.5179  0.5203 -0.2195
 3391TIP3    H231665   3.923   2.819  16.199 -1.0701  1.5670 -1.6785
 3392TIP3   OH231666   2.692   2.038  12.007  0.0746  0.6210 -0.4020
 3392TIP3    H131667   2.638   2.004  12.079 -0.9642 -0.4606 -1.6407
 3392TIP3    H231668   2.760   2.091  12.051  0.0729 -0.7871  1.4294
 3393TIP3   OH231669   1.876   0.828  11.345 -1.3953 -0.2264  0.2430
 3393TIP3    H131670   1.936   0.860  11.413 -2.3565  0.9639  0.5678
 3393TIP3    H231671   1.900   0.736  11.334 -0.7004 -0.2491  1.6470
 3394TIP3   OH231672   3.268   3.570   5.551  0.4678  0.1260 -0.6810
 3394TIP3    H131673   3.286   3.663   5.542  2.5015 -0.3633 -2.9126
 3394TIP3    H231674   3.260   3.555   5.645 -2.3242  2.8594 -0.3270
 3395TIP3   OH231675   3.561   5.900  17.121  0.1843 -0.1362  0.2959
 3395TIP3    H131676   3.553   5.806  17.139 -0.6196 -0.3422 -1.0648
 3395TIP3    H231677   3.642   5.907  17.070  1.2981  0.1921  1.9891
 3396TIP3   OH231678   5.264   2.182   5.837  0.2753 -0.9780  0.7934
 3396TIP3    H131679   5.325   2.252   5.862  2.4125 -2.0174 -1.1145
 3396TIP3    H231680   5.201   2.179   5.908  0.5915  2.2865  1.3595
 3397TIP3   OH231681   5.629   6.436   2.603 -0.1617  0.0082  0.0263
 3397TIP3    H131682   5.716   6.417   2.637 -0.0492  1.0941  0.4024
 3397TIP3    H231683   5.639   6.435   2.508 -0.1141 -1.4465  0.0244
 3398TIP3   OH231684   1.296   0.146   3.208 -1.0018  0.5265  0.8789
 3398TIP3    H131685   1.231   0.190   3.263 -2.9169 -1.0666  0.0077
 3398TIP3    H231686   1.265   0.160   3.119 -1.5646 -2.2851  0.5517
 3399TIP3   OH231687   5.751   3.087  13.482  0.4190  0.3690 -0.0281
 3399TIP3    H131688   5.733   3.011  13.537 -2.0065  2.7498  2.7933
 3399TIP3    H231689   5.696   3.073  13.404 -0.4759 -0.4893  0.7254
 3400TIP3   OH231690   2.143   0.347   2.986  0.1507  0.4014  0.1657
 3400TIP3    H131691   2.141   0.310   2.898  0.6304  0.9930 -0.1075
 3400TIP3    H231692   2.167   0.274   3.043  0.0397  0.0617 -0.2209
 3401TIP3   OH231693   6.298   3.849   0.752  0.7004 -0.0897  0.2866
 3401TIP3    H131694   6.375   3.820   0.801  1.3451  2.1832  0.7591
 3401TIP3    H231695   6.330   3.922   0.699 -0.7954 -0.1680 -0.7771
 3402TIP3   OH231696   3.680   1.707  12.643  0.2166 -0.1530 -0.1792
 3402TIP3    H131697   3.621   1.748  12.579  0.8195  2.7003  0.9302
 3402TIP3    H231698   3.768   1.734  12.615  0.5157  0.8346  1.5673
 3403TIP3   OH231699   2.724   2.973  12.478 -0.0952 -0.1176 -0.0114
 3403TIP3    H131700   2.660   2.951  12.546 -0.3763  0.8114  0.0414
 3403TIP3    H231701   2.757   2.889  12.447 -0.6332 -0.5747  0.6444
 3404TIP3   OH231702   3.550   3.466  16.824  0.7998 -0.6839 -0.0856
 3404TIP3    H131703   3.593   3.492  16.906  0.7186 -0.9244  0.0329
 3404TIP3    H231704   3.457   3.479  16.842  0.7813 -0.7467 -0.1377
 3405TIP3   OH231705   1.768   2.766  11.683  0.2977 -0.2049  0.5075
 3405TIP3    H131706   1.863   2.770  11.697  0.4850 -2.4267  0.2240
 3405TIP3    H231707   1.748   2.842  11.629  2.0936 -0.2483 -0.2789
 3406TIP3   OH231708   3.550   0.939   5.622  0.4594  0.1024  0.2652
 3406TIP3    H131709   3.488   0.978   5.684  2.0009 -0.1762  2.0698
 3406TIP3    H231710   3.512   0.854   5.601 -1.1354  1.0331 -0.9097
 3407TIP3   OH231711   1.859   1.115  13.464 -0.8566 -0.0249  0.1821
 3407TIP3    H131712   1.780   1.062  13.453 -1.4841 -0.2050  3.9264
 3407TIP3    H231713   1.829   1.191  13.514  1.1070  0.5031  0.6218
 3408TIP3   OH231714   1.643   6.748  13.798 -0.4883 -0.0390  0.4706
 3408TIP3    H131715   1.620   6.817  13.861  0.0433  0.6783 -0.1045
 3408TIP3    H231716   1.592   6.768  13.720 -0.3603 -0.3289  0.3116
 3409TIP3   OH231717   5.971   4.621  16.573  0.1463 -0.1674 -0.0434
 3409TIP3    H131718   5.929   4.613  16.658 -0.0362 -0.2806 -0.1416
 3409TIP3    H231719   6.032   4.693  16.582 -0.2242  0.1380  0.0403
 3410TIP3   OH231720   4.910   1.166   3.650  0.3394  0.3077  0.8052
 3410TIP3    H131721   4.960   1.224   3.707 -0.1440  2.3576 -0.6930
 3410TIP3    H231722   4.823   1.206   3.646  0.5645  0.7242 -1.8930
 3411TIP3   OH231723   6.244   0.894  12.201  0.2637 -0.1795 -0.4724
 3411TIP3    H131724   6.329   0.932  12.183 -0.2492  1.9138  1.1452
 3411TIP3    H231725   6.181   0.960  12.174 -0.6689  0.2011  2.2893
 3412TIP3   OH231726   3.350   4.605   5.334 -0.3606  0.3696 -0.2555
 3412TIP3    H131727   3.299   4.579   5.410 -0.9769  0.6270 -0.5718
 3412TIP3    H231728   3.383   4.692   5.355 -1.3806  0.8710 -0.6866
 3413TIP3   OH231729   3.287   3.578   1.400 -0.3232  0.1871 -0.1779
 3413TIP3    H131730   3.222   3.639   1.365 -1.1462  0.7373  2.1679
 3413TIP3    H231731   3.247   3.491   1.386 -0.4409  0.3460 -0.9103
 3414TIP3   OH231732   1.130   2.148  13.037  0.4996  0.2516 -0.2821
 3414TIP3    H131733   1.083   2.127  13.117  0.4096  1.1245 -0.0994
 3414TIP3    H231734   1.220   2.165  13.065  0.2694  1.4557 -0.2275
 3415TIP3   OH231735   6.748   4.919  13.143  0.4140  0.2214 -0.2155
 3415TIP3    H131736   6.766   4.827  13.125  2.7735  1.1701 -3.5823
 3415TIP3    H231737   6.653   4.927  13.135  0.4209 -1.4128 -2.9603
 3416TIP3   OH231738   3.921   6.786   5.378  0.1474 -0.0974  0.0244
 3416TIP3    H131739   3.884   6.717   5.433 -0.0373 -1.7093 -2.0355
 3416TIP3    H231740   3.982   6.741   5.320  2.2780  1.9097  0.5306
 3417TIP3   OH231741   4.676   4.328   1.822 -0.0051  0.2126  0.5846
 3417TIP3    H131742   4.616   4.260   1.792  0.1221 -0.3137  1.4991
 3417TIP3    H231743   4.649   4.346   1.912  0.7251  0.5259  0.7459
 3418TIP3   OH231744   0.342   6.765   4.725 -0.4902  0.4613 -0.0199
 3418TIP3    H131745   0.325   6.671   4.717 -2.8709  0.7927  0.6542
 3418TIP3    H231746   0.386   6.788   4.643  2.7423 -1.6864  0.9037
 3419TIP3   OH231747   3.842   3.838   6.134  0.0252  0.4161 -0.3098
 3419TIP3    H131748   3.900   3.777   6.181  1.1144  0.6804 -1.2560
 3419TIP3    H231749   3.769   3.783   6.104 -0.3545  0.1175  1.0810
 3420TIP3   OH231750   1.952   0.734  16.776 -0.1771 -0.5300 -0.0375
 3420TIP3    H131751   2.005   0.753  16.853  1.3425 -1.8377 -0.7048
 3420TIP3    H231752   1.989   0.790  16.707  1.4431 -2.5132 -0.8904
 3421TIP3   OH231753   5.267   0.182  12.195  0.0370 -0.5264 -0.2582
 3421TIP3    H131754   5.305   0.228  12.270  1.5412  0.2951 -1.4752
 3421TIP3    H231755   5.342   0.153  12.144 -0.9512 -1.3306 -1.3085
 3422TIP3   OH231756   5.686   5.544  13.441 -0.3008  0.0839 -0.3894
 3422TIP3    H131757   5.714   5.589  13.361 -1.1653 -0.9618 -1.3132
 3422TIP3    H231758   5.704   5.451  13.423  0.0169 -0.1104  0.8638
 3423TIP3   OH231759   3.210   1.685   4.686 -0.0604 -0.5116  0.5379
 3423TIP3    H131760   3.290   1.709   4.733  0.0603 -0.0022  0.0779
 3423TIP3    H231761   3.148   1.659   4.755  0.0743  0.3302  0.9860
 3424TIP3   OH231762   5.853   2.532  14.145 -0.1617 -0.2704 -0.0215
 3424TIP3    H131763   5.903   2.604  14.185 -0.6552 -1.0606  2.1686
 3424TIP3    H231764   5.887   2.454  14.188 -2.5808 -0.9275  0.8306
 3425TIP3   OH231765   4.262   4.134   1.080 -0.4933 -0.1604  0.7154
 3425TIP3    H131766   4.214   4.172   1.007  1.5744  0.3505 -0.4447
 3425TIP3    H231767   4.281   4.208   1.138  0.8999  0.1010 -0.0289
 3426TIP3   OH231768   1.532   0.462  11.025 -0.3657  0.0239  0.1101
 3426TIP3    H131769   1.550   0.396  10.958 -0.9615 -0.3026  0.2656
 3426TIP3    H231770   1.468   0.521  10.983 -1.2561 -0.5607  0.6072
 3427TIP3   OH231771   2.771   4.837   2.610 -0.1963 -0.4186 -0.0302
 3427TIP3    H131772   2.684   4.871   2.632 -0.2574 -0.5834 -0.0225
 3427TIP3    H231773   2.772   4.834   2.514 -1.3321 -3.3387 -0.0511
 3428TIP3   OH231774   2.408   4.471  16.843 -0.2524  0.3010  0.3886
 3428TIP3    H131775   2.407   4.383  16.879 -1.0458 -0.5126 -1.4638
 3428TIP3    H231776   2.336   4.471  16.779 -0.6299  2.4677  0.7471
 3429TIP3   OH231777   0.826   2.394   0.324 -0.1351  0.1159 -0.7545
 3429TIP3    H131778   0.894   2.437   0.273 -1.2052  3.0691  0.0762
 3429TIP3    H231779   0.869   2.368   0.405  0.8379 -1.7277 -1.7965
 3430TIP3   OH231780   0.540   6.372  11.719  0.5010 -0.1403 -0.5558
 3430TIP3    H131781   0.595   6.328  11.654  1.5669  0.7545 -0.2813
 3430TIP3    H231782   0.480   6.304  11.749  1.6348 -1.2238 -0.6611
 3431TIP3   OH231783   2.737   3.611  11.580 -0.2665 -0.1602 -0.5253
 3431TIP3    H131784   2.701   3.633  11.667 -0.2957  1.1230 -0.8535
 3431TIP3    H231785   2.820   3.569  11.599  0.4336  1.4368  0.1118
 3432TIP3   OH231786   0.484   5.214   4.145  0.5226 -0.0520 -0.2378
 3432TIP3    H131787   0.459   5.306   4.141  0.8925  0.0107 -1.6332
 3432TIP3    H231788   0.402   5.167   4.131 -0.2368 -0.0655  3.3529
 3433TIP3   OH231789   0.451   3.076   0.442 -0.0476 -0.2495 -0.5716
 3433TIP3    H131790   0.473   2.983   0.445 -4.1201 -1.4129 -0.9406
 3433TIP3    H231791   0.487   3.112   0.524  1.6781 -2.0494 -0.4616
 3434TIP3   OH231792   2.853   2.535   5.912 -0.2713  0.2162 -0.3645
 3434TIP3    H131793   2.786   2.507   5.974  0.2657 -0.5896 -0.1250
 3434TIP3    H231794   2.823   2.619   5.879 -0.9306  0.3001  0.4431
 3435TIP3   OH231795   3.379   4.579  12.481 -0.0426 -0.1490  0.3434
 3435TIP3    H131796   3.436   4.506  12.504  0.2209  0.1570  0.6630
 3435TIP3    H231797   3.428   4.657  12.506 -0.3481  0.1382  0.0604
 3436TIP3   OH231798   2.029   3.640   1.392 -0.0840  0.9434  0.8337
 3436TIP3    H131799   1.960   3.700   1.420 -0.4678  1.4138 -0.9826
 3436TIP3    H231800   1.984   3.557   1.379 -0.7809  1.6320 -1.9680
 3437TIP3   OH231801   0.906   4.048   4.323  0.0162  0.2926  0.3726
 3437TIP3    H131802   0.846   3.992   4.372  2.1386 -0.2022  2.6057
 3437TIP3    H231803   0.901   4.133   4.367 -0.7220  0.9422 -0.9109
 3438TIP3   OH231804   5.944   1.432  14.257 -0.3985  0.2922  0.1619
 3438TIP3    H131805   5.865   1.396  14.217 -0.1836 -0.5484  0.4758
 3438TIP3    H231806   6.002   1.357  14.269  0.3327  0.8461  0.2188
 3439TIP3   OH231807   4.410   2.248   3.946  0.0822  0.0799  0.0294
 3439TIP3    H131808   4.330   2.216   3.903  0.9610 -0.4751 -1.2721
 3439TIP3    H231809   4.481   2.216   3.890  1.3077 -0.6504  1.9167
 3440TIP3   OH231810   4.052   4.589  12.098 -0.3119 -0.3730 -0.0959
 3440TIP3    H131811   4.126   4.633  12.057 -0.7883  1.1589  0.6091
 3440TIP3    H231812   3.975   4.629  12.057 -0.7733 -1.6214 -0.4985
 3441TIP3   OH231813   5.151   6.604   0.932  0.3073 -0.1367  0.3054
 3441TIP3    H131814   5.113   6.579   1.016 -0.9809 -0.1767 -0.2589
 3441TIP3    H231815   5.222   6.664   0.954  1.7723 -2.2230  1.5533
 3442TIP3   OH231816   5.108   1.472  13.877 -0.4732 -0.0451 -0.0589
 3442TIP3    H131817   5.139   1.527  13.949  0.4781  0.3233 -0.7330
 3442TIP3    H231818   5.178   1.476  13.811  0.2550 -3.0435  0.3623
 3443TIP3   OH231819   2.510   2.087  15.202 -0.6316  0.3639 -0.2187
 3443TIP3    H131820   2.463   2.113  15.281 -0.0662 -0.6176  0.4643
 3443TIP3    H231821   2.561   2.010  15.228 -3.2816 -2.3958 -2.4720
 3444TIP3   OH231822   3.271   2.803  16.553 -0.0113 -0.0480 -0.2017
 3444TIP3    H131823   3.302   2.813  16.463  0.8855 -0.6849  0.0169
 3444TIP3    H231824   3.185   2.844  16.554  0.2989  0.6602 -1.1570
 3445TIP3   OH231825   5.544   0.976   2.837 -0.0723 -0.3613 -0.3407
 3445TIP3    H131826   5.557   1.025   2.756 -2.0940  0.0520 -0.4596
 3445TIP3    H231827   5.507   1.039   2.898  0.7814 -0.8432  0.6978
 3446TIP3   OH231828   2.369   0.697  14.364 -0.7515 -0.6390  0.7360
 3446TIP3    H131829   2.393   0.604  14.371  1.2114 -0.2171  0.3242
 3446TIP3    H231830   2.420   0.740  14.433  0.3152  0.4206 -0.6578
 3447TIP3   OH231831   0.592   4.640   1.994  0.1060 -0.1868 -0.4870
 3447TIP3    H131832   0.516   4.584   1.980 -1.7752  1.5906  1.9491
 3447TIP3    H231833   0.647   4.590   2.054 -0.0425 -0.6804 -0.7552
 3448TIP3   OH231834   2.664   1.820  14.688  0.0538 -0.6456 -0.2948
 3448TIP3    H131835   2.684   1.728  14.672 -0.9030 -0.9100 -0.0642
 3448TIP3    H231836   2.690   1.865  14.607 -2.0597 -1.5519 -1.5725
 3449TIP3   OH231837   3.596   4.144  10.670 -0.4817 -0.4882 -0.2920
 3449TIP3    H131838   3.561   4.056  10.684  0.1065 -0.4921  1.3023
 3449TIP3    H231839   3.552   4.198  10.735  0.8635 -0.0600  0.2940
 3450TIP3   OH231840   5.465   0.157   4.560  0.4295  1.0104  0.3336
 3450TIP3    H131841   5.459   0.098   4.635 -1.0368 -0.5681 -0.9696
 3450TIP3    H231842   5.557   0.153   4.534  0.2994 -1.0151  0.0583
 3451TIP3   OH231843   5.086   4.534   5.323  0.0959 -0.2839  0.8723
 3451TIP3    H131844   5.113   4.445   5.346  0.1173 -0.3312  0.6660
 3451TIP3    H231845   4.990   4.531   5.327  0.0536 -0.5625 -0.0151
 3452TIP3   OH231846   4.884   1.005  14.946 -0.0796 -0.0815 -0.0524
 3452TIP3    H131847   4.862   0.943  14.877  0.7916 -2.1076  1.3724
 3452TIP3    H231848   4.901   1.087  14.900  1.8673 -1.6643 -2.4303
 3453TIP3   OH231849   1.197   1.566  15.872  1.1174  0.2805  0.0083
 3453TIP3    H131850   1.263   1.542  15.937 -0.3810  0.4206  1.6559
 3453TIP3    H231851   1.220   1.656  15.847  1.0886  0.6418  1.2101
 3454TIP3   OH231852   5.933   5.755  12.215 -0.0576 -0.0704  0.2272
 3454TIP3    H131853   5.976   5.818  12.273 -0.7382  0.5658  0.0679
 3454TIP3    H231854   5.993   5.743  12.142 -0.3447  1.1965 -0.2496
 3455TIP3   OH231855   5.098   5.928  16.471  0.1767 -0.2515 -0.5482
 3455TIP3    H131856   5.044   5.858  16.509  1.9736 -1.8185 -0.7350
 3455TIP3    H231857   5.139   5.970  16.546  0.3887 -0.5263 -0.5061
 3456TIP3   OH231858   2.376   0.293   0.877  0.3966  0.3998 -0.1964
 3456TIP3    H131859   2.283   0.278   0.892  0.4612  0.6243  0.4814
 3456TIP3    H231860   2.402   0.225   0.815 -0.4178  0.8942 -1.1084
 3457TIP3   OH231861   4.996   3.073  11.693 -0.6503  0.1590 -0.3254
 3457TIP3    H131862   5.065   3.139  11.681 -1.5173  1.1052 -0.2350
 3457TIP3    H231863   5.016   3.006  11.628  1.5227 -0.6310  1.0129
 3458TIP3   OH231864   3.681   6.248   1.953  0.1772 -0.5219  0.1646
 3458TIP3    H131865   3.637   6.331   1.931 -0.0800 -0.9834 -1.1855
 3458TIP3    H231866   3.773   6.265   1.935  0.2726 -0.2055  0.9314
 3459TIP3   OH231867   4.206   0.443  14.303 -0.4582  0.0171 -0.2965
 3459TIP3    H131868   4.114   0.431  14.280 -0.9875  2.1022  0.4776
 3459TIP3    H231869   4.241   0.354  14.310 -2.2562 -0.8111 -1.1554
 3460TIP3   OH231870   4.012   1.842   0.599  0.0460 -0.1087  0.0023
 3460TIP3    H131871   4.081   1.892   0.642 -0.9746  1.0591  0.3490
 3460TIP3    H231872   4.057   1.769   0.558  1.2962 -0.2611  1.5362
 3461TIP3   OH231873   5.637   4.049   1.399  0.4711  0.0716  0.2275
 3461TIP3    H131874   5.586   4.106   1.456  0.4569  0.7809 -0.4912
 3461TIP3    H231875   5.727   4.058   1.430  0.4051  0.1344  0.3996
 3462TIP3   OH231876   1.841   5.784  12.932  0.3553  0.6017 -0.3312
 3462TIP3    H131877   1.846   5.753  12.842  1.3337  2.5933 -1.0349
 3462TIP3    H231878   1.754   5.823  12.939  0.0414 -0.1088 -0.1989
 3463TIP3   OH231879   4.945   4.616   1.149 -0.1747 -0.2457 -0.7779
 3463TIP3    H131880   4.877   4.553   1.175  0.7187 -0.4449  1.3139
 3463TIP3    H231881   4.991   4.572   1.078 -1.1435 -0.8509 -1.0618
 3464TIP3   OH231882   6.338   0.559  12.012 -0.2358 -0.3161 -0.6233
 3464TIP3    H131883   6.284   0.579  12.089  0.8465 -1.9358  0.6455
 3464TIP3    H231884   6.422   0.602  12.031 -0.2916  0.1458 -1.4111
 3465TIP3   OH231885   6.334   0.532  12.705 -0.1933  0.1776  0.7839
 3465TIP3    H131886   6.243   0.543  12.732 -0.3031  1.6567 -0.0482
 3465TIP3    H231887   6.358   0.444  12.735 -1.4286  0.3129  2.2995
 3466TIP3   OH231888   1.867   4.834   1.515  0.2551  0.1142 -0.1459
 3466TIP3    H131889   1.821   4.802   1.438  0.4399 -0.1414 -0.1519
 3466TIP3    H231890   1.943   4.776   1.523 -0.9944 -1.3931  1.6199
 3467TIP3   OH231891   2.065   0.170   2.747 -0.6250  0.1546 -0.8258
 3467TIP3    H131892   2.128   0.107   2.712 -3.3084 -1.7551 -2.6133
 3467TIP3    H231893   2.037   0.220   2.670 -1.8948  0.3504 -0.2560
 3468TIP3   OH231894   3.465   5.488   3.263 -0.2545  0.4180 -0.7228
 3468TIP3    H131895   3.477   5.577   3.230  0.2248  0.4264 -0.5271
 3468TIP3    H231896   3.505   5.432   3.196  0.6246  0.4286 -0.2192
 3469TIP3   OH231897   6.140   0.074  13.592 -0.3360 -0.1981  0.1015
 3469TIP3    H131898   6.079   0.011  13.554  1.0912 -0.7513 -1.3860
 3469TIP3    H231899   6.227   0.036  13.576  0.5797  2.1093 -0.8692
 3470TIP3   OH231900   6.275   1.328  15.111  0.2768  0.2332 -0.5072
 3470TIP3    H131901   6.289   1.417  15.143 -0.4864  0.1274  0.1621
 3470TIP3    H231902   6.268   1.337  15.016  1.0386  0.7723 -0.5166
 3471TIP3   OH231903   3.384   4.204  13.592  1.0982 -0.7039  0.6419
 3471TIP3    H131904   3.369   4.177  13.683  0.7690 -0.7371  0.5786
 3471TIP3    H231905   3.296   4.220  13.558  1.2015 -1.0018  0.2330
 3472TIP3   OH231906   5.792   4.076   0.567 -0.0083 -0.0304  0.1469
 3472TIP3    H131907   5.769   4.045   0.480  2.2294  1.7605 -1.2008
 3472TIP3    H231908   5.888   4.071   0.570 -0.0077  0.0066  2.5224
 3473TIP3   OH231909   5.415   3.395   1.641 -0.4512 -0.4552 -0.0375
 3473TIP3    H131910   5.399   3.473   1.694 -0.6395 -0.9020  0.5735
 3473TIP3    H231911   5.473   3.341   1.694 -0.0536 -0.5947 -0.5948
 3474TIP3   OH231912   4.031   3.106   0.010  0.1709 -0.1258 -0.0116
 3474TIP3    H131913   4.126   3.114   0.016  0.2047 -0.4675 -0.0370
 3474TIP3    H231914   4.016   3.017  -0.022 -0.1123  0.5989 -2.0034
 3475TIP3   OH231915   0.322   3.285  15.503 -0.3001  0.0137 -0.3271
 3475TIP3    H131916   0.383   3.314  15.435  0.5225 -2.0557 -0.5590
 3475TIP3    H231917   0.378   3.264  15.578 -1.0347  0.6781  0.4217
 3476TIP3   OH231918   1.030   5.649   1.954  0.8384  0.6043 -0.3218
 3476TIP3    H131919   0.972   5.725   1.957  0.1268  0.1396 -1.5537
 3476TIP3    H231920   1.093   5.670   1.886  0.1935 -0.1865 -1.1884
 3477TIP3   OH231921   6.307   3.037  14.151 -0.0287 -0.0602 -0.5998
 3477TIP3    H131922   6.306   3.082  14.235 -1.7594 -2.0809  0.5542
 3477TIP3    H231923   6.397   3.005  14.142  0.4598  1.0940 -0.0748
 3478TIP3   OH231924   6.344   3.766   2.359  0.2784  0.1237 -0.1813
 3478TIP3    H131925   6.387   3.686   2.389  0.7532  0.4241 -0.0550
 3478TIP3    H231926   6.397   3.837   2.395 -0.9928  0.5277  1.0137
 3479TIP3   OH231927   4.891   4.278  15.444 -0.0367 -0.4168 -0.0121
 3479TIP3    H131928   4.942   4.349  15.406  0.8229 -0.5348  0.8687
 3479TIP3    H231929   4.806   4.282  15.399  0.3738  0.4632 -0.7414
 3480TIP3   OH231930   3.813   2.996   5.644  0.2802 -0.7654 -0.5363
 3480TIP3    H131931   3.821   2.984   5.549  0.8611 -1.2595 -0.4303
 3480TIP3    H231932   3.722   2.972   5.664 -0.0784  0.0999 -1.0699
 3481TIP3   OH231933   6.456   1.622  15.958  0.2048  0.0939 -0.1691
 3481TIP3    H131934   6.392   1.692  15.974 -1.1059 -0.8645 -0.9932
 3481TIP3    H231935   6.412   1.564  15.895  1.4711 -1.1800  0.0833
 3482TIP3   OH231936   2.648   3.075   5.628  0.5700  0.2694 -0.2109
 3482TIP3    H131937   2.677   3.069   5.719  0.5100  1.4509 -0.0958
 3482TIP3    H231938   2.579   3.009   5.620 -0.4082  1.1041  0.9979
 3483TIP3   OH231939   4.563   4.358  12.892  0.1441 -0.3992  0.7980
 3483TIP3    H131940   4.541   4.368  12.985  2.3622  0.5297  1.2695
 3483TIP3    H231941   4.599   4.442  12.867 -2.0549 -0.0218 -1.4580
 3484TIP3   OH231942   0.287   0.296  11.935 -0.2322 -0.1242  0.2233
 3484TIP3    H131943   0.315   0.374  11.887 -0.1652  0.5829  1.3549
 3484TIP3    H231944   0.210   0.265  11.888 -0.5766  0.9465  0.0526
 3485TIP3   OH231945   0.999   2.450  15.100 -0.1699 -0.1647 -0.5753
 3485TIP3    H131946   0.971   2.387  15.166 -0.5703  0.1566 -0.4342
 3485TIP3    H231947   0.931   2.517  15.101  0.5965  0.6253 -0.2369
 3486TIP3   OH231948   5.814   2.722   3.041  0.4654 -0.6081  0.2841
 3486TIP3    H131949   5.761   2.652   3.005  1.1254 -1.0861  0.2112
 3486TIP3    H231950   5.896   2.718   2.992  0.2882  0.6273 -0.1499
 3487TIP3   OH231951   2.990   4.960  15.595 -0.8656  0.0397 -0.1975
 3487TIP3    H131952   2.958   4.888  15.649 -1.2308 -0.3460 -0.9233
 3487TIP3    H231953   2.927   5.031  15.610 -0.3552  0.3213  0.7303
 3488TIP3   OH231954   1.947   2.918  15.390  0.3708  0.0093  0.7116
 3488TIP3    H131955   1.864   2.943  15.348  0.6616  1.1344  0.7657
 3488TIP3    H231956   1.938   2.824  15.407 -0.5609 -0.0554 -0.0312
 3489TIP3   OH231957   0.288   0.537  16.231 -0.3243  0.3115 -0.4410
 3489TIP3    H131958   0.344   0.579  16.297  1.2966  0.6974 -1.9901
 3489TIP3    H231959   0.209   0.591  16.229  0.2516  1.2076  0.1044
 3490TIP3   OH231960   0.314   5.029   5.157  0.0021 -0.2061  0.4771
 3490TIP3    H131961   0.358   5.071   5.083 -0.7296 -1.6777 -0.8531
 3490TIP3    H231962   0.232   5.078   5.167  0.2845  0.2482  0.5901
 3491TIP3   OH231963   0.064   2.356   1.950 -0.1366 -0.3587  0.0290
 3491TIP3    H131964   0.093   2.400   2.030  0.9245 -1.0570  0.0435
 3491TIP3    H231965   0.110   2.400   1.879 -0.4509 -0.2718 -0.1224
 3492TIP3   OH231966   5.678   4.205   3.468  0.9230 -0.3331  0.2086
 3492TIP3    H131967   5.655   4.202   3.375  0.6261 -0.5231  0.2846
 3492TIP3    H231968   5.770   4.231   3.469  0.7274  0.3970 -0.1094
 3493TIP3   OH231969   5.669   1.333   1.198  0.4333  0.5594 -0.2296
 3493TIP3    H131970   5.705   1.283   1.124  0.3120 -1.2245  0.8411
 3493TIP3    H231971   5.733   1.402   1.214  0.7464  0.6258 -1.6107
 3494TIP3   OH231972   3.785   2.095   4.665  0.1090  0.0173  0.1881
 3494TIP3    H131973   3.794   2.189   4.680  0.0670 -0.2042  1.7940
 3494TIP3    H231974   3.698   2.074   4.700  0.6033 -0.8061  0.9701
 3495TIP3   OH231975   2.199   0.428   2.495 -0.3397  0.2165 -0.3364
 3495TIP3    H131976   2.128   0.412   2.432 -0.3010 -1.6105  0.0187
 3495TIP3    H231977   2.263   0.360   2.476  1.2415  1.6743 -0.4677
 3496TIP3   OH231978   6.791   4.830   2.519 -0.2146 -0.2637 -0.3013
 3496TIP3    H131979   6.879   4.792   2.516 -0.2596 -0.6296  1.8270
 3496TIP3    H231980   6.800   4.914   2.473  0.6705 -1.2847 -2.1226
 3497TIP3   OH231981   1.434   0.771   1.721  0.1632  0.5331 -0.1992
 3497TIP3    H131982   1.443   0.717   1.642 -0.4713 -0.9498  0.7108
 3497TIP3    H231983   1.461   0.858   1.693  3.3046 -0.6399 -1.1909
 3498TIP3   OH231984   1.596   5.258  11.919  0.2968 -0.0107 -0.0740
 3498TIP3    H131985   1.631   5.170  11.935  1.5510  0.2600 -1.2221
 3498TIP3    H231986   1.515   5.243  11.871 -1.1532 -0.6379  2.3980
 3499TIP3   OH231987   0.868   6.484   4.967  0.0921  0.1495 -0.5766
 3499TIP3    H131988   0.917   6.484   5.049 -2.3485  1.6218  1.0130
 3499TIP3    H231989   0.859   6.391   4.945  1.4874 -0.2393  0.3321
 3500TIP3   OH231990   0.002   2.965  15.676  0.2678 -0.2128 -0.1496
 3500TIP3    H131991   0.045   3.047  15.701  1.3455 -0.5013 -0.9992
 3500TIP3    H231992  -0.085   2.992  15.646  0.1174  0.4639  0.8553
 3501TIP3   OH231993   3.509   4.397  10.796 -0.0411 -0.1701  0.0191
 3501TIP3    H131994   3.469   4.414  10.711  0.1017  0.3584  0.0552
 3501TIP3    H231995   3.459   4.450  10.857 -1.2679 -1.8676  0.5495
 3502TIP3   OH231996   6.362   0.663   4.456 -0.2519 -0.1705 -0.5401
 3502TIP3    H131997   6.285   0.619   4.419  0.7221 -1.8483 -0.6901
 3502TIP3    H231998   6.428   0.593   4.463  0.6182  0.7927  1.4465
 3503TIP3   OH231999   1.968   1.797   4.990  0.5507  0.1432 -0.4003
 3503TIP3    H132000   1.976   1.889   5.016 -2.6672  0.3628  0.2065
 3503TIP3    H232001   1.941   1.752   5.070 -0.2626 -0.9009 -1.2362
 3504TIP3   OH232002   0.796   5.518  15.818  0.3883 -0.8173 -0.4918
 3504TIP3    H132003   0.728   5.512  15.885 -0.8272 -2.0591 -1.7462
 3504TIP3    H232004   0.764   5.584  15.757  1.6201  0.5095  0.2346
 3505TIP3   OH232005   4.741   4.010  14.407 -0.5313  0.1923 -0.0763
 3505TIP3    H132006   4.718   3.989  14.497 -2.1211 -0.7209 -0.6537
 3505TIP3    H232007   4.658   4.005  14.359  0.5440 -1.2921 -1.9414
 3506TIP3   OH232008   4.325   1.725  14.661 -0.0659 -0.6207 -0.2001
 3506TIP3    H132009   4.268   1.730  14.585 -0.2052  1.0698 -0.0246
 3506TIP3    H232010   4.413   1.743  14.626 -0.0293 -0.5458 -0.0707
 3507TIP3   OH232011   3.374   3.710   3.613  0.3192  0.2882  0.1624
 3507TIP3    H132012   3.335   3.656   3.544 -0.0341 -0.5215  0.9816
 3507TIP3    H232013   3.417   3.648   3.671  1.2176  1.0185  0.3112
 3508TIP3   OH232014   5.269   5.441  13.978 -0.2694  0.6515 -0.5126
 3508TIP3    H132015   5.278   5.383  13.903 -1.6217  1.8683 -1.6898
 3508TIP3    H232016   5.333   5.409  14.041 -0.6512 -1.8388 -1.2531
 3509TIP3   OH232017   5.160   2.609  15.419  0.3611 -0.2256 -0.1214
 3509TIP3    H132018   5.193   2.575  15.503 -2.2286  2.5042  2.2012
 3509TIP3    H232019   5.076   2.565  15.407  0.9096 -0.9413 -1.6596
 3510TIP3   OH232020   5.075   6.350   1.823  0.7111  1.2220 -0.0448
 3510TIP3    H132021   5.054   6.413   1.754 -1.0974  0.8415  0.1063
 3510TIP3    H232022   5.061   6.399   1.904 -1.7342  0.4138  0.0990
 3511TIP3   OH232023   6.174   0.567   3.093 -0.4476 -0.1697 -0.7680
 3511TIP3    H132024   6.098   0.607   3.051 -0.2422 -0.6858 -1.6479
 3511TIP3    H232025   6.235   0.550   3.022 -0.2671 -1.4560 -0.3245
 3512TIP3   OH232026   5.884   3.004   2.972 -0.7122  0.1002  0.1545
 3512TIP3    H132027   5.801   2.967   3.003 -0.2610 -2.4981 -1.5198
 3512TIP3    H232028   5.940   2.929   2.955  0.4353  1.4857 -3.0297
 3513TIP3   OH232029   6.045   3.216  14.354  0.7511 -0.2656  0.0120
 3513TIP3    H132030   6.029   3.165  14.274  1.0300  1.5832 -1.2939
 3513TIP3    H232031   6.138   3.236  14.352  0.4328  1.3442 -0.2164
 3514TIP3   OH232032   4.784   2.535  16.750  0.1564  0.7147 -0.0358
 3514TIP3    H132033   4.750   2.487  16.826 -0.1482 -0.4372 -0.8759
 3514TIP3    H232034   4.851   2.478  16.714 -1.1512  0.2505 -1.8535
 3515TIP3   OH232035   3.372   0.477   0.947 -0.0520 -0.0990  0.3753
 3515TIP3    H132036   3.327   0.430   0.877 -1.2526  0.1212  0.9752
 3515TIP3    H232037   3.426   0.542   0.902  1.4154 -1.8187 -0.4601
 3516TIP3   OH232038   0.514   1.409  17.098 -0.3842  0.3600  0.4022
 3516TIP3    H132039   0.432   1.422  17.146 -0.3960  0.0091  0.4823
 3516TIP3    H232040   0.576   1.470  17.139 -0.1775 -0.5012  1.4036
 3517TIP3   OH232041   1.388   4.092  15.136 -0.2185 -0.7883 -0.4082
 3517TIP3    H132042   1.331   4.026  15.175 -1.3109 -0.1630 -0.9106
 3517TIP3    H232043   1.432   4.046  15.065 -1.1249 -0.9435 -0.8865
 3518TIP3   OH232044   2.337   6.766   0.072  0.0898  0.1825 -0.0123
 3518TIP3    H132045   2.417   6.815   0.089 -0.0998  0.4845  0.0253
 3518TIP3    H232046   2.282   6.784   0.148 -0.3931  0.7641 -0.4877
 3519TIP3   OH232047   4.462   1.913  14.319  0.2059 -0.4600  0.3305
 3519TIP3    H132048   4.385   1.959  14.285  0.1099 -1.7688 -1.3146
 3519TIP3    H232049   4.527   1.921  14.250  1.4230  0.1755  1.4885
 3520TIP3   OH232050   3.041   2.296   2.818  0.6835  0.4245  0.3385
 3520TIP3    H132051   3.090   2.361   2.869  2.0811  0.8015 -1.4130
 3520TIP3    H232052   3.105   2.229   2.796 -0.4504 -0.9448  1.0197
 3521TIP3   OH232053   2.557   6.577   5.345  0.3014  0.1015 -0.2827
 3521TIP3    H132054   2.587   6.657   5.388 -0.4977  0.2073  0.0985
 3521TIP3    H232055   2.567   6.509   5.411 -0.5418  0.1916 -0.0398
 3522TIP3   OH232056   6.665   6.616  12.074 -0.1168 -0.2970 -0.4498
 3522TIP3    H132057   6.613   6.663  12.008 -0.2309 -1.0472 -0.8972
 3522TIP3    H232058   6.748   6.663  12.077 -0.6898  0.7285  0.0507
 3523TIP3   OH232059   2.195   6.014  11.119  0.2920 -0.6366  0.0493
 3523TIP3    H132060   2.171   6.094  11.164 -1.0238 -1.0176  0.0609
 3523TIP3    H232061   2.253   5.969  11.180 -0.3423 -0.4902  0.7802
 3524TIP3   OH232062   0.583   2.439   1.701 -0.2810 -0.3534  0.5492
 3524TIP3    H132063   0.557   2.458   1.791 -0.0252  2.5324  0.0914
 3524TIP3    H232064   0.501   2.428   1.654 -0.4182 -2.5779  1.1858
 3525TIP3   OH232065   4.134   0.977   0.414  0.2786  0.5587  0.2969
 3525TIP3    H132066   4.149   1.035   0.488  0.4582 -0.1024  0.7863
 3525TIP3    H232067   4.153   0.889   0.447  0.9213  0.3032 -0.6839
 3526TIP3   OH232068   3.654   4.840   0.290 -0.5652 -0.5100  0.0326
 3526TIP3    H132069   3.677   4.830   0.198  0.6065 -0.8697  0.3408
 3526TIP3    H232070   3.722   4.792   0.337  0.4331  1.8646  1.2022
 3527TIP3   OH232071   4.517   5.697  16.459  0.4675  0.0470 -0.5162
 3527TIP3    H132072   4.466   5.773  16.488  0.7186  0.4483 -1.1203
 3527TIP3    H232073   4.587   5.689  16.524 -0.4407 -0.6117  0.4230
 3528TIP3   OH232074   2.749   0.549   4.292 -0.3955  0.3229  0.7148
 3528TIP3    H132075   2.782   0.536   4.203 -2.0513 -0.4017  0.1606
 3528TIP3    H232076   2.815   0.508   4.348  0.3709  0.2391 -0.2185
 3529TIP3   OH232077   2.396   2.810  14.571  0.1611  0.3055  0.0223
 3529TIP3    H132078   2.340   2.733  14.560  1.2839 -0.8722  1.9616
 3529TIP3    H232079   2.485   2.775  14.575  0.6618  1.6255  1.4868
 3530TIP3   OH232080   2.661   2.091  14.015 -0.2530  0.2110  0.2153
 3530TIP3    H132081   2.739   2.071  14.066 -0.1159 -1.5486 -0.6357
 3530TIP3    H232082   2.691   2.093  13.924 -1.2014 -0.5777 -0.1324
 3531TIP3   OH232083   6.199   6.814  12.750 -0.0398 -0.4312  0.4203
 3531TIP3    H132084   6.258   6.889  12.751 -0.1390 -0.3479  0.0925
 3531TIP3    H232085   6.168   6.807  12.840 -1.2613  0.9077  0.1502
 3532TIP3   OH232086   1.692   6.235  13.891  0.9303  0.1683 -0.2931
 3532TIP3    H132087   1.669   6.285  13.812 -2.7279  2.6996  2.0453
 3532TIP3    H232088   1.709   6.302  13.957 -0.4284 -1.6876  2.0903
 3533TIP3   OH232089   1.507   3.335   1.144 -0.0369  0.6155  0.4697
 3533TIP3    H132090   1.426   3.286   1.154 -0.4522  1.3438  0.8040
 3533TIP3    H232091   1.525   3.333   1.050  0.6134 -1.1809  0.6032
 3534TIP3   OH232092   6.234   2.882   5.442  0.3966  0.0580  0.0083
 3534TIP3    H132093   6.180   2.918   5.372  0.0718  0.9658  0.7067
 3534TIP3    H232094   6.174   2.829   5.495  0.5075 -0.1278 -0.0506
 3535TIP3   OH232095   3.972   6.615  12.977 -0.3157 -0.5769 -0.2113
 3535TIP3    H132096   4.043   6.677  12.960  0.1084 -1.1754 -0.6780
 3535TIP3    H232097   3.892   6.663  12.953  0.0474 -0.3820 -1.0646
 3536TIP3   OH232098   4.671   4.070   4.465  0.2415 -0.5870 -0.1791
 3536TIP3    H132099   4.667   4.078   4.561  0.1368 -0.0613 -0.2209
 3536TIP3    H232100   4.590   4.024   4.442 -1.1932  1.7736 -0.2294
 3537TIP3   OH232101   2.518   2.634  14.876 -0.3352 -0.3366  0.4268
 3537TIP3    H132102   2.499   2.658  14.967 -1.4505 -0.7944  0.3291
 3537TIP3    H232103   2.566   2.709  14.841 -0.1274 -0.0422  1.3161
 3538TIP3   OH232104   0.830   6.685  14.325 -0.4962 -0.0096  0.0620
 3538TIP3    H132105   0.822   6.608  14.270 -0.9400  0.5069 -0.6021
 3538TIP3    H232106   0.761   6.744  14.295 -1.0690  0.0893  1.4959
 3539TIP3   OH232107   0.968   4.814  16.613 -0.5862 -0.6434  0.0153
 3539TIP3    H132108   0.902   4.802  16.681  0.7113  1.1526  1.7015
 3539TIP3    H232109   0.944   4.897  16.572  1.0512  0.4912  1.2481
 3540TIP3   OH232110   4.130   5.595   5.818  0.8485 -0.3347 -0.5180
 3540TIP3    H132111   4.061   5.652   5.783 -0.4095 -1.0248  0.7421
 3540TIP3    H232112   4.211   5.628   5.777 -0.2126  0.4292 -2.1247
 3541TIP3   OH232113   6.103   3.984  13.836  0.7435  0.3978 -0.0639
 3541TIP3    H132114   6.038   3.920  13.809 -0.7875  1.3762  1.1110
 3541TIP3    H232115   6.106   3.978  13.931  2.6011  0.2105 -0.0914
 3542TIP3   OH232116   5.324   2.422   0.700  0.2085  0.0530  0.1206
 3542TIP3    H132117   5.332   2.495   0.762  1.0634 -0.5985  0.7995
 3542TIP3    H232118   5.281   2.461   0.624  0.1902  1.1499  0.6643
 3543TIP3   OH232119   1.911   6.798   6.832 -0.1654 -0.2391 -0.4771
 3543TIP3    H132120   1.969   6.749   6.773 -0.6632 -1.9395  0.3831
 3543TIP3    H232121   1.957   6.799   6.916 -0.8492 -0.5548 -0.0949
 3544TIP3   OH232122   3.220   4.300   1.445  0.6732  0.0480 -0.3262
 3544TIP3    H132123   3.136   4.300   1.398 -0.8804 -1.3454  2.2235
 3544TIP3    H232124   3.230   4.390   1.475 -0.5601 -0.0220  0.3512
 3545TIP3   OH232125   2.433   0.727  12.992 -0.0321 -0.2225 -0.2082
 3545TIP3    H132126   2.510   0.779  12.974  0.0650  0.1313  1.1206
 3545TIP3    H232127   2.401   0.759  13.077 -1.5540 -0.4505 -0.6568
 3546TIP3   OH232128   0.208   3.856  15.228  0.3565 -0.0538 -0.2835
 3546TIP3    H132129   0.201   3.840  15.134 -0.8385 -4.1029  0.3358
 3546TIP3    H232130   0.120   3.883  15.255  0.4577  0.1559 -0.1576
 3547TIP3   OH232131   6.799   4.775   3.189 -0.4073  0.3353 -0.2305
 3547TIP3    H132132   6.865   4.825   3.140  0.0210  1.1191  1.0712
 3547TIP3    H232133   6.747   4.731   3.122 -0.0729  1.6334 -1.3921
 3548TIP3   OH232134   3.489   0.374   4.612 -0.0196 -0.3195  0.5277
 3548TIP3    H132135   3.441   0.291   4.613  1.4941 -1.2197  0.6783
 3548TIP3    H232136   3.570   0.356   4.660 -1.3769  2.3302  4.3717
 3549TIP3   OH232137   3.735   6.692  14.960  0.0084  0.3616 -0.3383
 3549TIP3    H132138   3.707   6.607  14.924  0.7887  0.4763 -1.2711
 3549TIP3    H232139   3.664   6.718  15.018 -0.5428 -0.6269 -0.5419
 3550TIP3   OH232140   2.919   1.207  16.893  0.1003  0.2435  0.0215
 3550TIP3    H132141   3.001   1.253  16.878  1.0387 -1.0251  0.9593
 3550TIP3    H232142   2.946   1.118  16.917 -1.6152 -0.9192 -1.9961
 3551TIP3   OH232143   3.497   5.859   3.654  0.2191 -0.4943  0.1652
 3551TIP3    H132144   3.494   5.841   3.560  0.5515 -0.4331  0.1405
 3551TIP3    H232145   3.466   5.949   3.663  3.3418  0.7599 -0.2596
 3552TIP3   OH232146   6.797   2.071  13.828  0.6988  0.3475 -0.5147
 3552TIP3    H132147   6.758   2.151  13.793 -0.8548 -0.3700 -0.5258
 3552TIP3    H232148   6.735   2.041  13.895  1.8902 -0.1657  0.4052
 3553TIP3   OH232149   5.229   6.236   5.064  0.1599  0.5004  0.0340
 3553TIP3    H132150   5.253   6.276   5.147  1.3054  0.8455 -0.4427
 3553TIP3    H232151   5.311   6.230   5.015 -0.6413  1.2709 -1.4872
 3554TIP3   OH232152   6.829   4.517   3.254  0.2661  0.2845 -0.1216
 3554TIP3    H132153   6.839   4.605   3.216 -0.0500 -0.3259 -1.6903
 3554TIP3    H232154   6.742   4.518   3.294 -0.1353  0.4048 -0.9709
 3555TIP3   OH232155   4.102   0.222  15.004 -1.1737  0.3188 -0.6696
 3555TIP3    H132156   4.031   0.170  14.968 -1.0775  0.4294 -1.0236
 3555TIP3    H232157   4.153   0.161  15.057 -1.5247  0.2377 -0.4229
 3556TIP3   OH232158   2.671   2.175  13.413 -0.0668 -0.5763  0.0546
 3556TIP3    H132159   2.663   2.142  13.502 -3.1544  0.2250  0.1953
 3556TIP3    H232160   2.705   2.101  13.363  1.9222 -0.9776  1.8607
 3557TIP3   OH232161   4.031   0.570   3.730  0.0124  0.5966  0.8131
 3557TIP3    H132162   4.069   0.526   3.654 -0.9492  2.0962 -0.6113
 3557TIP3    H232163   4.105   0.589   3.787  0.8875  0.1754 -0.1543
 3558TIP3   OH232164   2.563   4.549  16.080 -0.5757  0.5424 -0.1261
 3558TIP3    H132165   2.574   4.559  16.174 -1.4058  1.4233 -0.1127
 3558TIP3    H232166   2.519   4.629  16.052 -3.2142 -1.0453 -0.7919
 3559TIP3   OH232167   4.977   0.104   5.289  0.0409  0.6415 -0.1228
 3559TIP3    H132168   4.970   0.155   5.208  1.8743  0.2750 -0.5672
 3559TIP3    H232169   4.964   0.168   5.359  1.7076  1.6589 -0.6811
 3560TIP3   OH232170   4.874   2.025   5.326 -1.1981 -0.3654 -0.1702
 3560TIP3    H132171   4.959   2.068   5.316 -0.3533 -1.6522  1.1242
 3560TIP3    H232172   4.852   1.995   5.238 -0.3143 -0.0272 -0.5250
 3561TIP3   OH232173   4.787   0.783  11.132  0.2997 -0.2411 -0.7479
 3561TIP3    H132174   4.856   0.722  11.158 -0.6573 -0.9152  0.2825
 3561TIP3    H232175   4.709   0.728  11.120  0.1278  0.3758 -2.8187
 3562TIP3   OH232176   4.991   3.936  11.684  0.2699  0.8787  0.1084
 3562TIP3    H132177   5.024   3.853  11.650  0.5111  1.0191 -0.0055
 3562TIP3    H232178   5.033   3.945  11.769  1.0861  1.3897 -0.3292
 3563TIP3   OH232179   4.845   6.687  12.736  0.7460  0.2935 -0.3597
 3563TIP3    H132180   4.851   6.725  12.649  0.0185  0.7825 -0.2004
 3563TIP3    H232181   4.903   6.740  12.790  1.2462 -0.0483 -0.5472
 3564TIP3   OH232182   6.145   2.151  11.104  0.5393  0.0092  0.1057
 3564TIP3    H132183   6.160   2.057  11.098  0.3063  0.0337 -1.5070
 3564TIP3    H232184   6.158   2.172  11.196  0.3201 -1.6400  0.5486
 3565TIP3   OH232185   5.479   1.818   4.694 -0.1568 -0.0866  0.5112
 3565TIP3    H132186   5.448   1.838   4.783  0.9736 -0.9575  1.1308
 3565TIP3    H232187   5.484   1.903   4.651  1.3852  0.6394  2.0034
 3566TIP3   OH232188   0.059   2.341  15.147  0.0759  0.5236 -0.5131
 3566TIP3    H132189  -0.029   2.377  15.154 -1.1851 -2.2141 -1.1499
 3566TIP3    H232190   0.100   2.360  15.232 -1.7827  0.2322  0.4829
 3567TIP3   OH232191   2.552   4.429   2.014 -0.7613 -0.5351  0.3956
 3567TIP3    H132192   2.524   4.420   1.923 -2.1842 -1.3346  0.8797
 3567TIP3    H232193   2.553   4.339   2.047 -0.9974 -0.1832  1.3756
 3568TIP3   OH232194   3.371   1.039   0.715  0.6978  0.5630  0.1160
 3568TIP3    H132195   3.323   1.122   0.720  0.9916  0.6949  0.9283
 3568TIP3    H232196   3.308   0.973   0.745  0.3527  0.4308 -0.8585
 3569TIP3   OH232197   4.954   0.036  14.549  0.6444  0.0294 -0.2491
 3569TIP3    H132198   5.046   0.064  14.550  1.1555 -1.4888 -0.8513
 3569TIP3    H232199   4.939  -0.002  14.636  0.9837 -0.8526 -0.5656
 3570TIP3   OH232200   2.077   2.749   0.645 -0.7856  0.2004  0.4603
 3570TIP3    H132201   2.043   2.798   0.720  0.4903 -0.9071  1.8146
 3570TIP3    H232202   2.066   2.809   0.571 -2.1106  1.3134  1.4984
 3571TIP3   OH232203   0.325   4.864  13.904  0.8758 -0.2548 -0.0045
 3571TIP3    H132204   0.293   4.920  13.834  0.9231  1.3968  1.2537
 3571TIP3    H232205   0.405   4.825  13.868  0.8884  0.5355 -0.8768
 3572TIP3   OH232206   2.288   4.247   0.999  0.3713  0.0627 -0.3173
 3572TIP3    H132207   2.257   4.272   0.912  1.6945  0.7835 -0.6080
 3572TIP3    H232208   2.313   4.330   1.041  2.5420 -0.4973 -0.3810
 3573TIP3   OH232209   4.496   6.149   2.333  0.7744 -0.1979  0.2663
 3573TIP3    H132210   4.410   6.164   2.372  0.4704 -0.0606 -0.4452
 3573TIP3    H232211   4.499   6.054   2.319  0.5714 -0.1557 -0.0788
 3574TIP3   OH232212   3.583   5.537  15.878 -0.4065  0.1031 -0.2700
 3574TIP3    H132213   3.638   5.474  15.832 -1.7321  0.0341 -1.8688
 3574TIP3    H232214   3.545   5.590  15.808 -1.3503  0.9851  0.8743
 3575TIP3   OH232215   5.685   1.471  16.311 -0.3173 -0.2217 -1.0175
 3575TIP3    H132216   5.777   1.479  16.339 -0.8387  0.6488  0.6224
 3575TIP3    H232217   5.637   1.456  16.393 -1.5998 -1.1961 -1.9073
 3576TIP3   OH232218   4.730   3.863  16.328  0.1523 -0.5740 -0.0804
 3576TIP3    H132219   4.646   3.848  16.373  0.1533  0.8853  0.4560
 3576TIP3    H232220   4.743   3.784  16.275 -2.7887  0.1576 -2.1406
 3577TIP3   OH232221   3.273   4.546   1.177 -1.0073 -0.0248 -0.2480
 3577TIP3    H132222   3.222   4.566   1.099 -4.0475  0.4887  1.7087
 3577TIP3    H232223   3.354   4.508   1.143 -1.4620  1.6327 -3.6462
 3578TIP3   OH232224   4.132   2.197  11.363  0.2148 -0.0659 -0.4995
 3578TIP3    H132225   4.207   2.137  11.365 -0.3190 -0.8753 -2.6941
 3578TIP3    H232226   4.150   2.258  11.292 -0.6295  0.5405 -0.2213
 3579TIP3   OH232227   6.484   3.103   3.029  0.5369 -0.1212 -0.2469
 3579TIP3    H132228   6.507   3.189   3.064  0.6251 -0.0987 -0.3586
 3579TIP3    H232229   6.389   3.105   3.020  0.3269 -0.6928  1.4876
 3580TIP3   OH232230   0.196   4.385  12.540 -0.2083 -0.7500  0.4345
 3580TIP3    H132231   0.174   4.478  12.531 -1.7300 -0.9877  1.3749
 3580TIP3    H232232   0.142   4.355  12.613  0.0638 -2.4365 -0.0305
 3581TIP3   OH232233   4.858   2.249  11.446 -0.2320 -0.3326  0.5048
 3581TIP3    H132234   4.784   2.214  11.495 -1.8281 -1.1132 -2.2367
 3581TIP3    H232235   4.842   2.343  11.442 -1.6248 -0.5837 -0.7723
 3582TIP3   OH232236   4.358   6.561   0.065  0.0129  0.1604  0.4209
 3582TIP3    H132237   4.272   6.562   0.023 -0.8680 -2.0195  1.9890
 3582TIP3    H232238   4.341   6.527   0.153  2.6846 -2.1054  0.1835
 3583TIP3   OH232239   6.246   5.439   1.435  0.2783  0.3501  0.1760
 3583TIP3    H132240   6.213   5.529   1.438  0.6211  0.5856 -1.7241
 3583TIP3    H232241   6.338   5.446   1.462  1.1805  1.1171 -2.7482
 3584TIP3   OH232242   0.534   5.409   0.892  0.3911 -1.1219  0.0961
 3584TIP3    H132243   0.545   5.334   0.951  2.1405 -0.7774  0.2647
 3584TIP3    H232244   0.622   5.426   0.858  0.5444  2.2430  1.7587
 3585TIP3   OH232245   5.774   6.489   4.939 -0.1675  0.3283 -0.5880
 3585TIP3    H132246   5.699   6.462   4.992  0.8273 -0.2134  0.6072
 3585TIP3    H232247   5.789   6.580   4.963  0.1782  0.1323 -0.0158
 3586TIP3   OH232248   2.121   0.282   4.916  0.0019  0.2052 -0.3477
 3586TIP3    H132249   2.164   0.284   4.830  0.2028  0.7959 -0.2378
 3586TIP3    H232250   2.050   0.219   4.905  0.4962 -0.2943 -0.7227
 3587TIP3   OH232251   2.594   2.767  15.300 -0.2354 -0.2333 -0.1688
 3587TIP3    H132252   2.552   2.682  15.314  2.4670 -1.7399 -0.5308
 3587TIP3    H232253   2.557   2.799  15.218 -0.1821 -1.8343 -0.8475
 3588TIP3   OH232254   0.744   1.045   2.848 -0.4995  0.1243 -0.3964
 3588TIP3    H132255   0.714   1.053   2.757 -1.2850 -1.2506 -0.2927
 3588TIP3    H232256   0.774   0.955   2.855 -1.7487 -0.2278  1.0528
 3589TIP3   OH232257   2.564   3.236  13.819  0.1049  0.3726 -0.2154
 3589TIP3    H132258   2.509   3.214  13.894 -0.0217 -1.3928 -0.7815
 3589TIP3    H232259   2.521   3.312  13.779 -0.1498  0.9621  1.1415
 3590TIP3   OH232260   3.764   0.751  11.623  0.1464 -0.6427  0.3295
 3590TIP3    H132261   3.720   0.793  11.550  2.1506 -0.5505 -0.8947
 3590TIP3    H232262   3.790   0.824  11.680 -0.9603 -0.6749  0.8961
 3591TIP3   OH232263   5.676   4.722  13.115 -0.5995 -0.6752 -0.0201
 3591TIP3    H132264   5.683   4.817  13.129  0.7222 -0.7597  0.0122
 3591TIP3    H232265   5.692   4.684  13.202 -1.2991 -0.9250  0.0009
 3592TIP3   OH232266   1.860   3.243   2.311  0.4181 -0.5399  0.1809
 3592TIP3    H132267   1.950   3.274   2.321  0.8851 -1.5498 -0.6853
 3592TIP3    H232268   1.863   3.153   2.343 -0.1144 -0.8208 -0.5460
 3593TIP3   OH232269   3.426   2.621   1.522 -0.1947 -0.1844 -0.3945
 3593TIP3    H132270   3.409   2.708   1.559  1.1133 -0.5108  1.0473
 3593TIP3    H232271   3.377   2.561   1.578 -1.4601 -0.3838 -1.6540
 3594TIP3   OH232272   5.689   0.894   3.707  0.4280 -0.6797  0.5847
 3594TIP3    H132273   5.705   0.812   3.753 -2.1921 -0.8209  1.3975
 3594TIP3    H232274   5.663   0.956   3.775  0.2968  0.2448 -0.2681
 3595TIP3   OH232275   3.907   3.244   1.833 -0.1648  0.1287 -0.0620
 3595TIP3    H132276   4.000   3.222   1.837 -0.5542 -1.6089  0.0297
 3595TIP3    H232277   3.891   3.294   1.913  0.4945 -0.3777  0.4018
 3596TIP3   OH232278   6.261   5.017  15.198 -0.0769 -0.0261  0.6312
 3596TIP3    H132279   6.246   5.041  15.106  1.7253  0.6133  0.4766
 3596TIP3    H232280   6.177   4.981  15.227 -1.1243  1.1174 -0.8374
 3597TIP3   OH232281   5.048   4.753   0.714 -0.6881 -0.0446  0.4741
 3597TIP3    H132282   4.965   4.790   0.743  0.3440  0.8915  2.4286
 3597TIP3    H232283   5.076   4.809   0.641 -1.6274 -0.2193 -0.0314
 3598TIP3   OH232284   6.420   1.769   2.582 -0.6695 -0.5474 -1.1618
 3598TIP3    H132285   6.336   1.732   2.608  0.1483 -0.3094  2.2090
 3598TIP3    H232286   6.416   1.860   2.611  1.3761 -1.0111  0.7708
 3599TIP3   OH232287   3.090   1.685   0.711 -0.1697 -0.8929 -0.6231
 3599TIP3    H132288   3.149   1.632   0.656 -1.6860 -2.0987 -1.1516
 3599TIP3    H232289   3.047   1.621   0.768  0.0165  0.1346  0.7122
 3600TIP3   OH232290   5.003   5.982  12.480  0.5283 -0.4300  0.9289
 3600TIP3    H132291   4.957   6.007  12.400  0.2753  0.0319  1.2140
 3600TIP3    H232292   5.093   6.013  12.467 -0.0552  1.8119  1.7770
 3601TIP3   OH232293   2.677   1.455  12.401 -0.0786 -0.5358 -0.0812
 3601TIP3    H132294   2.662   1.401  12.479 -1.9687 -2.5013 -1.6835
 3601TIP3    H232295   2.598   1.509  12.394 -0.2765 -0.9347 -1.0434
 3602TIP3   OH232296   1.109   1.341   4.750  0.0784 -0.0396  0.3168
 3602TIP3    H132297   1.080   1.315   4.837 -0.8557  0.1056  0.0637
 3602TIP3    H232298   1.058   1.286   4.691 -0.6057  1.0977 -0.1789
 3603TIP3   OH232299   0.668   2.178   1.925  0.2738 -0.1648 -0.0812
 3603TIP3    H132300   0.590   2.232   1.915  1.0017  1.0738  0.6614
 3603TIP3    H232301   0.736   2.239   1.951  1.8435 -1.0020 -1.9887
 3604TIP3   OH232302   0.905   6.094  14.763  0.8678  0.3309  0.1850
 3604TIP3    H132303   0.839   6.032  14.792  0.1927  0.9062 -0.0791
 3604TIP3    H232304   0.931   6.141  14.842  0.1848  0.8175  0.1283
 3605TIP3   OH232305   1.615   1.790   4.331 -0.0093 -0.2531  0.1822
 3605TIP3    H132306   1.544   1.850   4.308  0.7737  0.1048 -1.4779
 3605TIP3    H232307   1.694   1.844   4.329  0.4943 -0.9628  0.4889
 3606TIP3   OH232308   3.476   1.993  11.797  1.0847  0.1520 -0.2999
 3606TIP3    H132309   3.521   2.074  11.822  0.2137  1.1640 -1.8493
 3606TIP3    H232310   3.530   1.955  11.728  1.4128 -0.5206  0.3198
 3607TIP3   OH232311   0.783   0.454   2.199 -0.0160 -0.5914  0.6954
 3607TIP3    H132312   0.778   0.540   2.240  1.4572  0.6390 -1.5431
 3607TIP3    H232313   0.726   0.460   2.123  2.9132 -0.1695 -1.6587
 3608TIP3   OH232314   1.213   5.048  15.971  0.2997  0.1630 -0.4281
 3608TIP3    H132315   1.271   5.124  15.977 -1.5355  1.5235  1.7617
 3608TIP3    H232316   1.263   4.976  16.010  2.3018 -0.0242 -3.0956
 3609TIP3   OH232317   4.653   5.710   2.211 -0.1995 -0.1973  0.2834
 3609TIP3    H132318   4.673   5.780   2.150  2.5582  0.1878  1.4688
 3609TIP3    H232319   4.736   5.693   2.256 -1.8584 -1.0467  3.3011
 3610TIP3   OH232320   5.476   5.312   2.456 -0.2608  0.3450 -0.2364
 3610TIP3    H132321   5.532   5.386   2.432 -0.3853 -0.2739 -2.6799
 3610TIP3    H232322   5.520   5.236   2.418 -1.1963 -0.5772  0.4702
 3611TIP3   OH232323   4.971   0.987   2.002 -0.5883  0.2827 -0.3629
 3611TIP3    H132324   5.066   1.000   2.014 -0.3034 -0.2058 -1.8301
 3611TIP3    H232325   4.935   1.076   2.005 -0.6090  0.2874  3.6051
 3612TIP3   OH232326   6.803   1.301   0.349  0.6289  0.3711 -0.0275
 3612TIP3    H132327   6.870   1.241   0.315  1.7221  0.9195  1.0655
 3612TIP3    H232328   6.721   1.252   0.343  1.1194 -0.3330 -1.3772
 3613TIP3   OH232329   6.200   1.163   4.544  0.2378 -0.5153 -0.2416
 3613TIP3    H132330   6.182   1.237   4.602 -0.0737 -1.5887  1.0936
 3613TIP3    H232331   6.292   1.173   4.520  0.1608  0.3762 -0.2177
 3614TIP3   OH232332   0.410   5.054   2.652  0.6660 -0.9135  0.3562
 3614TIP3    H132333   0.501   5.081   2.662  2.0121 -4.3372 -0.8119
 3614TIP3    H232334   0.393   5.000   2.730  0.4087 -1.9568 -0.3982
 3615TIP3   OH232335   2.164   1.295   3.580  0.0029 -0.4148  0.2046
 3615TIP3    H132336   2.093   1.250   3.627 -0.8521  1.5969  0.9251
 3615TIP3    H232337   2.123   1.326   3.499 -0.2096  1.5210  1.0241
 3616TIP3   OH232338   2.410   1.449   4.598  0.0644 -0.0927  0.0364
 3616TIP3    H132339   2.439   1.482   4.683  0.9538 -0.1638 -0.2300
 3616TIP3    H232340   2.428   1.355   4.601 -1.2246 -0.3570  0.2877
 3617TIP3   OH232341   4.984   3.403  14.230  0.2998 -0.5771 -0.6870
 3617TIP3    H132342   4.921   3.331  14.229 -1.1381  0.5891  0.2841
 3617TIP3    H232343   5.028   3.397  14.145  0.7960 -3.0211 -0.3309
 3618TIP3   OH232344   1.646   5.184   0.282 -0.4360 -0.4063 -0.1885
 3618TIP3    H132345   1.706   5.216   0.216 -2.0043 -2.0729 -2.5882
 3618TIP3    H232346   1.602   5.262   0.314  0.4482  0.4615 -1.0222
 3619TIP3   OH232347   1.038   6.541   4.503  0.0011 -0.7837  0.0303
 3619TIP3    H132348   0.994   6.473   4.452 -2.3098 -1.6242  2.9077
 3619TIP3    H232349   1.105   6.494   4.552  0.3611 -0.4433 -0.1290
 3620TIP3   OH232350   3.629   2.309   4.982 -0.0772 -0.0947 -0.4854
 3620TIP3    H132351   3.573   2.377   5.020 -1.8137 -0.2537 -2.5622
 3620TIP3    H232352   3.584   2.227   5.003 -0.2120 -0.2875 -1.4809
 3621TIP3   OH232353   5.221   4.640   5.929 -0.0608 -0.5749 -0.3919
 3621TIP3    H132354   5.266   4.571   5.978 -1.0690 -1.9559 -1.3468
 3621TIP3    H232355   5.191   4.702   5.997 -0.6992 -1.9918  0.6642
 3622TIP3   OH232356   3.042   3.874   0.428  0.1730  0.1505 -0.0578
 3622TIP3    H132357   3.096   3.806   0.388 -0.0220  0.4675 -0.8758
 3622TIP3    H232358   2.958   3.832   0.443 -0.4794  0.6457 -2.0832
 3623TIP3   OH232359   4.332   6.082  13.769  0.2172 -0.0644 -1.0195
 3623TIP3    H132360   4.241   6.062  13.790  0.2679  0.5700 -0.1340
 3623TIP3    H232361   4.354   6.022  13.697 -0.2891 -1.6318  0.0716
 3624TIP3   OH232362   3.029   3.963   6.405  0.5281 -0.9031  0.0357
 3624TIP3    H132363   3.067   3.876   6.408  1.1941 -0.6081  0.2788
 3624TIP3    H232364   3.089   4.018   6.455 -0.4593 -0.5167  0.8473
 3625TIP3   OH232365   2.545   4.969  16.274 -0.4031  0.0092  0.1457
 3625TIP3    H132366   2.465   4.918  16.283 -0.7515  0.6561  0.8618
 3625TIP3    H232367   2.532   5.045  16.331 -0.1320  1.1969 -1.2932
 3626TIP3   OH232368   3.305   5.094   0.417  0.2621  0.0354 -0.6951
 3626TIP3    H132369   3.374   5.159   0.414  0.5517 -0.2994 -1.4473
 3626TIP3    H232370   3.224   5.144   0.410  0.2261  0.6889  2.5880
 3627TIP3   OH232371   4.095   5.526  15.722  0.2615 -0.3107 -0.4032
 3627TIP3    H132372   4.191   5.533  15.725  0.1148  2.4092  1.4182
 3627TIP3    H232373   4.078   5.431  15.723  2.9090 -0.8648 -0.1660
 3628TIP3   OH232374   2.800   2.745  13.747  0.0237 -0.1820  0.2250
 3628TIP3    H132375   2.870   2.768  13.808  0.5204 -0.0294 -0.3918
 3628TIP3    H232376   2.835   2.670  13.698 -0.3110 -0.2103  0.0290
 3629TIP3   OH232377   4.661   1.241   2.652  0.1103 -0.1817 -0.0461
 3629TIP3    H132378   4.667   1.271   2.743  0.6567  0.6885 -0.3692
 3629TIP3    H232379   4.681   1.147   2.657  1.5392  0.1301  0.5551
 3630TIP3   OH232380   3.367   0.778   1.198 -0.4465 -0.0562  0.0388
 3630TIP3    H132381   3.334   0.700   1.243 -1.9812 -0.9556 -2.4026
 3630TIP3    H232382   3.302   0.846   1.218 -0.7760 -0.2740 -0.2760
 3631TIP3   OH232383   1.104   3.996  14.169 -0.0930  0.3662  0.1515
 3631TIP3    H132384   1.191   4.023  14.140 -0.3267  0.5763 -0.3648
 3631TIP3    H232385   1.044   4.050  14.118 -0.5599 -0.8498 -0.6191
 3632TIP3   OH232386   3.179   5.303   3.816 -0.5737  0.1874  0.1909
 3632TIP3    H132387   3.162   5.211   3.836 -1.9867  0.8831  2.7360
 3632TIP3    H232388   3.270   5.316   3.843  0.2933 -0.8364 -2.0213
 3633TIP3   OH232389   2.424   5.403  15.014  0.5165  0.1810 -0.5276
 3633TIP3    H132390   2.355   5.435  15.071  0.4039  0.2307 -0.6911
 3633TIP3    H232391   2.505   5.419  15.063  0.6806  2.6883 -1.4617
 3634TIP3   OH232392   0.784   4.567   3.050  0.2312  0.3642 -0.0363
 3634TIP3    H132393   0.865   4.607   3.017  2.0418 -1.7542  1.4943
 3634TIP3    H232394   0.757   4.507   2.981 -0.2320  1.2830 -0.6733
 3635TIP3   OH232395   5.640   0.591   5.705  0.7110  0.2486  0.4882
 3635TIP3    H132396   5.592   0.620   5.783  0.2690  1.5093 -0.2161
 3635TIP3    H232397   5.575   0.594   5.635  1.2136 -0.4199 -0.0142
 3636TIP3   OH232398   5.857   1.223   5.159  0.2003  0.6560  0.4161
 3636TIP3    H132399   5.950   1.236   5.177  0.7537 -2.8242  0.7534
 3636TIP3    H232400   5.822   1.180   5.237 -1.3972  0.7462 -0.1980
 3637TIP3   OH232401   1.447   4.201   0.311  0.2977 -0.2371  0.0698
 3637TIP3    H132402   1.524   4.237   0.355 -0.3653  0.2702  0.8424
 3637TIP3    H232403   1.448   4.241   0.224 -0.5472  1.9264  0.9692
 3638TIP3   OH232404   0.890   1.659   3.059  0.1416 -0.7356 -0.0261
 3638TIP3    H132405   0.840   1.630   3.134  0.5000  0.6773  0.7891
 3638TIP3    H232406   0.843   1.735   3.026 -0.6815 -1.9963 -2.0095
 3639TIP3   OH232407   0.791   2.542   2.045 -0.3142 -0.2698 -0.1633
 3639TIP3    H132408   0.809   2.625   2.088  0.0961 -0.9169  0.9732
 3639TIP3    H232409   0.787   2.479   2.117 -0.1757 -1.3006 -1.0362
 3640TIP3   OH232410   1.908   0.042   2.950  0.1916  0.5744 -0.3361
 3640TIP3    H132411   1.959  -0.005   3.017  1.0656 -0.7923 -1.8889
 3640TIP3    H232412   1.973   0.073   2.888 -0.5837  2.0646 -0.4421
 3641TIP3   OH232413   5.845   0.699   0.044 -0.2323 -0.0391 -0.2660
 3641TIP3    H132414   5.790   0.650  -0.018  2.6479 -0.4349 -2.7691
 3641TIP3    H232415   5.927   0.650   0.046  0.7756  1.6103  1.6647
 3642TIP3   OH232416   0.013   0.379   2.822  0.3372 -0.5044 -0.0869
 3642TIP3    H132417  -0.048   0.443   2.787 -0.2662 -1.0686 -0.0794
 3642TIP3    H232418   0.039   0.413   2.907  0.9949  0.3526 -0.6170
 3643TIP3   OH232419   0.782   6.378  16.467  0.4668 -0.2419  0.3878
 3643TIP3    H132420   0.713   6.319  16.493 -0.1570  0.2539 -0.1113
 3643TIP3    H232421   0.739   6.444  16.412  1.4813 -0.4545 -0.7149
 3644TIP3   OH232422   2.145   1.685   4.508  0.1927 -0.3683  0.4610
 3644TIP3    H132423   2.225   1.636   4.487 -0.5812 -1.8929  0.9775
 3644TIP3    H232424   2.091   1.624   4.558 -1.3502  0.6048  0.0525
 3645TIP3   OH232425   3.577   5.475   3.564 -0.0903 -0.4435 -0.2789
 3645TIP3    H132426   3.579   5.393   3.516  0.6464 -1.5379  1.5106
 3645TIP3    H232427   3.625   5.537   3.509  0.6301 -1.6016 -0.9859
 3646TIP3   OH232428   1.334   5.110   0.209 -0.5361 -0.9772 -0.0234
 3646TIP3    H132429   1.339   5.195   0.165 -1.1856 -1.7921 -1.7528
 3646TIP3    H232430   1.414   5.106   0.261  0.5280 -0.1459 -1.5021
 3647TIP3   OH232431   5.364   4.140   4.787  0.7249  0.0727  0.0957
 3647TIP3    H132432   5.274   4.173   4.790  1.8629  3.4961  1.1307
 3647TIP3    H232433   5.385   4.121   4.878  0.8706 -1.4676 -0.2305
 3648TIP3   OH232434   3.038   1.762  12.837  0.8101 -0.1115 -0.1809
 3648TIP3    H132435   3.085   1.806  12.908  0.1589 -1.3551  1.0965
 3648TIP3    H232436   3.104   1.708  12.794  0.8934 -0.6680  0.6114
 3649TIP3   OH232437   1.839   1.342  14.399 -0.6299  0.5690 -0.1962
 3649TIP3    H132438   1.769   1.286  14.434 -0.3340  0.5079  0.3114
 3649TIP3    H232439   1.841   1.417  14.458  1.5095 -0.6740  1.4944
 3650TIP3   OH232440   4.815   1.459   5.028 -0.3289  0.0794  0.4769
 3650TIP3    H132441   4.746   1.475   4.964 -0.9470  1.6318  1.4664
 3650TIP3    H232442   4.873   1.535   5.019 -0.5061  0.3971  1.8316
 3651TIP3   OH232443   3.427   6.111   3.778 -0.5750 -0.2006  0.6106
 3651TIP3    H132444   3.355   6.164   3.744 -0.4057  0.3517  1.1023
 3651TIP3    H232445   3.499   6.172   3.790 -0.0907 -0.7114  0.3383
 3652TIP3   OH232446   0.408   4.789   1.806  0.0340 -0.1684 -0.4162
 3652TIP3    H132447   0.471   4.769   1.736 -1.0381 -1.9156 -0.9426
 3652TIP3    H232448   0.398   4.707   1.854 -0.8304  0.4404  0.4910
 3653TIP3   OH232449   4.145   0.045   2.539 -0.6034 -0.3766 -0.7217
 3653TIP3    H132450   4.117   0.026   2.628 -0.7963  0.5300 -0.5805
 3653TIP3    H232451   4.064   0.058   2.489 -0.5049 -1.1315 -1.0942
 3654TIP3   OH232452   1.350   1.211   3.314 -0.4261  0.3769 -0.0741
 3654TIP3    H132453   1.310   1.258   3.242  0.3880  0.8445 -0.2401
 3654TIP3    H232454   1.283   1.149   3.343  0.0830 -1.7558 -2.9640
 3655TIP3   OH232455   2.163   2.604  11.473 -0.7953 -0.0249 -0.9187
 3655TIP3    H132456   2.174   2.565  11.386 -0.6343 -0.1152 -0.8583
 3655TIP3    H232457   2.245   2.649  11.490 -0.0923 -1.5383 -0.0510
 3656TIP3   OH232458   6.403   1.449   1.571  0.0822  0.3928 -0.5847
 3656TIP3    H132459   6.469   1.505   1.612 -0.5138  1.4593 -1.0521
 3656TIP3    H232460   6.326   1.505   1.560 -0.3822 -0.3808 -1.4830
 3657TIP3   OH232461   3.603   3.781   0.474  0.1855  0.6490 -0.4771
 3657TIP3    H132462   3.560   3.859   0.509 -0.6637 -0.0071 -0.0042
 3657TIP3    H232463   3.694   3.788   0.503 -0.1047  0.9869  0.3809
 3658TIP3   OH232464   6.833   1.084  15.845  0.5070 -0.3133  0.1743
 3658TIP3    H132465   6.839   1.015  15.912  1.8892  0.4058  0.8335
 3658TIP3    H232466   6.923   1.095  15.815  0.1395  0.5055 -0.6596
 3659TIP3   OH232467   1.645   0.383   3.905 -0.8373 -0.3728  0.0940
 3659TIP3    H132468   1.685   0.338   3.831 -0.2894 -2.1092  1.3762
 3659TIP3    H232469   1.714   0.439   3.939 -0.1450 -1.6943  0.9550
 3660TIP3   OH232470   4.058   5.776  13.108 -0.0587 -0.1866 -0.1637
 3660TIP3    H132471   4.064   5.714  13.036 -1.8798  0.4679 -0.9589
 3660TIP3    H232472   4.023   5.725  13.181 -2.5082  0.0089 -1.0999
 3661TIP3   OH232473   4.548   0.634  11.110  0.3591  0.1871  0.3518
 3661TIP3    H132474   4.537   0.608  11.019  0.3131  0.2791  0.3308
 3661TIP3    H232475   4.463   0.617  11.151  0.2108  0.6650  0.2468
 3662TIP3   OH232476   2.229   1.065   0.904 -0.3356  0.1975  0.4580
 3662TIP3    H132477   2.279   1.103   0.977 -1.7526  2.2937  0.4398
 3662TIP3    H232478   2.160   1.013   0.947 -0.3759  0.3614  0.5957
 3663TIP3   OH232479   4.888   0.459  11.430  0.5331  0.1040 -0.6292
 3663TIP3    H132480   4.839   0.472  11.349  0.6056  1.2490 -0.5065
 3663TIP3    H232481   4.974   0.430  11.402  0.7679  1.1515 -1.0003
 3664TIP3   OH232482   6.622   2.624  15.097  0.0240  0.0633  0.3085
 3664TIP3    H132483   6.669   2.651  15.018  0.9208  0.0485  0.8189
 3664TIP3    H232484   6.637   2.530  15.104 -0.1855  0.0363  0.4027
 3665TIP3   OH232485   3.628   1.871  15.703 -0.0233  0.1560 -0.1335
 3665TIP3    H132486   3.629   1.851  15.610 -3.0026  0.1686 -0.2752
 3665TIP3    H232487   3.538   1.900  15.720  0.7059  1.1244  2.5519
 3666TIP3   OH232488   5.672   6.316  13.137  0.2414  0.1495  0.3939
 3666TIP3    H132489   5.601   6.333  13.199  0.1018  0.7611  0.0730
 3666TIP3    H232490   5.752   6.331  13.187  0.1539  3.6366 -0.3153
 3667TIP3   OH232491   0.755   0.969   5.425 -0.3853  0.4561  0.1666
 3667TIP3    H132492   0.761   0.888   5.374  0.1294  0.2920  0.4816
 3667TIP3    H232493   0.689   0.950   5.491  1.0614 -0.3956  1.4442
 3668TIP3   OH232494   4.782   2.378  14.895  0.5044 -0.3011 -0.3870
 3668TIP3    H132495   4.702   2.332  14.922  0.4009  0.3099  0.3766
 3668TIP3    H232496   4.805   2.432  14.970  0.1548  1.5251 -1.5288
 3669TIP3   OH232497   5.846   1.955   1.304  0.1887 -0.1571  0.0012
 3669TIP3    H132498   5.763   1.983   1.265 -0.0521 -0.6680  0.1237
 3669TIP3    H232499   5.901   1.933   1.229 -0.5637 -1.9560 -0.0889
 3670TIP3   OH232500   5.749   6.248  14.517  0.1193 -0.3112 -0.5861
 3670TIP3    H132501   5.789   6.165  14.544  0.1576  0.0024  0.3855
 3670TIP3    H232502   5.766   6.254  14.423 -0.3864 -1.6719 -0.7882
 3671TIP3   OH232503   6.816   0.873  16.053 -0.0991  0.5258  0.4866
 3671TIP3    H132504   6.731   0.899  16.089 -0.8164 -0.8256 -0.2056
 3671TIP3    H232505   6.801   0.787  16.015  1.7022  0.0579  0.7693
 3672TIP3   OH232506   3.463   2.994   1.340  0.2709  0.4384  0.2551
 3672TIP3    H132507   3.509   2.954   1.414  1.2875  0.3990 -0.3666
 3672TIP3    H232508   3.400   2.927   1.313 -0.1017  0.4521  1.0753
 3673TIP3   OH232509   3.927   1.377   1.063 -0.1848  0.0420 -0.0196
 3673TIP3    H132510   3.924   1.448   0.998 -1.4756 -0.8329 -0.9734
 3673TIP3    H232511   4.008   1.330   1.042 -0.8070 -0.4984 -1.3369
 3674TIP3   OH232512   2.696   1.973  17.154 -0.5126 -0.0346  0.1966
 3674TIP3    H132513   2.640   1.935  17.086 -1.8658 -0.2903  1.4044
 3674TIP3    H232514   2.725   2.057  17.118 -1.2292 -0.1452 -0.6627
 3675TIP3   OH232515   3.072   5.004   2.056  0.0980  0.0693 -0.1681
 3675TIP3    H132516   3.026   4.939   2.110  0.8179 -1.7643 -1.6596
 3675TIP3    H232517   3.019   5.010   1.976  1.0587 -0.1432 -0.8306
 3676TIP3   OH232518   5.690   0.542  16.043 -0.2757  0.0085 -0.2623
 3676TIP3    H132519   5.699   0.480  16.114 -3.2902  0.4236  0.6569
 3676TIP3    H232520   5.722   0.625  16.078 -2.5522  0.4133  1.0581
 3677TIP3   OH232521   6.721   5.937  14.953  0.1169 -0.1112  0.3378
 3677TIP3    H132522   6.660   5.863  14.945  1.3809 -0.9489 -2.5124
 3677TIP3    H232523   6.692   5.999  14.886  0.2206  1.2220  1.4604
 3678TIP3   OH232524   5.001   6.453   4.607  0.4094  0.3157 -0.3281
 3678TIP3    H132525   4.945   6.423   4.678 -0.8743  1.6513 -0.7365
 3678TIP3    H232526   4.984   6.391   4.536  1.5832 -0.9302  0.4230
 3679TIP3   OH232527   3.418   3.043   5.532 -0.6478  0.0212  0.4679
 3679TIP3    H132528   3.391   3.128   5.499  1.8558  0.1152 -1.7288
 3679TIP3    H232529   3.359   2.980   5.490 -1.6476  0.5423  1.0555
 3680TIP3   OH232530   4.895   6.058  11.999 -0.0797 -0.5743 -0.5120
 3680TIP3    H132531   4.920   5.980  12.049  0.3281 -1.9429 -2.7234
 3680TIP3    H232532   4.800   6.052  11.992  0.0389 -1.5057 -1.5892
 3681TIP3   OH232533   2.540   0.520   0.315  0.5396 -0.1626  0.5061
 3681TIP3    H132534   2.469   0.457   0.310  0.5097 -0.1327  0.5484
 3681TIP3    H232535   2.587   0.497   0.395 -0.7738  1.2167  1.7375
 3682TIP3   OH232536   2.615   6.515   1.361 -0.0816  0.4688  0.1491
 3682TIP3    H132537   2.604   6.474   1.275  1.4118 -1.5402  0.8270
 3682TIP3    H232538   2.529   6.507   1.403 -0.2373 -0.5945 -0.3443
 3683TIP3   OH232539   6.059   4.305  11.716  0.3548  0.1304  0.1740
 3683TIP3    H132540   6.104   4.354  11.785 -0.0786  0.0482  0.5178
 3683TIP3    H232541   6.112   4.226  11.704 -1.6541 -1.9125  3.2841
 3684TIP3   OH232542   4.096   2.686  16.487  0.4984  0.3666 -0.3257
 3684TIP3    H132543   4.104   2.606  16.436 -0.8988  0.5543 -0.8737
 3684TIP3    H232544   4.183   2.726  16.481  1.3040 -1.2202  0.2049
 3685TIP3   OH232545   0.790   1.425  13.109  0.1783 -0.1415  0.0905
 3685TIP3    H132546   0.875   1.466  13.095 -0.1674  0.5284 -0.0470
 3685TIP3    H232547   0.810   1.331  13.117  0.7128 -0.2669 -2.0676
 3686TIP3   OH232548   4.795   0.963   2.547 -0.5158 -0.5876 -0.5421
 3686TIP3    H132549   4.880   0.990   2.583  0.3511 -0.0506 -2.7969
 3686TIP3    H232550   4.764   0.895   2.607 -0.3362  1.7513  2.4755
 3687TIP3   OH232551   5.003   2.892   3.469 -0.1567  0.2845 -0.5325
 3687TIP3    H132552   4.935   2.917   3.533  1.5204 -1.7963  2.2628
 3687TIP3    H232553   5.042   2.976   3.443 -0.3476  1.2214  1.8938
 3688TIP3   OH232554   6.514   5.990   4.659 -0.6795  0.3689 -0.5768
 3688TIP3    H132555   6.538   6.028   4.574  0.6631  1.6955  0.3381
 3688TIP3    H232556   6.420   6.006   4.667 -1.0169 -0.5945 -2.1760
 3689TIP3   OH232557   4.063   1.907   1.763 -0.1363  0.4307  0.2061
 3689TIP3    H132558   4.052   1.945   1.850 -1.7578  1.6256 -0.4497
 3689TIP3    H232559   3.978   1.868   1.743 -0.1395  1.0694 -1.2025
 3690TIP3   OH232560   4.021   3.422  11.058 -0.3048 -0.3299 -0.3085
 3690TIP3    H132561   4.109   3.385  11.049 -0.7227 -1.1636 -1.1590
 3690TIP3    H232562   4.024   3.503  11.007 -0.5364 -1.2907 -1.9038
 3691TIP3   OH232563   4.554   0.167   2.558 -0.1679 -0.6862 -0.1521
 3691TIP3    H132564   4.471   0.211   2.578 -0.1204 -1.3233  1.6108
 3691TIP3    H232565   4.589   0.215   2.483 -0.2762  2.1116  1.4345
 3692TIP3   OH232566   3.850   0.077   0.908  0.6461  0.5759  0.3878
 3692TIP3    H132567   3.917   0.139   0.937  2.2826 -1.6287  1.5359
 3692TIP3    H232568   3.819   0.036   0.988 -1.8687  1.2267 -0.1522
 3693TIP3   OH232569   4.804   1.807   4.079 -0.2398  0.5959 -0.5007
 3693TIP3    H132570   4.897   1.824   4.092 -0.3915  0.9527  0.1579
 3693TIP3    H232571   4.760   1.879   4.123 -0.8694 -0.7393  1.2129
 3694TIP3   OH232572   4.064   2.023   2.312  0.1406  0.1837  0.3835
 3694TIP3    H132573   4.039   2.000   2.401 -1.6475 -0.0038 -0.1365
 3694TIP3    H232574   3.982   2.046   2.269  0.9023 -0.2296 -1.3667
 3695TIP3   OH232575   2.077   3.208  11.867  0.0418  0.1509  0.3048
 3695TIP3    H132576   2.119   3.285  11.905 -0.4119  0.3689  0.3705
 3695TIP3    H232577   2.132   3.185  11.792  0.3039  0.4035  0.4189
 3696TIP3   OH232578   3.296   1.613   5.307  0.3520 -0.4265  0.1132
 3696TIP3    H132579   3.219   1.566   5.273  2.0576 -1.9815 -1.9043
 3696TIP3    H232580   3.306   1.688   5.249 -0.2623  0.4386  1.0929
 3697TIP3   OH232581   2.271   0.372   1.258  0.4919  0.5460  0.1718
 3697TIP3    H132582   2.354   0.403   1.295  0.2648  1.3653  0.0080
 3697TIP3    H232583   2.271   0.406   1.168  0.3571 -0.1584 -0.0952
 3698TIP3   OH232584   3.519   1.708  15.202  0.5368  0.3267  0.3589
 3698TIP3    H132585   3.550   1.620  15.221 -1.0712 -1.1180 -3.0201
 3698TIP3    H232586   3.426   1.706  15.225  0.5317  1.2478  0.4679
 3699TIP3   OH232587   4.576   0.042   2.793  0.2013  0.2734 -0.4701
 3699TIP3    H132588   4.608  -0.048   2.787  1.1256  0.5093  0.6553
 3699TIP3    H232589   4.575   0.074   2.703 -1.6181 -1.3416 -1.0911
 3700TIP3   OH232590   6.624   1.920   5.717  0.5709 -0.1777  0.8747
 3700TIP3    H132591   6.591   1.916   5.627 -1.3709  1.1247  1.4689
 3700TIP3    H232592   6.652   2.011   5.728  2.8136 -0.8143  0.9855
 3701TIP3   OH232593   1.540   1.101  10.420 -0.0580  0.0810 -0.0625
 3701TIP3    H132594   1.633   1.078  10.416 -0.2881 -1.2906  1.3380
 3701TIP3    H232595   1.494   1.018  10.403 -1.0298  0.6548 -0.3136
 3702TIP3   OH232596   2.601   6.790   1.857  0.2578 -0.3183  0.6868
 3702TIP3    H132597   2.674   6.743   1.816 -1.1579 -0.3102 -2.1268
 3702TIP3    H232598   2.635   6.878   1.872  1.3172 -0.7599  0.9645
 3703TIP3   OH232599   3.257   6.623  12.145  0.0781 -0.4513  0.2054
 3703TIP3    H132600   3.229   6.544  12.100  0.4580 -0.2633 -0.3738
 3703TIP3    H232601   3.267   6.597  12.237  0.5906 -1.1746 -0.0466
 3704TIP3   OH232602   4.563   3.876  16.560 -0.3141 -0.1022  0.2125
 3704TIP3    H132603   4.523   3.793  16.587 -1.0026  0.4025  0.7628
 3704TIP3    H232604   4.531   3.940  16.623 -1.7956  1.0746 -1.6162
 3705TIP3   OH232605   2.897   5.889  16.336 -0.3906  0.1113 -0.4036
 3705TIP3    H132606   2.980   5.915  16.297 -0.0184  2.7252  1.7930
 3705TIP3    H232607   2.838   5.880  16.262  1.5067 -0.4754 -1.9222
 3706TIP3   OH232608   1.412   6.555  14.433 -0.6730 -0.1298  0.4229
 3706TIP3    H132609   1.438   6.495  14.363 -1.1704  0.6100 -0.4122
 3706TIP3    H232610   1.495   6.595  14.461 -0.6531  0.9074 -1.0089
 3707TIP3   OH232611   4.327   3.237   2.045  0.1468  0.1503 -0.1209
 3707TIP3    H132612   4.358   3.241   2.136 -0.1117  3.6439 -0.0823
 3707TIP3    H232613   4.235   3.215   2.052  0.6572 -2.2062  0.2131
 3708TIP3   OH232614   1.504   0.307  12.451 -0.0305 -0.3470 -0.0717
 3708TIP3    H132615   1.589   0.326  12.411  1.2013  0.6221  2.7367
 3708TIP3    H232616   1.462   0.246  12.391  2.3189 -0.2474 -1.9437
 3709TIP3   OH232617   1.522   4.195  15.355 -0.0282  0.1854 -0.0247
 3709TIP3    H132618   1.460   4.151  15.297 -0.6121  1.1619 -0.1572
 3709TIP3    H232619   1.588   4.233  15.297 -1.5253  2.6288 -0.2659
 3710TIP3   OH232620   3.685   1.589   4.736 -0.2760  0.0501 -0.2997
 3710TIP3    H132621   3.680   1.505   4.690 -0.5888 -0.0516 -0.0846
 3710TIP3    H232622   3.778   1.602   4.753 -0.3619 -1.3304  1.6121
 3711TIP3   OH232623   5.594   5.222   0.729  0.1719  0.9456 -0.0594
 3711TIP3    H132624   5.525   5.226   0.663  0.5027  0.8625 -0.4127
 3711TIP3    H232625   5.676   5.225   0.679  0.4364 -0.1874  0.2644
 3712TIP3   OH232626   2.828   1.155   2.824 -0.0110  0.2243  0.1303
 3712TIP3    H132627   2.784   1.240   2.831 -1.7697 -0.7075  0.9194
 3712TIP3    H232628   2.868   1.142   2.910 -2.5284 -1.1471  1.1927
 3713TIP3   OH232629   1.186   2.523   1.032 -0.5661 -0.0263 -0.3892
 3713TIP3    H132630   1.223   2.442   1.069  0.2850 -0.3153 -1.8000
 3713TIP3    H232631   1.098   2.498   1.003 -0.4160 -0.3769 -0.5526
 3714TIP3   OH232632   3.253   0.536  10.868 -0.0792 -0.0142 -0.0891
 3714TIP3    H132633   3.293   0.486  10.797  2.6051 -0.3594  1.5666
 3714TIP3    H232634   3.236   0.472  10.936  1.7170  0.9600  1.3585
 3715TIP3   OH232635   5.439   4.572  13.998 -0.6919  0.0394  0.3219
 3715TIP3    H132636   5.486   4.652  13.974 -0.6104  0.6851  2.4393
 3715TIP3    H232637   5.349   4.589  13.971 -0.2493 -0.1787 -1.4424
 3716TIP3   OH232638   2.647   3.846  15.248  0.2219 -0.3286  0.6764
 3716TIP3    H132639   2.618   3.890  15.169  1.1873 -0.1675  0.4018
 3716TIP3    H232640   2.581   3.778  15.263  1.5914 -2.4262 -2.0300
 3717TIP3   OH232641   2.387   6.597   4.755  0.4326  0.1024 -0.4197
 3717TIP3    H132642   2.482   6.606   4.762  0.3766  0.6940 -0.3632
 3717TIP3    H232643   2.371   6.504   4.767  0.8203  0.2697  1.7920
 3718TIP3   OH232644   5.064   1.668  14.101 -0.1460  0.2874 -0.2282
 3718TIP3    H132645   4.973   1.641  14.115  0.0613 -1.3922 -1.7899
 3718TIP3    H232646   5.097   1.684  14.189 -1.9555  1.0257  0.3725
 3719TIP3   OH232647   2.292   3.960   5.711  0.4250 -0.0888 -0.0224
 3719TIP3    H132648   2.220   3.922   5.661  1.4679 -0.4031 -1.3727
 3719TIP3    H232649   2.279   3.930   5.800  0.1893 -2.1372 -0.6954
 3720TIP3   OH232650   1.622   0.935  14.132  0.2593  0.0854  0.5916
 3720TIP3    H132651   1.561   0.896  14.070 -0.2151  0.3120  0.9131
 3720TIP3    H232652   1.584   1.020  14.154 -1.1725 -1.1837  3.4943
 3721TIP3   OH232653   4.858   6.693   1.813  1.0020 -0.1425 -0.1631
 3721TIP3    H132654   4.842   6.638   1.890  0.0979  1.0429  0.5343
 3721TIP3    H232655   4.848   6.783   1.845 -1.7002  0.3633 -2.0821
 3722TIP3   OH232656   1.586   3.247   3.945 -0.1361  0.0238  0.4916
 3722TIP3    H132657   1.564   3.334   3.912  1.2264  0.3505  0.4261
 3722TIP3    H232658   1.611   3.262   4.036 -1.2215 -0.5092  0.9027
 3723TIP3   OH232659   5.724   3.465   3.796 -0.0506  0.5490 -0.1094
 3723TIP3    H132660   5.764   3.464   3.882  1.7381 -1.6599 -0.8911
 3723TIP3    H232661   5.712   3.559   3.777  1.4297  1.1548  1.6512
 3724TIP3   OH232662   1.181   6.340  14.977  0.3864 -0.2976  0.6905
 3724TIP3    H132663   1.235   6.374  14.906 -0.9973 -0.6557 -0.5716
 3724TIP3    H232664   1.163   6.249  14.953 -1.3674  0.0076  0.6902
 3725TIP3   OH232665   6.066   2.409  15.528  0.5627  0.1843 -0.1366
 3725TIP3    H132666   6.002   2.454  15.473  1.2898 -0.7302 -1.7940
 3725TIP3    H232667   6.112   2.480  15.573  1.7182  1.2204 -2.7286
 3726TIP3   OH232668   2.076   1.346   1.486  0.1481  0.2702  0.4819
 3726TIP3    H132669   2.135   1.353   1.411  1.3307  4.6355  1.5254
 3726TIP3    H232670   2.001   1.296   1.452  1.8659 -0.5096 -2.6331
 3727TIP3   OH232671   6.701   4.462   2.269  0.3760  0.0756  0.2760
 3727TIP3    H132672   6.609   4.464   2.295  0.4324  0.0103  0.4755
 3727TIP3    H232673   6.698   4.450   2.174  0.1313  2.1305 -0.0341
 3728TIP3   OH232674   6.785   6.187  16.493  0.2566  0.3908  0.7557
 3728TIP3    H132675   6.697   6.215  16.465  0.3282  0.9694  1.0862
 3728TIP3    H232676   6.842   6.212  16.420 -0.0385 -1.2588 -0.0685
 3729TIP3   OH232677   5.163   4.758   3.625 -0.9415 -0.6428 -0.1569
 3729TIP3    H132678   5.223   4.803   3.567 -1.7308  0.0834 -0.4343
 3729TIP3    H232679   5.208   4.676   3.648  0.6808  0.4209  0.6598
 3730TIP3   OH232680   3.483   0.091   2.954 -0.0083 -0.0222  0.2614
 3730TIP3    H132681   3.523   0.044   3.027  2.1310  0.0845 -0.7777
 3730TIP3    H232682   3.464   0.023   2.889 -1.2568 -0.0253  0.6049
 3731TIP3   OH232683   5.734   1.185   6.426  0.4847 -0.6018 -0.5436
 3731TIP3    H132684   5.795   1.258   6.439 -0.4665 -0.1163  1.6059
 3731TIP3    H232685   5.756   1.123   6.495  0.5307 -1.8696 -1.6504
 3732TIP3   OH232686   0.595   3.556  16.851  0.4916 -0.1019 -0.0256
 3732TIP3    H132687   0.661   3.521  16.911  1.4252 -0.9177 -1.4627
 3732TIP3    H232688   0.640   3.627  16.805 -0.1028  0.2896 -0.0101
 3733TIP3   OH232689   2.953   2.412  16.282  0.3625 -0.8309  0.0727
 3733TIP3    H132690   2.918   2.365  16.207  1.1346 -0.1923 -0.7114
 3733TIP3    H232691   3.044   2.384  16.289  0.0913 -1.5056  1.3005
 3734TIP3   OH232692   5.515   0.332  12.636 -0.9740 -0.0569  0.4296
 3734TIP3    H132693   5.485   0.422  12.649 -1.9051 -0.3112  0.1676
 3734TIP3    H232694   5.530   0.299  12.724  0.5296  0.7120  0.4874
 3735TIP3   OH232695   5.601   0.304  15.237 -0.0216 -0.2018 -0.4255
 3735TIP3    H132696   5.677   0.262  15.197 -0.4327 -2.0166  0.5636
 3735TIP3    H232697   5.559   0.352  15.165  0.3115 -1.7914 -1.7456
 3736TIP3   OH232698   6.749   3.567   3.765  0.6236 -0.0784 -0.1016
 3736TIP3    H132699   6.801   3.488   3.749 -1.1360 -1.4023  0.4621
 3736TIP3    H232700   6.664   3.535   3.795  0.8127  2.0588  3.2483
 3737TIP3   OH232701   1.999   6.706   2.532 -0.1139  0.3287 -0.2088
 3737TIP3    H132702   2.039   6.683   2.616 -1.6192 -0.1927  0.4033
 3737TIP3    H232703   2.068   6.753   2.485  0.9410  0.1616  1.0965
 3738TIP3   OH232704   5.473   0.460   2.789 -0.1264  0.4116  0.7640
 3738TIP3    H132705   5.422   0.505   2.856 -1.2582 -0.2841  0.3995
 3738TIP3    H232706   5.503   0.379   2.831 -0.1868  0.3361  0.6628
 3739TIP3   OH232707   6.547   3.236   4.343  0.6000  0.2662  0.2153
 3739TIP3    H132708   6.530   3.298   4.272  1.2126  2.0099  1.5261
 3739TIP3    H232709   6.566   3.154   4.298 -0.4548  0.9371 -1.5889
 3740TIP3   OH232710   3.702   5.977  15.246  0.1709  0.0227 -0.0364
 3740TIP3    H132711   3.768   6.045  15.232  0.6019 -0.5424 -0.7800
 3740TIP3    H232712   3.619   6.022  15.229  0.4593  0.3430 -0.6575
 3741TIP3   OH232713   6.421   5.423   5.685 -0.1623 -0.0854 -0.3573
 3741TIP3    H132714   6.326   5.436   5.680  0.1039  1.6360 -2.2534
 3741TIP3    H232715   6.445   5.455   5.772 -1.6712 -3.9746  1.7058
 3742TIP3   OH232716   2.653   2.556   4.474  0.1087 -0.8962  0.1017
 3742TIP3    H132717   2.607   2.505   4.541 -0.7797  1.6394  1.5352
 3742TIP3    H232718   2.669   2.641   4.515 -0.9181  0.9750 -3.0505
 3743TIP3   OH232719   0.265   4.718  14.632 -0.2556 -0.0075  0.3547
 3743TIP3    H132720   0.252   4.753  14.720 -3.1387 -1.4865  0.6386
 3743TIP3    H232721   0.318   4.639  14.645 -0.6639 -0.2144  0.7788
 3744TIP3   OH232722   4.126   4.961   2.788  0.0640 -0.0579 -0.1037
 3744TIP3    H132723   4.148   4.920   2.705 -0.9050  0.3456 -0.5784
 3744TIP3    H232724   4.031   4.972   2.785  0.2021  1.5356  0.3064
 3745TIP3   OH232725   3.732   0.978  16.245  0.2926  0.2872  0.7729
 3745TIP3    H132726   3.702   0.907  16.302 -0.7356  0.7787  0.8720
 3745TIP3    H232727   3.667   0.981  16.175 -0.2906  1.8087  1.3409
 3746TIP3   OH232728   1.105   5.247   3.589 -0.2363  0.5092  0.1994
 3746TIP3    H132729   1.175   5.184   3.573 -0.5838 -0.1971  1.3151
 3746TIP3    H232730   1.025   5.196   3.585 -0.5958  1.0666  0.1804
 3747TIP3   OH232731   0.233   1.962   0.269  0.8225 -0.5121  0.6263
 3747TIP3    H132732   0.183   1.975   0.350 -2.5751 -0.6854 -1.2746
 3747TIP3    H232733   0.275   1.876   0.280  2.5535  0.5216  3.0957
 3748TIP3   OH232734   3.645   0.395  15.492 -0.0411 -0.6848  0.1107
 3748TIP3    H132735   3.683   0.321  15.538  0.1232  0.1369  1.3375
 3748TIP3    H232736   3.607   0.450  15.561 -1.5800 -0.4183 -0.8942
 3749TIP3   OH232737   0.178   4.438   0.968 -0.5010  0.0319  0.5017
 3749TIP3    H132738   0.176   4.352   1.009  0.4979  0.4782  1.5357
 3749TIP3    H232739   0.092   4.476   0.988 -0.6703 -0.4385  0.6752
 3750TIP3   OH232740   2.184   3.507  12.009  0.3887  0.1378  0.9631
 3750TIP3    H132741   2.115   3.469  12.064  1.6935 -0.1950  2.4767
 3750TIP3    H232742   2.265   3.466  12.041  1.3401  0.7972 -0.4784
 3751TIP3   OH232743   5.213   3.184   2.998 -0.4084 -0.2972 -0.3817
 3751TIP3    H132744   5.199   3.122   3.070  0.0888  2.2319  2.0578
 3751TIP3    H232745   5.145   3.250   3.009 -1.4536 -0.7218 -3.4184
 3752TIP3   OH232746   3.714   6.089   6.528  0.0152 -0.5338  0.6246
 3752TIP3    H132747   3.667   6.062   6.449 -0.1852  2.4498 -0.4274
 3752TIP3    H232748   3.654   6.069   6.600 -1.1404 -0.5208 -0.3001
 3753TIP3   OH232749   3.253   4.786   4.839 -0.1918 -0.4806  0.1824
 3753TIP3    H132750   3.297   4.751   4.762 -0.9569 -0.2774 -0.3642
 3753TIP3    H232751   3.165   4.810   4.808 -0.2459  0.3597  0.9239
 3754TIP3   OH232752   0.700   6.490  15.521  0.4116 -0.2767  0.2456
 3754TIP3    H132753   0.734   6.502  15.610 -0.6939 -1.7169  0.9065
 3754TIP3    H232754   0.625   6.549  15.515 -1.0560 -1.9598  1.2009
 3755TIP3   OH232755   3.543   1.623   5.630  0.6927 -0.7662  0.4407
 3755TIP3    H132756   3.628   1.593   5.661  2.8753  0.7443 -3.3370
 3755TIP3    H232757   3.534   1.582   5.544 -2.4952 -0.8988  0.7398
 3756TIP3   OH232758   6.331   2.809   3.912  0.1148 -0.1850  0.0542
 3756TIP3    H132759   6.356   2.744   3.847  0.9214 -2.1886  2.2044
 3756TIP3    H232760   6.407   2.816   3.969 -0.2529  2.1264  0.3543
 3757TIP3   OH232761   5.172   6.445   1.156 -0.7601  0.0264  0.4472
 3757TIP3    H132762   5.198   6.357   1.128 -2.0691  0.2061 -1.5158
 3757TIP3    H232763   5.253   6.484   1.191  0.0677 -1.5794  0.4215
 3758TIP3   OH232764   6.223   1.875  15.828  0.1216 -0.1185  0.1116
 3758TIP3    H132765   6.153   1.821  15.865  0.8889  0.0049  1.8508
 3758TIP3    H232766   6.284   1.889  15.901  1.6330  0.3327 -1.1675
 3759TIP3   OH232767   4.636   4.186   0.377 -0.2519 -0.3514  0.0025
 3759TIP3    H132768   4.589   4.242   0.439 -2.4769 -2.5567  0.4335
 3759TIP3    H232769   4.606   4.215   0.291  1.8619  1.8410 -0.1183
 3760TIP3   OH232770   6.809   0.404  12.353  0.2410 -0.3989  0.1120
 3760TIP3    H132771   6.719   0.428  12.371  0.4135  0.2544  0.1326
 3760TIP3    H232772   6.861   0.477  12.386  0.6890 -0.1419 -1.1017
 3761TIP3   OH232773   1.630   5.950   0.485 -0.1643 -0.0534 -0.0104
 3761TIP3    H132774   1.607   5.999   0.406 -1.6252 -0.2864  0.2445
 3761TIP3    H232775   1.706   5.997   0.520 -0.1149  0.6532 -1.0037
 3762TIP3   OH232776   5.368   4.583   2.072  0.5746  0.0815  0.5925
 3762TIP3    H132777   5.415   4.533   2.138 -0.6709 -0.3332  1.1844
 3762TIP3    H232778   5.398   4.546   1.988  1.2362 -0.2146  0.9556
 3763TIP3   OH232779   3.288   1.844   5.169 -0.1146 -0.3955 -0.1698
 3763TIP3    H132780   3.193   1.844   5.186 -0.0227  0.0647  0.3861
 3763TIP3    H232781   3.320   1.920   5.217  0.6312 -0.9322  0.1934
 3764TIP3   OH232782   3.294   5.357   2.243  0.0533  0.0995 -0.1131
 3764TIP3    H132783   3.229   5.318   2.301  1.3675  0.4282  1.6832
 3764TIP3    H232784   3.297   5.449   2.268 -0.0313  0.4685 -1.3967
 3765TIP3   OH232785   2.357   4.826   2.562 -0.9001  0.3768  0.0295
 3765TIP3    H132786   2.304   4.757   2.602 -2.5362  1.3377 -0.3780
 3765TIP3    H232787   2.406   4.864   2.635 -0.4415 -0.7979  0.3503
 3766TIP3   OH232788   6.513   5.614  11.169  0.5297 -0.4179 -0.2464
 3766TIP3    H132789   6.504   5.676  11.096 -1.2121 -0.6330 -0.2548
 3766TIP3    H232790   6.565   5.542  11.132  0.7666  0.0652 -0.8822
 3767TIP3   OH232791   1.543   4.008   5.218  0.1953 -0.1810 -0.0061
 3767TIP3    H132792   1.486   4.073   5.177 -1.7377 -2.5854 -1.3874
 3767TIP3    H232793   1.519   4.011   5.311  0.3886  1.2657  0.0163
 3768TIP3   OH232794   2.918   5.729   6.646  0.1807 -0.4460  0.0051
 3768TIP3    H132795   2.976   5.710   6.572  0.8141  2.3583 -0.3431
 3768TIP3    H232796   2.956   5.681   6.719  2.2769  0.3018 -0.5175
 3769TIP3   OH232797   2.397   1.520   3.590 -0.0295  0.0532  0.3090
 3769TIP3    H132798   2.350   1.603   3.602  0.0333  0.2318 -0.5757
 3769TIP3    H232799   2.486   1.546   3.569 -0.7826 -0.0136 -3.7769
 3770TIP3   OH232800   4.984   3.658   5.043 -0.1600 -0.4872 -0.4450
 3770TIP3    H132801   4.893   3.687   5.043 -0.2989 -0.9032 -0.7060
 3770TIP3    H232802   4.991   3.601   4.966  0.5477  0.2256 -0.9202
 3771TIP3   OH232803   1.045   5.409   4.327 -0.3528  0.3984 -0.0013
 3771TIP3    H132804   1.003   5.446   4.404  1.1113  0.2398  0.8954
 3771TIP3    H232805   1.071   5.321   4.353 -0.0706  0.2460 -0.7656
 3772TIP3   OH232806   4.651   0.403  13.944 -0.0380  0.0141 -0.5072
 3772TIP3    H132807   4.595   0.459  13.890  0.5961 -2.0218 -3.5579
 3772TIP3    H232808   4.726   0.459  13.966 -0.9698  1.3266 -0.5256
 3773TIP3   OH232809   1.589   5.449   0.003 -0.2280  0.0104 -0.6526
 3773TIP3    H132810   1.658   5.432  -0.061  0.0315 -0.6748 -0.1951
 3773TIP3    H232811   1.630   5.434   0.088 -0.9058 -0.2852 -0.3690
 3774TIP3   OH232812   1.809   6.279  15.250 -0.3425  0.0672  0.5255
 3774TIP3    H132813   1.867   6.234  15.189  0.2028  0.9466  0.3720
 3774TIP3    H232814   1.784   6.212  15.314  1.2932 -0.1979  0.9295
 3775TIP3   OH232815   5.754   0.225  14.050 -0.0536 -0.2493  0.5610
 3775TIP3    H132816   5.681   0.165  14.067  0.6903 -1.3972 -0.1911
 3775TIP3    H232817   5.746   0.292  14.118 -1.7372 -0.4031  0.5625
 3776TIP3   OH232818   3.290   1.285  16.490 -0.7101 -0.2937 -0.3854
 3776TIP3    H132819   3.209   1.271  16.441 -0.6348 -0.8838 -0.3451
 3776TIP3    H232820   3.350   1.218  16.459 -0.3436 -0.0714 -0.1733
 3777TIP3   OH232821   3.849   4.085  14.027 -0.3950  1.0373  0.2017
 3777TIP3    H132822   3.757   4.098  14.052 -0.4395 -0.7592  1.1324
 3777TIP3    H232823   3.858   3.991  14.016  1.4907  1.1123  0.7505
 3778TIP3   OH232824   5.418   4.220   0.338  0.3276  0.1406 -0.2484
 3778TIP3    H132825   5.387   4.307   0.364  2.8765  1.0946 -0.0696
 3778TIP3    H232826   5.408   4.218   0.243  2.3377  1.6139 -0.5543
 3779TIP3   OH232827   5.720   6.493   0.915 -0.0712 -0.3108  0.0132
 3779TIP3    H132828   5.693   6.583   0.902 -0.0614  0.0592  2.1327
 3779TIP3    H232829   5.804   6.486   0.869  0.7463  1.2817  1.1460
 3780TIP3   OH232830   3.875   1.065  15.698 -0.1411  0.1962  0.4481
 3780TIP3    H132831   3.970   1.054  15.702  0.0908  0.9786 -1.6244
 3780TIP3    H232832   3.847   1.008  15.626 -1.0361  1.0246  0.1221
 3781TIP3   OH232833   3.342   3.580   4.899  0.3912  0.1510 -0.0791
 3781TIP3    H132834   3.287   3.518   4.947  1.3954  0.3449  1.3892
 3781TIP3    H232835   3.367   3.645   4.964  2.5377 -0.0523 -0.6291
 3782TIP3   OH232836   5.763   0.012  12.322  0.3251  0.5105 -0.5027
 3782TIP3    H132837   5.843   0.021  12.271  1.3912  0.0768  1.0292
 3782TIP3    H232838   5.747   0.100  12.356  0.5905  0.4344 -0.1793
 3783TIP3   OH232839   3.814   2.011  16.872  0.3404 -0.1351 -0.6926
 3783TIP3    H132840   3.796   2.044  16.960  0.8612  0.0909 -0.6645
 3783TIP3    H232841   3.804   1.917  16.878 -0.7920 -0.0181 -0.6791
 3784TIP3   OH232842   0.932   4.607  13.201  0.2649  0.0737  0.4210
 3784TIP3    H132843   0.987   4.590  13.124 -0.3337 -0.0824  0.0241
 3784TIP3    H232844   0.849   4.638  13.165  0.3397  1.0431  1.0441
 3785TIP3   OH232845   1.802   6.685  11.008  0.2771 -0.4073 -0.5949
 3785TIP3    H132846   1.856   6.716  10.935  0.4056  1.0233  0.0778
 3785TIP3    H232847   1.816   6.590  11.009  1.3053 -0.2942 -1.5947
 3786TIP3   OH232848   5.270   4.291   4.207 -0.0981 -0.1141  0.3977
 3786TIP3    H132849   5.266   4.355   4.278  0.3193 -1.7402  1.9628
 3786TIP3    H232850   5.179   4.269   4.189 -0.1850 -0.2648  0.9994
 3787TIP3   OH232851   5.552   1.400  12.100 -0.6346 -0.3926 -0.2470
 3787TIP3    H132852   5.529   1.315  12.137  0.7996 -0.3641  0.8269
 3787TIP3    H232853   5.578   1.452  12.176  1.5886 -0.0545 -1.1514
 3788TIP3   OH232854   4.596   6.405   3.051  0.3534 -0.1497  0.6767
 3788TIP3    H132855   4.517   6.351   3.055  1.1556 -1.3371  0.8806
 3788TIP3    H232856   4.604   6.442   3.139 -0.8267  1.2656  0.2273
 3789TIP3   OH232857   3.052   4.809  12.764  0.0023  0.1184 -0.0926
 3789TIP3    H132858   3.028   4.772  12.679 -0.5495  0.1463  0.0497
 3789TIP3    H232859   3.062   4.732  12.821  4.0929 -0.2799 -1.0277
 3790TIP3   OH232860   0.301   5.693  14.611 -0.6589  0.3941  0.7656
 3790TIP3    H132861   0.308   5.640  14.691 -0.4747  0.8506  1.0581
 3790TIP3    H232862   0.392   5.708  14.585 -0.7380 -0.7632 -0.2125
 3791TIP3   OH232863   3.557   4.780  15.995 -0.1218 -0.4139  0.8634
 3791TIP3    H132864   3.537   4.736  16.077  1.6017 -0.1613  1.4464
 3791TIP3    H232865   3.651   4.799  15.999  0.0896 -0.7291 -1.3317
 3792TIP3   OH232866   0.669   6.573   0.575  0.3577  0.5983 -0.4838
 3792TIP3    H132867   0.611   6.507   0.537  0.6756  1.9400 -3.5770
 3792TIP3    H232868   0.610   6.644   0.600  0.4089  0.9171 -1.2504
 3793TIP3   OH232869   5.351   3.436   3.271  0.2580  0.1060  0.3899
 3793TIP3    H132870   5.383   3.345   3.272  1.0277  0.3391 -1.0510
 3793TIP3    H232871   5.425   3.487   3.239 -1.0824  0.8385 -1.7403
 3794TIP3   OH232872   0.890   0.303  16.867  0.3023  0.5132 -0.0161
 3794TIP3    H132873   0.890   0.209  16.881  2.6612  0.5604  0.8168
 3794TIP3    H232874   0.828   0.317  16.796  0.9083 -1.8425 -1.1099
 3795TIP3   OH232875   3.672   5.892   3.858  0.6832 -0.1836 -0.1368
 3795TIP3    H132876   3.594   5.862   3.813  1.2339 -2.9910  0.6256
 3795TIP3    H232877   3.655   5.985   3.877 -2.9339 -0.9435  1.0180
 3796TIP3   OH232878   2.397   3.229   3.956  0.4128  0.5748  0.1922
 3796TIP3    H132879   2.397   3.220   4.051 -2.0688  1.5216  0.3633
 3796TIP3    H232880   2.359   3.147   3.924  0.1906  0.7193  0.0870
 3797TIP3   OH232881   6.073   2.977   1.727  0.3050  0.5494 -0.0308
 3797TIP3    H132882   6.103   2.935   1.808  1.0461  0.3286 -0.4176
 3797TIP3    H232883   6.137   3.046   1.711 -0.5788  1.4789  0.2803
 3798TIP3   OH232884   0.667   6.485   0.935  0.0825 -0.2865 -0.3552
 3798TIP3    H132885   0.654   6.475   0.840 -0.2442 -0.3859 -0.3028
 3798TIP3    H232886   0.762   6.484   0.946  0.1309  0.0858 -0.7189
 3799TIP3   OH232887   6.416   4.602  10.855  0.6166  0.1660  0.5646
 3799TIP3    H132888   6.352   4.561  10.797  0.5188 -0.3817  1.0579
 3799TIP3    H232889   6.431   4.689  10.816 -1.9986  1.1836  1.6019
 3800TIP3   OH232890   1.309   4.782   3.238 -0.3928  0.2359 -0.0313
 3800TIP3    H132891   1.361   4.754   3.313 -2.1282 -1.7107  0.5402
 3800TIP3    H232892   1.364   4.845   3.192  1.9402 -0.8177  1.1941
 3801TIP3   OH232893   0.981   2.189  11.675 -0.3969 -0.4411 -0.2084
 3801TIP3    H132894   0.898   2.149  11.703 -0.9382  0.9007  0.1871
 3801TIP3    H232895   1.047   2.123  11.695 -1.0050 -0.3986  2.2559
 3802TIP3   OH232896   3.624   2.422   1.616 -0.0548  0.6070 -0.1047
 3802TIP3    H132897   3.593   2.511   1.629  0.8027  1.0694 -1.1581
 3802TIP3    H232898   3.706   2.431   1.566  0.9872 -0.6532  1.2567
 3803TIP3   OH232899   3.358   4.356   4.965 -0.6459 -0.2662 -0.1235
 3803TIP3    H132900   3.383   4.374   5.056  1.8168 -0.5432 -0.6743
 3803TIP3    H232901   3.386   4.265   4.951  1.7350  0.6372 -1.9297
 3804TIP3   OH232902   5.179   2.468   2.809  0.2687 -0.1030  0.3922
 3804TIP3    H132903   5.088   2.473   2.840  0.4170 -1.1570  1.0596
 3804TIP3    H232904   5.231   2.488   2.887  0.6254 -1.1693  0.4362
 3805TIP3   OH232905   4.929   1.964  14.748  0.0380 -0.0819  0.6556
 3805TIP3    H132906   4.979   2.015  14.684  1.7200 -0.7780  1.3441
 3805TIP3    H232907   4.844   2.008  14.753  0.6323  1.2737 -0.4294
 3806TIP3   OH232908   6.496   0.207   4.583  0.1482 -0.0860  0.1330
 3806TIP3    H132909   6.565   0.214   4.649  0.6238  1.1519 -0.4708
 3806TIP3    H232910   6.526   0.137   4.525  0.4911 -0.1167  0.3430
 3807TIP3   OH232911   4.797   6.194   5.187 -0.5373  0.7844  0.5325
 3807TIP3    H132912   4.792   6.274   5.240 -0.7805  0.8452  0.4190
 3807TIP3    H232913   4.828   6.224   5.101 -0.9354  0.7994  0.3958
 3808TIP3   OH232914   6.054   3.709   1.634  0.5132  0.6757  0.3733
 3808TIP3    H132915   6.129   3.679   1.685 -0.2204 -3.1824 -0.4764
 3808TIP3    H232916   6.090   3.732   1.548  0.8305 -1.0141  0.0189
 3809TIP3   OH232917   3.403   6.501   2.362 -0.1329  0.5010  0.2573
 3809TIP3    H132918   3.390   6.419   2.315  2.7029  0.2445 -0.2340
 3809TIP3    H232919   3.368   6.569   2.304  2.2579  0.0765 -1.8276
 3810TIP3   OH232920   4.720   0.445   4.121 -0.2721  0.4620 -0.1565
 3810TIP3    H132921   4.755   0.432   4.209  2.6060  1.0358 -1.0952
 3810TIP3    H232922   4.791   0.417   4.062 -1.6965  1.0381 -2.2828
 3811TIP3   OH232923   3.745   1.100  14.666 -0.4320 -0.0662 -0.1758
 3811TIP3    H132924   3.805   1.153  14.614  0.6073 -0.7824  0.2695
 3811TIP3    H232925   3.677   1.161  14.695 -0.3673  0.5916 -1.3453
 3812TIP3   OH232926   4.859   0.224   2.829 -0.5568  0.1617 -0.1199
 3812TIP3    H132927   4.801   0.154   2.860  0.5325  0.4486  2.8524
 3812TIP3    H232928   4.935   0.220   2.887  1.3214  1.3792 -2.3401
 3813TIP3   OH232929   5.575   1.832  14.328 -0.0977  0.0764 -0.3562
 3813TIP3    H132930   5.618   1.826  14.242 -2.6983  0.3229 -1.7678
 3813TIP3    H232931   5.481   1.836  14.308 -0.7239  2.4549  2.4096
 3814TIP3   OH232932   3.746   5.093  11.498  0.0040 -0.3204 -0.0794
 3814TIP3    H132933   3.683   5.022  11.487 -0.7878  0.3067  0.3038
 3814TIP3    H232934   3.751   5.135  11.412  2.6068 -2.5109 -1.1368
 3815TIP3   OH232935   0.283   2.220  11.988 -0.1426  0.1485 -0.0429
 3815TIP3    H132936   0.191   2.246  11.999  0.0181  0.8420 -0.2959
 3815TIP3    H232937   0.280   2.125  11.984 -0.5387 -0.0715  2.9481
 3816TIP3   OH232938   2.172   4.886   5.577 -0.1766  0.6901  0.3128
 3816TIP3    H132939   2.122   4.805   5.585 -0.7810  1.1092  0.8635
 3816TIP3    H232940   2.258   4.865   5.614 -0.5335  0.4776  1.0338
 3817TIP3   OH232941   4.990   1.508   3.089  0.1525  0.3715  0.3792
 3817TIP3    H132942   4.895   1.504   3.075  0.2932 -1.0724 -0.3295
 3817TIP3    H232943   5.028   1.481   3.006  1.2648  2.9896 -0.0335
 3818TIP3   OH232944   3.820   2.743   3.889  0.0407  0.3617  0.0219
 3818TIP3    H132945   3.891   2.805   3.901  0.5648 -0.3794  0.8711
 3818TIP3    H232946   3.778   2.738   3.974 -0.6859  0.3684 -0.3287
 3819TIP3   OH232947   2.055   1.306  11.832 -0.1190  0.1254  0.1222
 3819TIP3    H132948   2.114   1.232  11.821  0.6648  0.6991  0.3616
 3819TIP3    H232949   2.084   1.348  11.913  0.4504  1.5679 -0.7729
 3820TIP3   OH232950   6.514   5.467  12.400 -0.3540  0.1573 -0.4284
 3820TIP3    H132951   6.490   5.552  12.437  0.5211  0.2086  0.0637
 3820TIP3    H232952   6.550   5.418  12.474  0.1898 -0.2304 -0.9364
 3821TIP3   OH232953   6.223   0.858   5.235  0.7500  0.1054  0.2115
 3821TIP3    H132954   6.182   0.825   5.156 -0.2540  0.4607  0.5747
 3821TIP3    H232955   6.317   0.859   5.215  0.7644 -2.2709 -0.0516
 3822TIP3   OH232956   1.664   4.690   1.374  0.0210  0.4143  0.0803
 3822TIP3    H132957   1.637   4.645   1.454  0.3118 -2.4632 -1.3414
 3822TIP3    H232958   1.583   4.701   1.324  0.3037 -1.0030 -0.7253
 3823TIP3   OH232959   0.261   0.840  15.988  0.2479 -0.4297  0.0403
 3823TIP3    H132960   0.287   0.848  16.080 -1.8694  0.9787  0.5769
 3823TIP3    H232961   0.168   0.861  15.987 -0.3606 -2.7664 -2.1180
 3824TIP3   OH232962   1.753   3.453   5.715  0.4858 -0.2224  0.1620
 3824TIP3    H132963   1.834   3.403   5.723 -0.2379 -1.6626 -1.0881
 3824TIP3    H232964   1.704   3.433   5.795 -0.3083 -2.5597 -0.8285
 3825TIP3   OH232965   0.371   2.534   0.136  0.4229 -0.4619  0.2111
 3825TIP3    H132966   0.448   2.507   0.186 -0.4080 -1.3182  1.0736
 3825TIP3    H232967   0.310   2.461   0.145  0.4039 -0.8872 -2.4874
 3826TIP3   OH232968   4.802   1.677  15.473 -0.5079  0.6167  0.1077
 3826TIP3    H132969   4.812   1.637  15.560  0.1966 -0.0543 -0.2720
 3826TIP3    H232970   4.850   1.759  15.479 -0.8220  0.7754  0.4809
 3827TIP3   OH232971   1.687   5.801  12.001  0.7658 -0.1548 -0.2065
 3827TIP3    H132972   1.703   5.780  11.909  1.0352  1.7795 -0.6508
 3827TIP3    H232973   1.655   5.719  12.039  0.0082 -0.8296 -2.1550
 3828TIP3   OH232974   0.252   6.029  15.304 -0.1758 -0.1474  0.2655
 3828TIP3    H132975   0.201   6.012  15.383 -1.5832 -0.1941 -0.6294
 3828TIP3    H232976   0.258   5.944  15.260  1.1762 -0.2608  0.6272
 3829TIP3   OH232977   1.924   5.368   3.472  0.1967 -0.5239  0.6119
 3829TIP3    H132978   1.830   5.353   3.477 -0.3174  1.8390 -0.4471
 3829TIP3    H232979   1.936   5.458   3.501  1.7378  0.1528 -1.7925
 3830TIP3   OH232980   0.923   0.982  16.545  0.9804 -0.1110  0.1314
 3830TIP3    H132981   1.008   0.996  16.502  1.1937  2.9232  1.3296
 3830TIP3    H232982   0.929   1.032  16.626 -0.7136 -2.7766  2.0335
 3831TIP3   OH232983   0.312   6.242   4.710 -0.1457  0.2628  0.2479
 3831TIP3    H132984   0.227   6.199   4.695  0.5432 -1.1633  0.2451
 3831TIP3    H232985   0.376   6.173   4.694  0.9685  0.9454  1.6100
 3832TIP3   OH232986   4.201   3.886  14.635 -0.6000  0.9066 -0.3701
 3832TIP3    H132987   4.295   3.903  14.645  0.3739 -2.5966 -2.0669
 3832TIP3    H232988   4.171   3.952  14.573  1.6813 -0.0224 -2.6619
 3833TIP3   OH232989   4.733   0.122   3.422  0.1678  0.2320 -0.1322
 3833TIP3    H132990   4.736   0.164   3.509  0.1157  0.0135 -0.0256
 3833TIP3    H232991   4.774   0.187   3.364  1.4057 -0.1513  0.2728
 3834TIP3   OH232992   2.765   5.238  11.613  0.2553  0.4306  0.6000
 3834TIP3    H132993   2.817   5.200  11.684  0.5017 -1.3332 -0.4770
 3834TIP3    H232994   2.819   5.229  11.535 -0.3054  1.6822  0.0414
 3835TIP3   OH232995   4.933   3.372   0.183 -0.3694  0.4972 -0.3418
 3835TIP3    H132996   4.905   3.352   0.094 -0.2561  1.5255 -0.6280
 3835TIP3    H232997   4.937   3.287   0.227 -2.0165  0.1239 -0.8381
 3836TIP3   OH232998   3.408   6.206  16.648 -0.2836 -0.4791  0.0923
 3836TIP3    H132999   3.458   6.147  16.705  0.0777 -1.6559 -1.3715
 3836TIP3    H233000   3.461   6.286  16.645  1.6822 -1.7344 -1.5096
 3837TIP3   OH233001   4.170   4.398   1.490  0.6577 -0.5504  0.0071
 3837TIP3    H133002   4.139   4.317   1.530  1.3524 -1.5143 -1.3252
 3837TIP3    H233003   4.260   4.408   1.521  0.5662 -0.2702  0.1865
 3838TIP3   OH233004   5.301   5.445   3.103 -0.7251 -0.4774 -0.1587
 3838TIP3    H133005   5.259   5.525   3.134 -1.0643 -1.1793  1.2738
 3838TIP3    H233006   5.233   5.378   3.111 -0.0276 -1.1814 -0.0009
 3839TIP3   OH233007   5.796   4.076   3.736 -0.1728 -0.0271  0.2003
 3839TIP3    H133008   5.878   4.061   3.782  1.1296  2.6262 -1.0140
 3839TIP3    H233009   5.823   4.095   3.646 -2.1699  0.2787 -0.3731
 3840TIP3   OH233010   2.974   3.531  14.278  0.3756 -0.4678 -0.3441
 3840TIP3    H133011   2.984   3.548  14.372 -0.7043  1.7533 -0.5555
 3840TIP3    H233012   3.051   3.570  14.238  0.1398 -0.1311 -0.4765
 3841TIP3   OH233013   1.803   0.790   0.209  0.3810  0.1079  0.2965
 3841TIP3    H133014   1.725   0.771   0.157 -0.4231 -1.8507  2.0858
 3841TIP3    H233015   1.826   0.880   0.185 -1.0250 -0.0656 -2.0027
 3842TIP3   OH233016   5.608   1.017  16.248 -0.3566  0.0905 -0.2957
 3842TIP3    H133017   5.605   1.061  16.332 -0.7694  2.9948 -1.7196
 3842TIP3    H233018   5.607   0.924  16.269  0.5847  0.7018  2.9077
 3843TIP3   OH233019   0.150   6.531   0.776  0.1165  0.5336 -0.3550
 3843TIP3    H133020   0.067   6.578   0.769  0.1265  0.4440 -1.2437
 3843TIP3    H233021   0.140   6.474   0.852 -1.3735 -0.9200 -1.5765
 3844TIP3   OH233022   3.277   4.531   0.205 -0.2521 -0.4375  0.0386
 3844TIP3    H133023   3.202   4.569   0.159 -0.3862  0.3562  0.8786
 3844TIP3    H233024   3.242   4.506   0.291  0.5817  0.5655  0.6932
 3845TIP3   OH233025   2.621   3.771   1.044 -0.5515  0.3074  0.6279
 3845TIP3    H133026   2.605   3.846   0.988  1.4085  1.6564  1.7420
 3845TIP3    H233027   2.663   3.707   0.986  1.5876  1.7324  0.4748
 3846TIP3   OH233028   2.504   6.297   0.738 -0.1540  0.4043 -0.1528
 3846TIP3    H133029   2.584   6.301   0.685  0.2950 -0.2450  0.4490
 3846TIP3    H233030   2.478   6.205   0.735  0.6215  0.0726  1.7826
 3847TIP3   OH233031   2.765   2.769  16.395  0.2023 -0.5315  0.1141
 3847TIP3    H133032   2.810   2.811  16.321  0.5841  0.4772  0.9044
 3847TIP3    H233033   2.734   2.686  16.359 -0.9303  0.5693 -1.6095
 3848TIP3   OH233034   6.428   1.758   1.477 -0.8841  0.7967 -0.2556
 3848TIP3    H133035   6.362   1.688   1.474  0.1780 -0.3448  1.2327
 3848TIP3    H233036   6.417   1.797   1.564  0.6196  0.3242  0.1728
 3849TIP3   OH233037   2.497   0.158  15.812 -0.4879 -0.7566 -0.1041
 3849TIP3    H133038   2.537   0.168  15.725 -0.8836  1.7309 -0.0821
 3849TIP3    H233039   2.405   0.142  15.794 -0.7245  0.5721 -0.1943
 3850TIP3   OH233040   0.492   3.980   1.499  0.0967 -0.0732 -0.5148
 3850TIP3    H133041   0.545   3.909   1.464  3.1085  1.1586  1.1524
 3850TIP3    H233042   0.441   3.941   1.570  1.3680 -0.6579  0.0855
 3851TIP3   OH233043   0.736   1.215  12.327  0.4808 -0.0494 -0.7160
 3851TIP3    H133044   0.828   1.206  12.351  0.5013  2.9520  0.7751
 3851TIP3    H233045   0.739   1.260  12.242  0.3456 -1.3886 -1.4557
 3852TIP3   OH233046   0.495   2.284   1.174 -0.2888  0.2053  0.0921
 3852TIP3    H133047   0.442   2.362   1.162 -0.2368  0.3060  0.4900
 3852TIP3    H233048   0.507   2.278   1.269  0.3512  0.1530  0.0164
 3853TIP3   OH233049   2.489   2.924  17.036 -0.5794 -0.2471  0.1156
 3853TIP3    H133050   2.544   2.968  17.101  1.5138 -1.2552 -0.9000
 3853TIP3    H233051   2.459   2.844  17.080 -0.7517  0.0125  0.4717
 3854TIP3   OH233052   2.002   1.819   1.411  0.2169 -0.3189  0.4371
 3854TIP3    H133053   2.023   1.754   1.479 -0.1004  0.5815  1.4247
 3854TIP3    H233054   2.084   1.830   1.363  0.2486 -1.5146  0.1954
 3855TIP3   OH233055   1.259   0.202   4.835  0.2182 -0.4798 -0.4302
 3855TIP3    H133056   1.166   0.192   4.856  0.0253 -1.4561 -1.5982
 3855TIP3    H233057   1.280   0.124   4.784  1.6801 -0.2524 -0.2156
 3856TIP3   OH233058   5.201   5.391   4.875 -1.0047  0.1562  0.1005
 3856TIP3    H133059   5.228   5.322   4.814  0.2087  0.9847 -0.3408
 3856TIP3    H233060   5.136   5.349   4.931  0.9075 -1.9049  0.9450
 3857TIP3   OH233061   0.515   2.301  16.122  0.3256 -0.0731  0.1730
 3857TIP3    H133062   0.506   2.218  16.169 -1.0559 -0.2740 -0.4100
 3857TIP3    H233063   0.427   2.338  16.121  1.1395  2.1080  1.6410
 3858TIP3   OH233064   4.083   5.772  15.115 -0.1508  0.7152  0.3487
 3858TIP3    H133065   3.993   5.742  15.128  0.1635 -0.2882  0.2974
 3858TIP3    H233066   4.080   5.866  15.133 -0.9753  0.4809  1.5160
 3859TIP3   OH233067   2.094   0.255  11.066  0.1986 -0.3060 -0.2696
 3859TIP3    H133068   2.156   0.322  11.038 -0.6142  0.3214 -0.5828
 3859TIP3    H233069   2.122   0.176  11.019  0.0710  0.2562 -1.3218
 3860TIP3   OH233070   6.207   6.536   4.721  0.2021 -0.3917  0.1479
 3860TIP3    H133071   6.113   6.528   4.704 -0.0478 -3.2542  2.0811
 3860TIP3    H233072   6.244   6.569   4.639 -2.3394 -0.2051 -1.0150
 3861TIP3   OH233073   0.992   0.559   5.812 -0.4568 -0.5577  0.2064
 3861TIP3    H133074   0.940   0.560   5.892 -2.8465 -0.5584 -1.2467
 3861TIP3    H233075   1.017   0.467   5.800 -0.8648 -0.7040  0.4810
 3862TIP3   OH233076   2.488   0.306  13.154 -0.2500 -0.6080  0.3595
 3862TIP3    H133077   2.527   0.233  13.202 -1.4199 -1.6559 -0.2284
 3862TIP3    H233078   2.395   0.302  13.175 -0.1351  1.7298  1.5860
 3863TIP3   OH233079   5.426   1.441   1.070 -0.4163  0.0583  0.3933
 3863TIP3    H133080   5.494   1.379   1.096 -0.0384  0.1113 -0.4422
 3863TIP3    H233081   5.426   1.438   0.974 -1.6706 -0.0307  0.3781
 3864TIP3   OH233082   0.834   2.312   1.632 -1.1288  0.5958  0.6273
 3864TIP3    H133083   0.762   2.362   1.670 -2.2692 -0.3699 -0.1752
 3864TIP3    H233084   0.792   2.252   1.570  0.1921 -1.1668  1.3419
 3865TIP3   OH233085   4.323   2.079  14.671 -0.0434  0.0299 -0.9730
 3865TIP3    H133086   4.256   2.129  14.717 -0.6492 -0.6964 -1.0588
 3865TIP3    H233087   4.279   1.999  14.643  1.4595 -1.6613  1.1434
 3866TIP3   OH233088   6.132   2.502  11.301  0.4591 -0.0438 -0.5466
 3866TIP3    H133089   6.176   2.476  11.220  1.6752  2.2504 -0.6854
 3866TIP3    H233090   6.192   2.475  11.370  1.3701  1.5809 -0.6558
 3867TIP3   OH233091   6.301   4.104  11.324  0.4580 -0.3025 -0.4166
 3867TIP3    H133092   6.334   4.132  11.409 -1.0177  1.2616 -0.3162
 3867TIP3    H233093   6.218   4.150  11.314 -0.6951 -2.4579 -1.5692
 3868TIP3   OH233094   3.937   5.443   2.353 -0.0082 -0.6941  0.1714
 3868TIP3    H133095   3.886   5.469   2.276  1.4449  0.6170 -0.3908
 3868TIP3    H233096   3.886   5.474   2.428 -0.3412  0.0381 -0.3518
 3869TIP3   OH233097   1.277   2.299  14.268  0.2286  0.2224  0.1913
 3869TIP3    H133098   1.209   2.334  14.325  0.6879  0.8054  0.3993
 3869TIP3    H233099   1.316   2.228  14.319  0.4779  0.5841  0.5145
 3870TIP3   OH233100   1.672   0.003   0.413  0.1355  0.2433  0.9961
 3870TIP3    H133101   1.759   0.015   0.453 -0.4691 -0.8880  2.7442
 3870TIP3    H233102   1.652   0.089   0.376  1.8230  0.6450  0.8961
 3871TIP3   OH233103   4.812   5.194  13.899 -0.0015  0.3807  0.4323
 3871TIP3    H133104   4.750   5.242  13.955  1.1020  0.3089  1.7601
 3871TIP3    H233105   4.896   5.201  13.944  0.3648 -2.1704  0.3196
 3872TIP3   OH233106   3.641   6.500  12.051  0.3625 -0.7889 -0.4563
 3872TIP3    H133107   3.684   6.466  12.130 -0.5576 -2.1789 -0.5184
 3872TIP3    H233108   3.588   6.573  12.082  1.5654 -0.0185 -0.1401
 3873TIP3   OH233109   1.652   3.259  16.498 -0.0298 -0.7943  0.0675
 3873TIP3    H133110   1.670   3.165  16.489 -2.3210 -1.1806 -1.1981
 3873TIP3    H233111   1.570   3.272  16.452  0.5104  1.9763 -0.2750
 3874TIP3   OH233112   0.073   1.212   5.417  0.2828 -0.4395 -0.3040
 3874TIP3    H133113   0.031   1.153   5.479 -1.5848 -0.5100 -1.5681
 3874TIP3    H233114   0.062   1.169   5.332  0.0314  1.0922 -1.0753
 3875TIP3   OH233115   1.933   5.659  13.692  0.0038  0.2387  0.1547
 3875TIP3    H133116   1.862   5.595  13.690 -0.2392  0.4033  1.9744
 3875TIP3    H233117   1.993   5.625  13.759  0.8890  0.8740 -0.2992
 3876TIP3   OH233118   0.279   4.131   1.897 -0.3384 -0.2779 -0.6177
 3876TIP3    H133119   0.206   4.126   1.835 -1.5269  1.3387  0.5529
 3876TIP3    H233120   0.245   4.092   1.977 -0.2191  1.1604  0.1672
 3877TIP3   OH233121   6.391   1.584   0.776  0.1482  0.4740  0.0637
 3877TIP3    H133122   6.378   1.516   0.842  1.1820 -0.1703 -0.3699
 3877TIP3    H233123   6.308   1.633   0.775 -1.1785 -1.6403 -0.5991
 3878TIP3   OH233124   4.359   4.207  14.726  0.0491 -0.0254 -0.3937
 3878TIP3    H133125   4.368   4.189  14.819  0.0947 -1.0453 -0.5805
 3878TIP3    H233126   4.303   4.284  14.721 -0.9013 -0.6460  0.4446
 3879TIP3   OH233127   1.000   6.501   5.405  0.0213  0.0446 -0.0735
 3879TIP3    H133128   0.912   6.479   5.434  0.2853 -0.7711  0.1473
 3879TIP3    H233129   1.046   6.529   5.484  0.5498 -1.5424  0.2149
 3880TIP3   OH233130   0.864   6.726   2.290  0.3379 -0.0351 -0.3702
 3880TIP3    H133131   0.895   6.637   2.308 -0.3640 -0.1374  0.4096
 3880TIP3    H233132   0.924   6.782   2.339  0.8835 -0.0565 -0.9969
 3881TIP3   OH233133   3.310   1.603  16.120  0.1639 -0.2318 -0.7591
 3881TIP3    H133134   3.382   1.666  16.125  0.0464  0.1070 -2.6530
 3881TIP3    H233135   3.248   1.632  16.186  0.5822  1.0274 -0.8923
 3882TIP3   OH233136   2.195   6.638   1.656 -0.1372 -0.4251 -0.1200
 3882TIP3    H133137   2.201   6.718   1.707  1.4923 -0.8585  0.4263
 3882TIP3    H233138   2.221   6.568   1.716 -1.3282 -1.3561 -0.6381
 3883TIP3   OH233139   1.482   2.721   4.376 -0.0647  0.1097 -0.1994
 3883TIP3    H133140   1.566   2.721   4.423  0.8471 -0.0871 -1.7535
 3883TIP3    H233141   1.492   2.653   4.310 -1.9316 -0.7549  0.3441
 3884TIP3   OH233142   5.234   1.138  14.883 -0.9527  0.2654  0.1130
 3884TIP3    H133143   5.202   1.052  14.855  1.6156 -0.2227 -1.6303
 3884TIP3    H233144   5.302   1.160  14.821 -1.2473  3.4551  0.7431
 3885TIP3   OH233145   4.870   3.797  12.235 -0.5349  0.7976 -0.3607
 3885TIP3    H133146   4.956   3.813  12.274 -0.5666 -2.4788  1.4766
 3885TIP3    H233147   4.811   3.856  12.282  0.6941  3.7388 -2.2648
 3886TIP3   OH233148   4.708   6.725  15.903  0.3073 -0.1529  0.2124
 3886TIP3    H133149   4.801   6.727  15.926  0.9940 -1.9059 -1.9845
 3886TIP3    H233150   4.675   6.812  15.925  2.0794  0.0358  2.4262
 3887TIP3   OH233151   5.891   2.594   0.569  0.1243 -0.1292 -0.2461
 3887TIP3    H133152   5.796   2.582   0.565  0.2260 -0.6630 -2.0134
 3887TIP3    H233153   5.903   2.666   0.631 -1.1566 -2.4810  3.0943
 3888TIP3   OH233154   3.293   0.608  16.621 -0.3458  0.1481 -0.2132
 3888TIP3    H133155   3.247   0.651  16.549 -2.2330 -0.5838  0.4964
 3888TIP3    H233156   3.235   0.618  16.696  0.3841 -1.3618  0.5965
 3889TIP3   OH233157   4.033   0.273  11.669  0.0676 -0.5229  0.6273
 3889TIP3    H133158   4.041   0.270  11.574  0.8563  0.7613  0.6386
 3889TIP3    H233159   3.947   0.311  11.685  0.4041  0.3345  0.4171
 3890TIP3   OH233160   4.011   1.375  12.847 -0.5200  0.5274 -0.3709
 3890TIP3    H133161   4.033   1.463  12.878 -0.6746 -0.1117  1.6681
 3890TIP3    H233162   4.074   1.359  12.776  2.3090  0.7505  1.8790
 3891TIP3   OH233163   1.373   4.978  14.873 -0.1691 -0.1894  0.1518
 3891TIP3    H133164   1.339   5.050  14.926  0.5167 -0.9765  1.7028
 3891TIP3    H233165   1.368   4.901  14.929  1.1237 -0.9470 -0.7093
 3892TIP3   OH233166   3.824   5.580  16.867  0.3253  0.0367  0.3974
 3892TIP3    H133167   3.916   5.592  16.841  0.0437  1.1324 -0.1327
 3892TIP3    H233168   3.774   5.633  16.806 -0.4722  1.4637  2.1843
 3893TIP3   OH233169   2.059   6.011  16.482 -0.3441 -0.0653  0.0200
 3893TIP3    H133170   2.104   5.996  16.565 -0.1095 -1.5398 -0.3448
 3893TIP3    H233171   2.076   5.932  16.431 -0.7098  0.7095 -1.3366
 3894TIP3   OH233172   2.284   6.342  16.006 -0.7773  0.2118 -0.4221
 3894TIP3    H133173   2.239   6.372  16.085 -0.0382 -0.0824  0.1291
 3894TIP3    H233174   2.306   6.422  15.959  1.0214  0.5917  0.9420
 3895TIP3   OH233175   5.485   6.772   5.389 -0.5316  0.0224 -0.2337
 3895TIP3    H133176   5.494   6.856   5.343  0.8204  0.6312  1.0581
 3895TIP3    H233177   5.391   6.756   5.390 -0.9027  1.9644  0.2133
 3896TIP3   OH233178   4.628   5.176  12.772 -0.7544 -0.6114 -0.4581
 3896TIP3    H133179   4.577   5.255  12.793  0.0871  0.1500 -1.1875
 3896TIP3    H233180   4.683   5.162  12.849 -0.6589 -0.2806 -0.4647
 3897TIP3   OH233181   3.341   4.040  11.260  0.6771  0.4968 -0.0336
 3897TIP3    H133182   3.403   4.031  11.331  0.3936 -1.6516  0.0139
 3897TIP3    H233183   3.273   4.099  11.294  0.9892  0.1949  1.1494
 3898TIP3   OH233184   3.729   4.274  12.074  0.4315 -0.6829 -0.2755
 3898TIP3    H133185   3.766   4.263  11.987  1.8385 -0.5719  0.2730
 3898TIP3    H233186   3.797   4.320  12.123 -0.6183 -0.1036  0.6938
 3899TIP3   OH233187   1.338   4.260   1.470 -0.1255 -0.1491  0.1837
 3899TIP3    H133188   1.310   4.314   1.396 -0.2840 -3.2559 -2.2303
 3899TIP3    H233189   1.433   4.258   1.464 -0.1415 -0.4476  0.0396
 3900TIP3   OH233190   5.626   0.531  11.485  0.2797  0.7272  0.1077
 3900TIP3    H133191   5.541   0.546  11.443  0.0121 -0.9641 -0.0260
 3900TIP3    H233192   5.615   0.450  11.535  2.8428 -1.9238 -3.0966
 3901TIP3   OH233193   3.932   4.672  13.895  0.1742  0.1401 -0.3045
 3901TIP3    H133194   3.968   4.592  13.933 -0.6684 -0.4271 -0.6692
 3901TIP3    H233195   3.879   4.641  13.821 -0.7813  0.9709  0.0157
 3902TIP3   OH233196   0.448   3.572  12.090 -0.3080 -0.4254  0.3793
 3902TIP3    H133197   0.543   3.574  12.076 -0.3110  0.5468  0.4214
 3902TIP3    H233198   0.424   3.664  12.102 -1.5495 -0.4218 -1.6610
 3903TIP3   OH233199   4.132   1.147  11.500 -0.1014 -0.2988 -0.2114
 3903TIP3    H133200   4.093   1.066  11.469  0.2200 -0.1759 -0.9436
 3903TIP3    H233201   4.070   1.216  11.474 -0.2562 -0.2831  0.1937
 3904TIP3   OH233202   2.642   1.799  13.918 -0.3967  0.1508  0.1802
 3904TIP3    H133203   2.571   1.855  13.946 -0.8287 -0.8958  1.2561
 3904TIP3    H233204   2.599   1.721  13.882  0.1968  0.1120 -0.4919
 3905TIP3   OH233205   2.273   3.147   1.917  0.6152  0.2535 -0.1162
 3905TIP3    H133206   2.247   3.125   2.007  0.8717 -1.8787 -0.5087
 3905TIP3    H233207   2.356   3.195   1.927  1.3806 -1.1793  0.7657
 3906TIP3   OH233208   2.393   5.660   0.869 -0.5262 -0.1217 -0.5831
 3906TIP3    H133209   2.360   5.699   0.950 -1.2121 -0.2116 -0.8173
 3906TIP3    H233210   2.393   5.566   0.886 -0.9370 -0.1601 -0.7821
 3907TIP3   OH233211   5.780   1.203   5.675 -0.0468 -0.7055  0.3959
 3907TIP3    H133212   5.685   1.199   5.663  0.0619 -4.6206 -0.4978
 3907TIP3    H233213   5.792   1.197   5.769 -0.6732 -0.4174  0.5025
 3908TIP3   OH233214   6.560   3.066   0.096 -0.0438  0.0646  0.0874
 3908TIP3    H133215   6.603   3.011   0.162 -0.7993 -1.6089 -0.7449
 3908TIP3    H233216   6.490   3.111   0.143  0.6363  0.3835  0.8035
 3909TIP3   OH233217   0.826   2.682   6.008 -0.1881 -0.5227 -0.5572
 3909TIP3    H133218   0.748   2.736   6.019 -0.4755 -1.0558  0.0574
 3909TIP3    H233219   0.844   2.647   6.095  1.2681  0.3117 -0.4986
 3910TIP3   OH233220   2.593   0.047   0.408 -0.0266  0.0188  0.0177
 3910TIP3    H133221   2.645   0.113   0.362  0.0487 -0.2667 -0.3102
 3910TIP3    H233222   2.543   0.004   0.340 -0.7470  0.3289  0.3434
 3911TIP3   OH233223   6.034   3.986  15.949  0.2200  0.4994 -0.1490
 3911TIP3    H133224   5.942   3.963  15.956  0.2793  0.0931 -0.5964
 3911TIP3    H233225   6.039   4.077  15.977 -0.2638  0.4266  0.1860
 3912TIP3   OH233226   4.031   6.431  15.445 -0.2981  0.6969  0.6302
 3912TIP3    H133227   4.099   6.392  15.500 -0.7193  0.3699  0.9200
 3912TIP3    H233228   3.954   6.376  15.457 -0.3990  0.6111 -0.3021
 3913TIP3   OH233229   0.848   6.797  12.316 -0.0113  0.0315  0.4882
 3913TIP3    H133230   0.769   6.745  12.300 -0.2206  0.5310 -0.1311
 3913TIP3    H233231   0.901   6.785  12.238  0.5614 -0.3576  0.9357
 3914TIP3   OH233232   2.897   2.903  13.220  0.0244 -0.7764  0.0314
 3914TIP3    H133233   2.804   2.880  13.213 -0.1963 -0.5204  1.6853
 3914TIP3    H233234   2.916   2.895  13.313  1.9633 -1.9284 -0.4027
 3915TIP3   OH233235   0.009   0.622   0.015 -0.0052  0.3909 -0.3820
 3915TIP3    H133236  -0.084   0.629  -0.006 -0.5947  0.7408  2.0647
 3915TIP3    H233237   0.011   0.590   0.105  2.2241  1.9949  0.2142
 3916TIP3   OH233238   0.281   5.539  12.290 -0.4396 -0.0719 -0.7649
 3916TIP3    H133239   0.229   5.589  12.226 -0.2660 -0.6465 -1.3758
 3916TIP3    H233240   0.224   5.465  12.313 -0.1616 -0.3375 -0.9235
 3917TIP3   OH233241   2.613   1.394   1.760 -0.1730  0.1855  0.5234
 3917TIP3    H133242   2.683   1.403   1.826 -0.5599 -0.9770  1.1070
 3917TIP3    H233243   2.652   1.430   1.680  1.0226 -0.2234  0.8921
 3918TIP3   OH233244   5.081   6.503  13.452  0.6985 -0.2041  0.1045
 3918TIP3    H133245   5.036   6.587  13.441  2.1086  0.6703  0.6354
 3918TIP3    H233246   5.031   6.456  13.518 -0.2696  0.0857 -0.4054
 3919TIP3   OH233247   5.326   2.528  13.188  0.7586 -0.0636  0.3872
 3919TIP3    H133248   5.232   2.527  13.204  0.9648 -1.3873  1.6916
 3919TIP3    H233249   5.336   2.484  13.103  0.2262 -0.0608  0.3204
 3920TIP3   OH233250   0.718   6.101  15.616  0.0729 -0.2145 -0.2557
 3920TIP3    H133251   0.779   6.175  15.615 -2.5562  2.1773  1.2109
 3920TIP3    H233252   0.675   6.104  15.530 -0.5894  0.5024  0.0928
 3921TIP3   OH233253   3.290   6.410  11.879  0.0218  0.2538  0.6314
 3921TIP3    H133254   3.262   6.359  11.956  2.1937  0.0138  1.3412
 3921TIP3    H233255   3.310   6.343  11.813  1.4585  0.1901  1.0741
 3922TIP3   OH233256   5.688   1.455   5.150 -0.5601 -0.2197 -0.0916
 3922TIP3    H133257   5.740   1.375   5.151 -0.2906 -0.0457  1.0651
 3922TIP3    H233258   5.725   1.509   5.220 -1.3263  0.5380 -0.2501
 3923TIP3   OH233259   6.538   6.763   3.945  0.2048 -0.0818 -0.1698
 3923TIP3    H133260   6.547   6.801   4.033  1.2097  0.5571 -0.5299
 3923TIP3    H233261   6.557   6.670   3.957 -2.2717 -0.5666  0.7257
 3924TIP3   OH233262   2.266   0.661  13.449  0.4638 -0.3891  0.2908
 3924TIP3    H133263   2.268   0.706  13.534  1.1264 -0.1906  0.1777
 3924TIP3    H233264   2.176   0.630  13.440 -0.3075  1.8437 -0.1123
 3925TIP3   OH233265   4.543   4.064   5.901 -0.2251  0.7349  0.7128
 3925TIP3    H133266   4.502   4.043   5.818 -1.5411  1.5396  1.1251
 3925TIP3    H233267   4.631   4.094   5.878 -0.0507 -0.4286 -0.2433
 3926TIP3   OH233268   6.710   3.937  13.722  0.3348  0.3815 -0.1986
 3926TIP3    H133269   6.775   3.871  13.699  1.1082  0.9543  0.2823
 3926TIP3    H233270   6.629   3.888  13.732  0.8645 -0.4840  0.0301
 3927TIP3   OH233271   1.146   4.534  13.387 -0.3966 -0.8091 -0.3563
 3927TIP3    H133272   1.192   4.535  13.303 -0.7229  0.4587 -0.5364
 3927TIP3    H233273   1.056   4.558  13.365 -0.3681  0.0508  0.4159
 3928TIP3   OH233274   1.748   2.343  16.955 -0.6620 -0.2173  0.1451
 3928TIP3    H133275   1.717   2.329  16.866  1.4666  1.2041 -0.8925
 3928TIP3    H233276   1.799   2.424  16.950  1.0931 -1.1169  2.2363
 3929TIP3   OH233277   4.962   3.500  11.501 -0.7570 -0.3818 -0.5694
 3929TIP3    H133278   5.014   3.577  11.526  0.1539 -0.8840 -0.8669
 3929TIP3    H233279   4.875   3.517  11.537 -0.5956  0.8361 -0.7188
 3930TIP3   OH233280   3.748   2.789  11.899 -0.2602  0.1760 -0.1077
 3930TIP3    H133281   3.681   2.839  11.853  1.8728  1.9696 -1.5065
 3930TIP3    H233282   3.778   2.724  11.836 -0.8514 -0.8306  0.6156
 3931TIP3   OH233283   4.652   1.640   1.604  0.2949 -0.1575  0.4145
 3931TIP3    H133284   4.724   1.676   1.551  1.6306 -0.7280  1.7587
 3931TIP3    H233285   4.602   1.716   1.632  0.2682  0.2384 -0.6711
 3932TIP3   OH233286   5.290   1.874   4.264  0.1752  0.2130 -0.2109
 3932TIP3    H133287   5.333   1.838   4.186 -2.8985  0.0225 -2.0199
 3932TIP3    H233288   5.321   1.820   4.336  2.7585  0.0570 -1.3444
 3933TIP3   OH233289   1.446   0.405   5.988 -0.0785 -0.0351  0.8669
 3933TIP3    H133290   1.445   0.380   6.080  1.3894 -2.5391  0.3213
 3933TIP3    H233291   1.476   0.496   5.987  2.6383 -0.7935  2.7933
 3934TIP3   OH233292   6.824   5.901   5.958  0.7906  0.1760  0.3562
 3934TIP3    H133293   6.824   5.982   6.009 -2.7345  1.6142 -1.5848
 3934TIP3    H233294   6.845   5.929   5.869  0.1311 -1.1598 -0.2384
 3935TIP3   OH233295   0.457   4.723   3.894 -0.0971  0.2601 -0.0433
 3935TIP3    H133296   0.546   4.748   3.918 -0.2737  0.2265  0.6430
 3935TIP3    H233297   0.464   4.633   3.864 -0.2096 -0.4159  1.8825
 3936TIP3   OH233298   4.559   5.909   2.693 -0.1197 -0.2557  0.6670
 3936TIP3    H133299   4.593   5.823   2.714 -0.7666 -0.1397  2.3455
 3936TIP3    H233300   4.477   5.892   2.646  0.4372 -0.5391 -0.2066
 3937TIP3   OH233301   1.169   3.731   4.759  0.4031  0.3599  0.4243
 3937TIP3    H133302   1.126   3.755   4.677 -0.8763  1.1584  1.3120
 3937TIP3    H233303   1.263   3.732   4.738  0.0874  0.2717 -1.0861
 3938TIP3   OH233304   1.563   2.751   3.081 -0.0177  0.7419  0.3844
 3938TIP3    H133305   1.559   2.834   3.034  0.9252  0.0575 -0.9797
 3938TIP3    H233306   1.652   2.748   3.117  0.5037 -0.3167 -0.8957
 3939TIP3   OH233307   3.205   0.667   0.281  0.2463  0.3203  0.3951
 3939TIP3    H133308   3.117   0.674   0.244  0.5642 -2.1980 -1.0010
 3939TIP3    H233309   3.238   0.757   0.280 -1.4074  0.9805 -1.3438
 3940TIP3   OH233310   1.133   3.233   0.650 -0.4957 -0.2821  0.4755
 3940TIP3    H133311   1.165   3.173   0.583 -1.6646 -0.2836 -0.1040
 3940TIP3    H233312   1.089   3.176   0.714  1.5384 -0.4118  1.8765
 3941TIP3   OH233313   1.245   6.428  14.657  0.3222 -0.5009  0.0277
 3941TIP3    H133314   1.285   6.479  14.586 -1.0362  0.4395 -0.0931
 3941TIP3    H233315   1.151   6.439  14.645 -0.0750 -3.2114 -0.1195
 3942TIP3   OH233316   1.809   4.727   1.105  0.2087  0.1383 -0.1058
 3942TIP3    H133317   1.714   4.741   1.113  0.3639  1.3842 -0.2220
 3942TIP3    H233318   1.848   4.789   1.166  1.0328  2.0266 -2.3894
 3943TIP3   OH233319   1.764   0.952  10.399 -0.1765  0.3499  0.0837
 3943TIP3    H133320   1.749   0.860  10.420 -1.2894  0.6399  0.6084
 3943TIP3    H233321   1.859   0.964  10.408  0.0590 -0.8889 -0.6186
 3944TIP3   OH233322   0.806   0.068   4.074 -0.1714 -0.1800 -0.0051
 3944TIP3    H133323   0.787   0.136   4.009 -0.5755  1.0670  1.3757
 3944TIP3    H233324   0.887   0.028   4.043 -1.7520 -1.5544 -2.7713
 3945TIP3   OH233325   5.303   0.659  13.818  0.1125  0.5611 -0.0766
 3945TIP3    H133326   5.245   0.588  13.844  1.1216  0.1126  1.0587
 3945TIP3    H233327   5.297   0.662  13.723 -0.9403 -0.1652 -0.0482
 3946TIP3   OH233328   2.075   3.124   2.823  0.1967 -0.4049 -0.1144
 3946TIP3    H133329   2.136   3.197   2.834 -0.5235 -0.1927  3.5903
 3946TIP3    H233330   2.121   3.048   2.859 -0.7432 -0.7993  0.2823
 3947TIP3   OH233331   3.658   1.278   1.897  0.4234 -0.4373  0.1093
 3947TIP3    H133332   3.669   1.243   1.808  0.7565 -0.3411  0.1089
 3947TIP3    H233333   3.650   1.373   1.884  1.3202 -0.3277  0.2340
 3948TIP3   OH233334   4.301   5.084  16.994  0.7377 -0.0927  0.2563
 3948TIP3    H133335   4.344   5.050  17.072 -0.4919 -0.8919  0.6101
 3948TIP3    H233336   4.220   5.124  17.026  0.3808 -0.1247 -0.5633
 3949TIP3   OH233337   6.601   6.362   3.275  0.1190 -0.4234 -0.5021
 3949TIP3    H133338   6.545   6.362   3.352  0.8228 -0.4395  0.0231
 3949TIP3    H233339   6.649   6.279   3.281  2.5141  0.9432  0.8118
 3950TIP3   OH233340   6.411   6.749  10.760  0.0467 -0.2006 -0.1020
 3950TIP3    H133341   6.439   6.724  10.847  0.9634 -0.4559 -0.4617
 3950TIP3    H233342   6.396   6.667  10.714  0.1826 -0.0766 -0.3747
 3951TIP3   OH233343   5.239   1.641   0.190 -0.3242 -0.3056 -0.1381
 3951TIP3    H133344   5.229   1.709   0.123 -0.6028 -0.7474 -0.5448
 3951TIP3    H233345   5.158   1.646   0.242  0.5839  1.1687  1.2330
 3952TIP3   OH233346   4.814   3.202   2.602 -0.7315 -0.5925 -0.4698
 3952TIP3    H133347   4.865   3.122   2.617 -0.1398 -0.3902 -1.3256
 3952TIP3    H233348   4.876   3.273   2.616 -1.2402 -0.2806  0.2200
 3953TIP3   OH233349   6.484   3.713   0.906 -0.1284  0.0478  1.0873
 3953TIP3    H133350   6.569   3.731   0.866 -0.6755 -0.8248 -0.5467
 3953TIP3    H233351   6.474   3.618   0.900 -1.9259  0.2602 -0.3523
 3954TIP3   OH233352   5.027   1.102   3.399 -0.3089  0.2151 -0.3564
 3954TIP3    H133353   5.099   1.164   3.412 -1.1023  1.3467 -1.2348
 3954TIP3    H233354   4.975   1.110   3.479 -0.3274  0.5689 -0.4035
 3955TIP3   OH233355   1.137   6.270   5.450  0.2927 -0.2671  0.0036
 3955TIP3    H133356   1.118   6.332   5.520 -1.4267  2.7478 -2.8088
 3955TIP3    H233357   1.064   6.208   5.452 -0.5623  0.7165  0.0051
 3956TIP3   OH233358   2.765   4.124   3.598  0.6202 -0.3319  0.2594
 3956TIP3    H133359   2.831   4.193   3.607  0.5850 -0.0378 -1.3800
 3956TIP3    H233360   2.688   4.158   3.643  1.1163 -0.0320  0.9005
 3957TIP3   OH233361   1.531   2.117  12.249  0.5962  0.1758 -0.1141
 3957TIP3    H133362   1.525   2.182  12.320 -0.4787  0.0585 -0.0817
 3957TIP3    H233363   1.506   2.034  12.291  1.3786 -0.1562 -0.2966
 3958TIP3   OH233364   3.919   6.128  17.046 -0.1651  0.1250  0.5328
 3958TIP3    H133365   3.907   6.038  17.078 -1.0276 -0.2400 -0.7691
 3958TIP3    H233366   3.855   6.138  16.976  0.8591  1.3042 -0.2818
 3959TIP3   OH233367   5.327   2.603   3.138  0.3488 -0.0222 -0.8054
 3959TIP3    H133368   5.248   2.649   3.166  2.4799  1.7170  3.0653
 3959TIP3    H233369   5.324   2.519   3.184  0.9989  0.2951 -0.1698
 3960TIP3   OH233370   5.298   6.194   1.748 -0.0803  0.2518 -0.0646
 3960TIP3    H133371   5.218   6.240   1.774  0.1375  0.3297  0.4897
 3960TIP3    H233372   5.318   6.226   1.660 -0.5977  0.3135 -0.1597
 3961TIP3   OH233373   3.798   0.920  12.977  0.4100 -0.0585  0.6573
 3961TIP3    H133374   3.708   0.953  12.973  0.7006  0.6760 -1.3876
 3961TIP3    H233375   3.851   0.992  12.941  1.8893 -0.3268  2.1466
 3962TIP3   OH233376   1.617   3.566  16.259 -0.2640  0.1859 -0.4648
 3962TIP3    H133377   1.546   3.521  16.212 -2.8287  0.3154  2.8856
 3962TIP3    H233378   1.633   3.511  16.335  2.0741  1.1276 -0.1891
 3963TIP3   OH233379   0.775   3.142  12.568 -0.4471  0.9411  0.1612
 3963TIP3    H133380   0.827   3.063  12.560 -0.7442  0.7465  0.1398
 3963TIP3    H233381   0.733   3.153  12.483 -0.2047  1.2652  0.0801
 3964TIP3   OH233382   2.390   0.117  12.813 -0.1952  0.2068 -0.6228
 3964TIP3    H133383   2.400   0.041  12.755  1.6732 -0.9045  1.0220
 3964TIP3    H233384   2.465   0.111  12.873 -1.2247  2.1335  0.9683
 3965TIP3   OH233385   4.814   5.806   6.432 -0.5867 -0.0352 -0.2259
 3965TIP3    H133386   4.732   5.848   6.460  1.1242  1.5740  2.8601
 3965TIP3    H233387   4.843   5.857   6.357 -1.8638 -0.0118 -0.7389
 3966TIP3   OH233388   3.378   0.862  16.894  0.2427  0.0763  0.1139
 3966TIP3    H133389   3.291   0.844  16.858  0.6727  0.7325 -1.2930
 3966TIP3    H233390   3.382   0.807  16.973 -1.5783  0.3155  0.4358
 3967TIP3   OH233391   2.875   6.451  13.706  0.1196  0.2088 -0.4573
 3967TIP3    H133392   2.892   6.358  13.695  1.1382  0.4239 -0.8462
 3967TIP3    H233393   2.907   6.471  13.794  1.4151  0.4884 -0.9601
 3968TIP3   OH233394   2.889   6.719   2.226  0.4188 -0.4957  0.1528
 3968TIP3    H133395   2.817   6.680   2.275 -0.4714 -0.9908 -1.4475
 3968TIP3    H233396   2.959   6.730   2.290 -0.4852 -1.5886  1.3922
 3969TIP3   OH233397   3.162   4.527  14.898 -0.2171  0.4089  0.7220
 3969TIP3    H133398   3.102   4.541  14.825 -0.0918  3.3736  1.0647
 3969TIP3    H233399   3.105   4.515  14.974 -0.3324 -1.2230  0.4166
 3970TIP3   OH233400   3.053   4.389   5.956  0.1919 -0.3050  0.0116
 3970TIP3    H133401   3.119   4.449   5.992  0.5479 -0.9887  0.5283
 3970TIP3    H233402   3.104   4.320   5.913 -0.1944 -0.6300  0.0735
 3971TIP3   OH233403   4.593   5.338  12.303  0.5478  0.3172 -0.2468
 3971TIP3    H133404   4.682   5.335  12.338  0.5704  0.4580 -0.2935
 3971TIP3    H233405   4.570   5.246  12.291  0.4148  0.2514  0.4475
 3972TIP3   OH233406   2.622   3.193  12.834  0.2245 -0.3308 -0.0409
 3972TIP3    H133407   2.532   3.178  12.862 -0.1051  0.4225 -0.6816
 3972TIP3    H233408   2.674   3.131  12.886 -0.8981 -2.4433 -1.3005
 3973TIP3   OH233409   3.619   4.089   3.872  0.1494  0.6160 -0.2092
 3973TIP3    H133410   3.668   4.030   3.814  0.7226  2.9491 -2.3050
 3973TIP3    H233411   3.672   4.093   3.952 -0.7806 -2.8837  0.7327
 3974TIP3   OH233412   5.263   0.700   4.251 -0.1681 -0.5920  0.1374
 3974TIP3    H133413   5.173   0.713   4.282 -0.5019  1.9955 -1.5814
 3974TIP3    H233414   5.258   0.624   4.194 -0.9891 -1.1649  0.9379
 3975TIP3   OH233415   3.590   4.582  15.748 -0.2527  0.0598  0.1601
 3975TIP3    H133416   3.546   4.622  15.823  1.6285  0.5402  1.0545
 3975TIP3    H233417   3.564   4.636  15.674 -1.0421  0.3975  0.6648
 3976TIP3   OH233418   0.126   2.215  12.269 -0.0395  0.1597 -0.5967
 3976TIP3    H133419   0.058   2.224  12.336 -0.1984  1.4824 -0.9081
 3976TIP3    H233420   0.140   2.304  12.236  2.1928  0.0228 -0.2125
 3977TIP3   OH233421   6.587   4.142  13.613  0.3037  0.0769  0.0550
 3977TIP3    H133422   6.657   4.087  13.646  3.2875  1.7692 -2.8412
 3977TIP3    H233423   6.592   4.222  13.665  1.9759  0.9477 -1.3135
 3978TIP3   OH233424   4.832   3.820  12.566  0.2364 -0.2505 -0.3540
 3978TIP3    H133425   4.813   3.726  12.561  0.6730 -0.3456 -0.2312
 3978TIP3    H233426   4.756   3.862  12.525 -0.9193 -0.5489  1.3806
 3979TIP3   OH233427   4.224   6.175  15.882 -0.0062  0.2523  0.4278
 3979TIP3    H133428   4.231   6.260  15.840 -1.2176 -0.3316 -1.0562
 3979TIP3    H233429   4.200   6.195  15.973  2.6164  1.5373  0.9255
 3980TIP3   OH233430   3.877   3.329  17.172  0.4764  0.1340  0.0156
 3980TIP3    H133431   3.943   3.269  17.207 -0.3474  0.3411  2.0975
 3980TIP3    H233432   3.794   3.294  17.204 -0.5582 -0.4460 -3.0031
 3981TIP3   OH233433   6.530   6.404  12.718  0.3187  0.1525 -0.4702
 3981TIP3    H133434   6.477   6.393  12.640  0.1339  1.2686 -0.5193
 3981TIP3    H233435   6.483   6.357  12.787 -1.3970  2.0725 -0.2372
 3982TIP3   OH233436   4.680   1.939  16.455  0.1522 -0.5058  0.0226
 3982TIP3    H133437   4.626   2.010  16.421 -0.7268 -0.8864  0.5841
 3982TIP3    H233438   4.617   1.876  16.490  0.7531 -2.4952 -2.1856
 3983TIP3   OH233439   3.837   0.465  15.034  0.0015  0.3803 -0.0213
 3983TIP3    H133440   3.931   0.458  15.017 -0.1981 -2.1175 -0.5155
 3983TIP3    H233441   3.828   0.447  15.128 -0.0652 -0.9034 -0.2553
 3984TIP3   OH233442   1.593   4.488   3.888  0.0564  0.2568 -0.3115
 3984TIP3    H133443   1.672   4.449   3.925  0.7281 -0.4258 -2.3462
 3984TIP3    H233444   1.531   4.415   3.880 -0.9340  0.8330  1.5084
 3985TIP3   OH233445   1.087   0.279  14.464  0.5547 -0.3939  0.9560
 3985TIP3    H133446   1.082   0.189  14.431 -0.4155 -0.4747  1.2827
 3985TIP3    H233447   1.038   0.277  14.546 -0.6739  0.7261  0.2870
 3986TIP3   OH233448   2.238   4.396  12.009 -0.0001 -0.6455 -0.2305
 3986TIP3    H133449   2.161   4.390  11.952  0.8318  1.1416 -1.6161
 3986TIP3    H233450   2.309   4.358  11.958  0.2018 -1.7817  0.8366
 3987TIP3   OH233451   0.154   6.587  13.140  0.3702 -0.2026 -0.3477
 3987TIP3    H133452   0.120   6.530  13.071  1.5913 -2.0992  0.5247
 3987TIP3    H233453   0.127   6.545  13.221  0.1802  1.2140  0.3310
 3988TIP3   OH233454   0.727   4.598   5.974  0.2712 -0.5049  0.2957
 3988TIP3    H133455   0.756   4.631   5.888 -0.4264 -1.0844 -0.1767
 3988TIP3    H233456   0.765   4.658   6.037  1.5030 -0.5473 -0.3710
 3989TIP3   OH233457   3.801   5.461  13.909  0.0093 -0.1366 -0.8037
 3989TIP3    H133458   3.798   5.379  13.859  0.1673 -1.6719  1.5403
 3989TIP3    H233459   3.830   5.435  13.996 -0.6906  2.3213  0.2564
 3990TIP3   OH233460   1.036   0.472  12.106  0.1726  0.4952 -0.0447
 3990TIP3    H133461   1.073   0.423  12.179 -1.8232 -1.3567 -0.1903
 3990TIP3    H233462   1.043   0.412  12.031 -1.0260  0.9765 -0.5602
 3991TIP3   OH233463   0.418   5.931  11.762  0.2841 -0.6229 -0.3723
 3991TIP3    H133464   0.465   5.848  11.754 -0.8080 -1.3536  0.5569
 3991TIP3    H233465   0.330   5.907  11.790  0.1316  0.8870  0.5884
 3992TIP3   OH233466   0.452   4.112  11.200 -0.2698 -0.4055 -0.1513
 3992TIP3    H133467   0.381   4.122  11.136  0.4937  1.7824 -0.7451
 3992TIP3    H233468   0.410   4.129  11.284 -0.6816 -0.3566 -0.3614
 3993TIP3   OH233469   3.917   3.842  13.942  0.2271  0.4834  0.8070
 3993TIP3    H133470   3.878   3.798  13.866 -0.1420  2.4218 -0.1914
 3993TIP3    H233471   4.012   3.836  13.926  0.2456 -1.1079  1.3979
 3994TIP3   OH233472   3.745   5.889  14.045 -1.2805 -0.0319  0.0595
 3994TIP3    H133473   3.687   5.940  14.102  0.2761  3.3073 -1.0955
 3994TIP3    H233474   3.730   5.924  13.957  1.4059 -0.0482 -0.4921
 3995TIP3   OH233475   4.999   5.564  14.608  0.1559  0.1143  0.4390
 3995TIP3    H133476   4.935   5.496  14.589  0.6422  0.0467 -1.0558
 3995TIP3    H233477   5.059   5.522  14.671 -0.5622 -0.2254  0.9087
 3996TIP3   OH233478   4.596   5.301  14.051 -0.6811  0.0055 -0.3065
 3996TIP3    H133479   4.590   5.371  14.116 -0.2796  1.5189 -1.8011
 3996TIP3    H233480   4.510   5.299  14.010 -0.2378  0.7424 -1.3192
 3997TIP3   OH233481   3.696   1.203  16.976  0.0521  0.1295  0.3642
 3997TIP3    H133482   3.625   1.165  16.925  0.1487 -1.8106  1.5740
 3997TIP3    H233483   3.749   1.250  16.912 -0.7880 -0.7451 -1.0174
 3998TIP3   OH233484   3.386   4.366   1.819  0.1118  0.2092  0.0781
 3998TIP3    H133485   3.409   4.425   1.747  2.7245 -0.9783 -0.1405
 3998TIP3    H233486   3.430   4.403   1.896 -1.2618  0.5160  0.7647
 3999TIP3   OH233487   5.389   5.518   0.572  0.1803  0.3833  0.3075
 3999TIP3    H133488   5.391   5.425   0.551 -0.9550  0.4857 -0.3131
 3999TIP3    H233489   5.307   5.530   0.621  0.4753  1.0028  0.6644
 4000TIP3   OH233490   6.177   4.543  10.623 -0.3323  0.1666 -0.1147
 4000TIP3    H133491   6.129   4.557  10.542 -0.6015  2.1171  0.3454
 4000TIP3    H233492   6.172   4.448  10.637 -0.0595 -0.2631 -2.4714
 4001TIP3   OH233493   3.507   3.755   5.363 -0.1334  0.0617 -0.3281
 4001TIP3    H133494   3.536   3.671   5.398  0.2620  0.1767 -0.3713
 4001TIP3    H233495   3.482   3.806   5.440 -1.2585 -0.4136 -0.3629
 4002TIP3   OH233496   3.565   6.072   4.426  0.0026 -0.5423  0.1629
 4002TIP3    H133497   3.533   6.145   4.373 -1.4962 -2.2193 -1.3708
 4002TIP3    H233498   3.585   6.111   4.511  0.8867  1.9531 -1.0854
 4003TIP3   OH233499   0.824   0.174  12.581 -0.3900 -0.3699  0.1962
 4003TIP3    H133500   0.832   0.252  12.526 -0.4609 -0.3865  0.1614
 4003TIP3    H233501   0.752   0.195  12.641 -0.6389 -0.5451 -0.0414
 4004TIP3   OH233502   0.787   0.734  12.411 -0.0100  0.1412 -0.9620
 4004TIP3    H133503   0.736   0.768  12.337 -1.6240  1.8033  0.7790
 4004TIP3    H233504   0.725   0.677  12.458  0.3310  0.6395  0.1298
 4005TIP3   OH233505   5.149   3.816  11.930  0.3087 -0.0513  0.1830
 4005TIP3    H133506   5.220   3.856  11.881 -2.2134  1.3548 -2.6108
 4005TIP3    H233507   5.174   3.724  11.938  3.6971  0.8442  1.9858
 4006TIP3   OH233508   6.437   3.570   5.520 -0.3486 -0.0551  0.1590
 4006TIP3    H133509   6.401   3.482   5.530 -1.5394  0.1827 -1.4976
 4006TIP3    H233510   6.407   3.598   5.434  0.1598  1.9131  0.5711
 4007TIP3   OH233511   5.046   1.618   1.179  0.6091  0.2491 -0.6430
 4007TIP3    H133512   5.132   1.592   1.212  0.5999 -0.2857 -1.0256
 4007TIP3    H233513   4.991   1.540   1.192  0.1770  0.5989 -0.3704
 4008TIP3   OH233514   3.224   3.106   1.969 -0.3488 -0.5964 -0.1444
 4008TIP3    H133515   3.308   3.114   2.014  0.6300 -1.1922 -1.7893
 4008TIP3    H233516   3.243   3.132   1.879 -1.6768 -1.8334 -0.8105
 4009TIP3   OH233517   4.627   3.937   4.970 -0.0850 -0.4486  0.4072
 4009TIP3    H133518   4.695   3.997   4.939  0.8979 -2.1201 -0.8425
 4009TIP3    H233519   4.659   3.850   4.946 -1.0409 -1.5950  2.8936
 4010TIP3   OH233520   4.930   0.810  13.826 -0.2956 -0.2513  0.2054
 4010TIP3    H133521   4.870   0.855  13.886  0.4661 -2.1712  2.6007
 4010TIP3    H233522   5.014   0.855  13.838  0.0239 -1.0622  1.1995
 4011TIP3   OH233523   0.415   0.322  12.331  0.0872 -0.6806  0.0730
 4011TIP3    H133524   0.393   0.349  12.420  0.4285  0.0448 -0.0561
 4011TIP3    H233525   0.494   0.269  12.340  1.5506  1.4057 -0.0234
 4012TIP3   OH233526   0.011   0.139   3.867 -0.1292  0.3072 -0.1077
 4012TIP3    H133527   0.014   0.221   3.917 -0.8660 -0.1292  0.6704
 4012TIP3    H233528   0.092   0.094   3.891 -0.2131  0.3505  0.2602
 4013TIP3   OH233529   6.111   1.845   2.161  0.0770 -0.4494  0.2234
 4013TIP3    H133530   6.096   1.931   2.121  0.8458 -1.2941 -2.0203
 4013TIP3    H233531   6.040   1.836   2.225 -1.1664  1.0521 -0.8648
 4014TIP3   OH233532   3.642   2.431   0.717 -0.0252 -0.2206 -0.0073
 4014TIP3    H133533   3.672   2.343   0.739 -0.5619 -0.3245  0.3541
 4014TIP3    H233534   3.586   2.456   0.791  0.4871  0.6107  0.1154
 4015TIP3   OH233535   6.056   3.486   5.131  0.0848  0.0489  0.0720
 4015TIP3    H133536   6.072   3.412   5.190  0.0846  0.6601  0.8520
 4015TIP3    H233537   5.984   3.533   5.172  0.4584  0.7978 -0.1199
 4016TIP3   OH233538   6.285   2.939   4.392 -0.0888  0.0558  0.1479
 4016TIP3    H133539   6.225   2.995   4.343  1.1092  1.8969  0.6459
 4016TIP3    H233540   6.231   2.898   4.459 -1.8263 -2.7342 -2.6999
 4017TIP3   OH233541   1.619   5.275  14.205  0.4332  0.3215 -0.5139
 4017TIP3    H133542   1.708   5.284  14.239 -0.4657 -0.3655  2.3453
 4017TIP3    H233543   1.593   5.186  14.229 -1.0886  0.5658 -1.1473
 4018TIP3   OH233544   1.306   1.796  15.833  0.1090  0.1081 -0.6167
 4018TIP3    H133545   1.367   1.840  15.773  1.4472  0.1564  0.7188
 4018TIP3    H233546   1.338   1.819  15.920 -1.5232 -0.3306  0.1270
 4019TIP3   OH233547   2.583   4.230  10.918  0.0411  0.4862  0.2186
 4019TIP3    H133548   2.554   4.183  10.840  0.1754  0.8010 -0.0293
 4019TIP3    H233549   2.522   4.303  10.926 -1.6725 -1.0675  2.0256
 4020TIP3   OH233550   2.286   6.130   5.734  0.3193 -0.3632 -0.5234
 4020TIP3    H133551   2.315   6.097   5.819 -1.3353  2.1384  1.1547
 4020TIP3    H233552   2.333   6.212   5.724 -1.7106  0.8637 -0.5087
 4021TIP3   OH233553   0.446   6.225  13.446  0.6070 -0.3713 -0.3753
 4021TIP3    H133554   0.476   6.153  13.502 -0.1915  0.1956  0.8239
 4021TIP3    H233555   0.351   6.226  13.457  0.6802  1.4631  0.3997
 4022TIP3   OH233556   3.251   6.006  10.997 -0.2886  0.5844  0.6018
 4022TIP3    H133557   3.229   6.079  11.056  1.3228  1.4967  0.1122
 4022TIP3    H233558   3.322   6.039  10.943  0.4908 -1.3669  0.3650
 4023TIP3   OH233559   1.523   3.934   6.013  0.1809 -0.1415  0.2272
 4023TIP3    H133560   1.533   3.990   5.937 -0.8465 -0.3768 -0.0850
 4023TIP3    H233561   1.607   3.941   6.059  0.5613  0.5287 -0.5571
 4024TIP3   OH233562   6.463   2.591  15.740 -0.2996  0.1193 -0.6401
 4024TIP3    H133563   6.523   2.521  15.717 -1.3800 -1.7559  1.8538
 4024TIP3    H233564   6.517   2.655  15.786  0.3037 -0.0978 -1.0325
 4025TIP3   OH233565   3.647   3.518  16.316 -0.3327 -0.2423 -0.4246
 4025TIP3    H133566   3.709   3.507  16.244  0.2710  0.6035 -0.0622
 4025TIP3    H233567   3.700   3.505  16.395 -1.1796 -2.0797 -0.1251
 4026TIP3   OH233568   4.765   6.682  13.284 -0.0256  0.3413 -0.4637
 4026TIP3    H133569   4.762   6.760  13.338  1.7630  1.0848 -1.3704
 4026TIP3    H233570   4.805   6.615  13.340 -1.4028  0.0695  0.2524
 4027TIP3   OH233571   2.290   5.675  14.444  0.1315 -0.1347  0.7661
 4027TIP3    H133572   2.361   5.610  14.448 -0.5305 -0.8488  1.3421
 4027TIP3    H233573   2.299   5.715  14.358  2.1672  0.8883  1.4134
 4028TIP3   OH233574   2.982   1.456  15.686  0.4857  0.0860  0.2737
 4028TIP3    H133575   2.984   1.551  15.698  2.6898  0.4777 -2.0860
 4028TIP3    H233576   3.059   1.424  15.733  1.7547  0.0235 -1.6932
 4029TIP3   OH233577   5.109   0.851   3.401 -0.2311 -0.5040  0.0127
 4029TIP3    H133578   5.071   0.938   3.414  1.9930  0.3191  1.7358
 4029TIP3    H233579   5.203   0.864   3.411  0.1441 -3.2136  0.9709
 4030TIP3   OH233580   0.338   1.764   3.617 -0.6523 -0.1951  0.4507
 4030TIP3    H133581   0.271   1.825   3.586  0.4916  0.3049 -1.2230
 4030TIP3    H233582   0.398   1.819   3.668 -1.9687 -0.8242  2.7956
 4031TIP3   OH233583   3.923   6.288  13.847 -0.2245 -0.4357 -0.2490
 4031TIP3    H133584   3.851   6.310  13.906  1.1101  0.7104  1.0473
 4031TIP3    H233585   3.940   6.195  13.865 -1.3019 -0.6906 -0.5035
 4032TIP3   OH233586   3.204   6.565  15.942 -0.4890 -0.3565 -0.1061
 4032TIP3    H133587   3.174   6.524  16.024 -0.0352 -0.6673 -0.0961
 4032TIP3    H233588   3.269   6.629  15.970 -1.7756  0.9922 -0.0372
 4033TIP3   OH233589   5.732   2.580   1.255  0.2322 -0.2805 -0.2056
 4033TIP3    H133590   5.678   2.514   1.299 -0.5230 -0.4568 -1.3553
 4033TIP3    H233591   5.799   2.530   1.208  1.2274 -0.0763  0.9454
 4034TIP3   OH233592   1.788   0.865   0.570 -0.1405  0.4732  0.4368
 4034TIP3    H133593   1.855   0.825   0.514 -1.2504  0.4729 -0.9753
 4034TIP3    H233594   1.782   0.955   0.539  0.6944  1.0986  2.0143
 4035TIP3   OH233595   0.065   1.331   4.848  0.6222  0.3360  0.1892
 4035TIP3    H133596   0.111   1.413   4.866  0.4600  0.4485  0.0894
 4035TIP3    H233597   0.039   1.298   4.934  0.5237  0.4819  0.2148
 4036TIP3   OH233598   4.120   0.608   4.017 -0.4291 -0.3499 -0.2167
 4036TIP3    H133599   4.181   0.681   4.012 -1.6105  0.6372 -0.7149
 4036TIP3    H233600   4.117   0.585   4.110 -0.5116  0.6361  0.0310
 4037TIP3   OH233601   3.297   1.131  12.071 -0.3537 -0.3411  0.3306
 4037TIP3    H133602   3.378   1.135  12.122  0.1036  0.6596 -0.4341
 4037TIP3    H233603   3.303   1.206  12.011 -1.8155 -0.2950  0.2116
 4038TIP3   OH233604   5.514   0.008  14.927 -0.3225 -0.2592  0.5998
 4038TIP3    H133605   5.600  -0.031  14.943 -0.3125 -0.7634 -0.6175
 4038TIP3    H233606   5.530   0.102  14.924  0.3362 -0.3977 -0.4554
 4039TIP3   OH233607   0.203   4.210   4.494  0.7356  0.1846 -0.4147
 4039TIP3    H133608   0.125   4.238   4.446  1.4651  0.8408 -1.2606
 4039TIP3    H233609   0.208   4.116   4.479  0.3109  0.2020 -0.6715
 4040TIP3   OH233610   6.116   0.083  15.017  0.4494  1.1515  0.0438
 4040TIP3    H133611   6.086   0.147  14.953  1.0863  1.0279 -0.3799
 4040TIP3    H233612   6.116  -0.000  14.970  0.2735  0.9436  0.4013
 4041TIP3   OH233613   5.456   1.790   1.149  0.4751 -0.2654  0.1280
 4041TIP3    H133614   5.478   1.871   1.104 -1.8616  0.1175 -0.4634
 4041TIP3    H233615   5.517   1.725   1.114  1.3730  0.9088 -0.5248
 4042TIP3   OH233616   6.222   5.850  15.764  0.7044 -0.1682  0.1739
 4042TIP3    H133617   6.239   5.917  15.699  1.0187 -0.3729  0.0428
 4042TIP3    H233618   6.260   5.885  15.845 -3.5273  2.1577  1.4359
 4043TIP3   OH233619   5.313   3.973  11.756  0.3505 -0.2348  0.6546
 4043TIP3    H133620   5.404   3.966  11.784  0.7094  0.2175 -0.3525
 4043TIP3    H233621   5.318   3.985  11.661 -0.8205 -1.7159  0.3824
 4044TIP3   OH233622   5.982   1.280   5.457  0.4564 -0.8024  0.0236
 4044TIP3    H133623   5.982   1.375   5.442  3.4922 -0.6561  0.4448
 4044TIP3    H233624   5.902   1.264   5.507 -0.1664  1.4992 -0.1179
 4045TIP3   OH233625   4.957   3.631   2.839 -0.0822  1.1923 -0.0440
 4045TIP3    H133626   4.917   3.694   2.780  0.3484  1.9420  0.4483
 4045TIP3    H233627   5.022   3.681   2.888  3.0111 -0.3189 -2.2053
 4046TIP3   OH233628   5.594   2.688  10.150 -0.3461 -0.3235  0.3593
 4046TIP3    H133629   5.562   2.738  10.075  0.5241  0.9277  0.7962
 4046TIP3    H233630   5.617   2.754  10.215  2.8449 -1.0774  0.1874
 4047TIP3   OH233631   5.418   6.009  12.289 -0.0581  0.0591  0.5589
 4047TIP3    H133632   5.446   6.045  12.205  0.3568  0.6254  0.9391
 4047TIP3    H233633   5.420   5.914  12.276 -1.1258  0.1446 -0.4354
 4048TIP3   OH233634   2.274   4.608   6.590  0.4335 -0.7620 -0.1215
 4048TIP3    H133635   2.203   4.668   6.612 -0.3635 -2.3393  2.0523
 4048TIP3    H233636   2.352   4.648   6.628 -0.1924 -1.2910  1.8701
 4049TIP3   OH233637   1.050   2.609  14.703  0.4307  0.2320  0.2651
 4049TIP3    H133638   1.053   2.690  14.653  1.4362 -1.0731 -1.9519
 4049TIP3    H233639   0.959   2.601  14.731 -0.4209  0.6045 -2.1696
 4050TIP3   OH233640   2.415   2.813  13.597 -0.7365  0.4293  0.1654
 4050TIP3    H133641   2.359   2.780  13.667 -1.2092  1.0522  0.0851
 4050TIP3    H233642   2.358   2.817  13.520 -0.2963  0.0302 -0.1850
 4051TIP3   OH233643   5.487   3.919  15.723  0.6716  0.5101 -0.0464
 4051TIP3    H133644   5.457   3.857  15.657 -2.5180  1.6863  0.1516
 4051TIP3    H233645   5.525   3.991  15.673 -0.0694  0.5712 -0.5425
 4052TIP3   OH233646   1.183   2.763   1.200  0.2297 -0.1333 -0.4333
 4052TIP3    H133647   1.263   2.725   1.164 -0.0037  0.1499 -1.2754
 4052TIP3    H233648   1.123   2.765   1.126 -1.5064 -2.8165  0.7509
 4053TIP3   OH233649   4.731   5.548   3.767  0.3261  0.8173  0.0885
 4053TIP3    H133650   4.761   5.478   3.709 -2.4091  0.3092 -0.8336
 4053TIP3    H233651   4.758   5.519   3.855  0.3602 -0.7702 -0.4125
 4054TIP3   OH233652   5.833   0.979  12.571 -0.0257 -0.6585 -1.0012
 4054TIP3    H133653   5.873   1.055  12.614  0.6665 -1.3553 -0.3917
 4054TIP3    H233654   5.819   1.008  12.481  1.8888 -0.3757 -1.2587
 4055TIP3   OH233655   1.269   2.168  14.925 -0.2992  0.2026  0.2393
 4055TIP3    H133656   1.203   2.235  14.907 -0.2063 -0.1003 -1.4031
 4055TIP3    H233657   1.352   2.208  14.900  0.0582  0.3042  1.5507
 4056TIP3   OH233658   1.861   2.111  11.466  0.3592 -0.2090 -0.2807
 4056TIP3    H133659   1.789   2.160  11.425  0.0455  0.0978  0.6072
 4056TIP3    H233660   1.937   2.168  11.455 -0.1791  1.0088  1.5716
 4057TIP3   OH233661   0.134   5.852  13.946  0.4929 -0.0704  0.4250
 4057TIP3    H133662   0.106   5.840  14.037  0.7337  0.0070  0.5085
 4057TIP3    H233663   0.143   5.763  13.912 -0.1199 -0.0954  0.3182
 4058TIP3   OH233664   2.204   5.928   1.873  0.4708  0.3181  0.2810
 4058TIP3    H133665   2.260   5.891   1.804  2.3113  1.4357  1.0906
 4058TIP3    H233666   2.222   5.874   1.950  1.8744  1.7318  1.0121
 4059TIP3   OH233667   0.509   1.690   1.752  0.2944 -0.3806  0.5355
 4059TIP3    H133668   0.452   1.622   1.717 -0.2510  1.0134 -1.4574
 4059TIP3    H233669   0.501   1.682   1.847 -1.4339 -1.6704  0.3273
 4060TIP3   OH233670   6.057   1.006   5.789  0.1539  0.5286  0.1062
 4060TIP3    H133671   6.067   1.029   5.697  1.4634  0.4742  0.2158
 4060TIP3    H233672   5.974   0.958   5.793 -0.4055  1.3723 -0.8612
 4061TIP3   OH233673   0.211   2.376  13.488  0.5256  0.3595 -0.6396
 4061TIP3    H133674   0.207   2.289  13.449  1.0416  0.2048 -0.3543
 4061TIP3    H233675   0.272   2.424  13.433 -0.3223  0.7795 -1.2406
 4062TIP3   OH233676   4.093   0.003   0.044 -0.1113  0.0005 -0.3894
 4062TIP3    H133677   4.029   0.067   0.013  0.7337  1.1308  0.1442
 4062TIP3    H233678   4.083   0.003   0.139 -0.6677 -1.2956 -0.4226
 4063TIP3   OH233679   5.051   1.356   2.445  0.1532 -0.2683 -0.6110
 4063TIP3    H133680   5.087   1.297   2.512  0.6643 -0.4836 -1.0640
 4063TIP3    H233681   5.049   1.302   2.365  0.2193  0.1995 -0.9309
 4064TIP3   OH233682   0.920   2.234  12.563  0.1010 -0.1164 -0.2037
 4064TIP3    H133683   0.906   2.160  12.622 -1.1985  0.1734 -0.1162
 4064TIP3    H233684   0.943   2.193  12.479  1.2970 -0.5439  0.3074
 4065TIP3   OH233685   2.472   3.916  15.039 -0.4032 -0.0543  0.0146
 4065TIP3    H133686   2.509   3.983  14.982 -1.1498  1.0907  0.8382
 4065TIP3    H233687   2.404   3.874  14.985 -0.8421  0.7570 -0.0822
 4066TIP3   OH233688   1.848   4.937  13.328 -0.2996 -0.0741  0.5373
 4066TIP3    H133689   1.789   4.872  13.366  0.3562 -1.8167 -1.2549
 4066TIP3    H233690   1.934   4.915  13.363 -0.2623  0.7663  1.0188
 4067TIP3   OH233691   5.750   3.989  17.135  0.5207 -0.1460 -0.1007
 4067TIP3    H133692   5.817   3.943  17.085 -0.5881  0.3784 -2.1978
 4067TIP3    H233693   5.782   4.079  17.142  0.5294 -0.1432 -0.1708
 4068TIP3   OH233694   2.159   0.031   2.378  0.1233 -0.0966  0.0995
 4068TIP3    H133695   2.127   0.011   2.290 -0.7482  0.5862  0.2405
 4068TIP3    H233696   2.211   0.111   2.367 -0.2929  0.2028  0.2443
 4069TIP3   OH233697   1.080   0.021   4.317  0.1925 -0.2016  0.2365
 4069TIP3    H133698   0.996   0.060   4.339  0.4710  0.6741 -0.1735
 4069TIP3    H233699   1.061  -0.037   4.243 -0.1236 -0.3476  0.4324
 4070TIP3   OH233700   3.713   1.114  13.580  0.4604  0.3452  0.1249
 4070TIP3    H133701   3.703   1.023  13.610 -1.0910  0.6511  0.6351
 4070TIP3    H233702   3.770   1.108  13.504 -0.8996 -1.2644 -0.8325
 4071TIP3   OH233703   4.054   2.277  15.255 -0.0792  0.4163  0.5429
 4071TIP3    H133704   4.032   2.254  15.346 -0.3736  0.1173  0.3968
 4071TIP3    H233705   4.145   2.251  15.245 -0.5549 -1.2151  0.2146
 4072TIP3   OH233706   6.351   0.658  11.540 -0.1405 -0.0843 -0.0142
 4072TIP3    H133707   6.292   0.583  11.528  0.4066 -0.3449 -1.1434
 4072TIP3    H233708   6.438   0.620  11.543  0.0181  0.3272  1.4687
 4073TIP3   OH233709   5.620   0.586   4.563 -1.5632  0.5456  0.2818
 4073TIP3    H133710   5.650   0.665   4.608  2.1124 -0.7803  0.5059
 4073TIP3    H233711   5.571   0.619   4.487 -0.7102  3.0142  0.7065
 4074TIP3   OH233712   1.725   3.178   0.761  0.7897 -0.3098  0.0981
 4074TIP3    H133713   1.648   3.213   0.805 -0.3115 -4.5563  2.1255
 4074TIP3    H233714   1.703   3.177   0.668 -0.7909  0.3036  0.4498
 4075TIP3   OH233715   3.998   3.865  17.016  0.1888  0.4641 -0.6164
 4075TIP3    H133716   3.970   3.925  17.084  2.1331  0.7261  0.0083
 4075TIP3    H233717   3.988   3.915  16.935 -0.7993  0.6412 -0.4032
 4076TIP3   OH233718   2.107   3.617  13.360 -0.5800 -0.1296  0.9949
 4076TIP3    H133719   2.127   3.577  13.445  0.2244 -3.4027 -0.5807
 4076TIP3    H233720   2.044   3.557  13.320 -1.6394  1.8157 -0.4292
 4077TIP3   OH233721   2.883   1.563   0.449 -0.2471  0.1880 -0.6114
 4077TIP3    H133722   2.885   1.469   0.470  0.6528 -0.0024 -1.4688
 4077TIP3    H233723   2.974   1.585   0.431 -0.2209  1.5692  0.9460
 4078TIP3   OH233724   6.602   1.992   3.358  0.2558  0.1714 -0.7037
 4078TIP3    H133725   6.546   2.059   3.318  1.4141  0.8954 -1.1566
 4078TIP3    H233726   6.686   2.036   3.370  0.5722 -0.7267  0.4802
 4079TIP3   OH233727   1.200   4.408   6.003 -0.9216 -0.6422 -0.2808
 4079TIP3    H133728   1.282   4.411   6.051 -0.7259  0.8267 -0.6841
 4079TIP3    H233729   1.223   4.426   5.912 -1.6501 -0.5485 -0.4590
 4080TIP3   OH233730   6.095   5.565  14.568  0.0370 -0.3935 -0.5083
 4080TIP3    H133731   6.160   5.612  14.515 -1.0825 -0.0574 -1.6300
 4080TIP3    H233732   6.014   5.572  14.518 -0.9700 -0.4706  1.0501
 4081TIP3   OH233733   4.944   4.189   3.148  0.0453  0.4223  0.3057
 4081TIP3    H133734   5.010   4.180   3.079 -0.6420 -0.6696 -0.2539
 4081TIP3    H233735   4.949   4.106   3.196 -1.1837  0.1487 -0.0067
 4082TIP3   OH233736   0.239   3.490  10.960 -0.0985  0.5328  0.3438
 4082TIP3    H133737   0.215   3.400  10.937  1.2096 -0.3420  2.1983
 4082TIP3    H233738   0.159   3.540  10.945 -1.1890 -1.1349  0.2955
 4083TIP3   OH233739   2.967   0.368  13.754  0.1256  0.3698 -0.5641
 4083TIP3    H133740   2.939   0.455  13.781  0.1955  0.8435 -1.9362
 4083TIP3    H233741   3.015   0.382  13.673  1.1452 -0.8280 -0.2128
 4084TIP3   OH233742   4.348   2.721   4.450 -0.1851 -0.1638  0.0518
 4084TIP3    H133743   4.302   2.728   4.366  2.9653  1.3928 -1.7043
 4084TIP3    H233744   4.352   2.811   4.483  0.7982 -0.3998  0.6087
 4085TIP3   OH233745   3.014   1.395   0.887 -0.8335  0.0549  0.4826
 4085TIP3    H133746   2.993   1.401   0.981 -0.5684  0.8295  0.5026
 4085TIP3    H233747   2.946   1.447   0.845 -0.0830  0.9996  0.3880
 4086TIP3   OH233748   1.773   0.054  16.897 -0.1796  0.3390  0.1192
 4086TIP3    H133749   1.703   0.110  16.863  0.1084 -0.0545 -1.1576
 4086TIP3    H233750   1.849   0.075  16.843  0.8431  1.0572  1.7483
 4087TIP3   OH233751   6.592   3.305  10.777 -0.3222  0.1527  0.3758
 4087TIP3    H133752   6.591   3.217  10.814  0.0173  0.4219  1.0401
 4087TIP3    H233753   6.680   3.314  10.741 -0.3870  0.1855  0.2264
 4088TIP3   OH233754   3.687   3.573  12.986  0.8202  0.1189 -0.4716
 4088TIP3    H133755   3.699   3.661  13.022  0.4003 -0.2842  0.7190
 4088TIP3    H233756   3.775   3.544  12.963  1.2711  0.0196  1.2172
 4089TIP3   OH233757   4.475   3.888  14.712  0.4337 -0.0445 -0.0689
 4089TIP3    H133758   4.465   3.797  14.740  0.9093  0.3106  1.3553
 4089TIP3    H233759   4.563   3.893  14.674  0.6962 -0.0197  0.5379
 4090TIP3   OH233760   5.784   6.657   6.059  0.5605  0.3345  1.0269
 4090TIP3    H133761   5.866   6.664   6.012  0.6271 -0.0022  1.0914
 4090TIP3    H233762   5.755   6.748   6.070  0.3183  0.4004 -0.0481
 4091TIP3   OH233763   3.261   4.030   2.065 -0.1461  0.1512  0.3145
 4091TIP3    H133764   3.225   3.946   2.039 -1.5992  1.4264 -2.2078
 4091TIP3    H233765   3.188   4.077   2.105  0.5345  0.4043  1.3151
 4092TIP3   OH233766   4.946   0.518  13.265  0.0550  0.1413 -0.8416
 4092TIP3    H133767   5.011   0.548  13.201  0.0546 -0.9244 -1.3483
 4092TIP3    H233768   4.916   0.434  13.232 -0.6092 -0.0056  0.0968
 4093TIP3   OH233769   4.084   3.481   3.124 -0.5617  0.2495 -0.2411
 4093TIP3    H133770   4.088   3.403   3.069 -0.7611 -0.9832  1.3962
 4093TIP3    H233771   4.155   3.470   3.187 -2.1418  0.0736  1.6029
 4094TIP3   OH233772   3.995   2.973   5.189  0.0934 -0.6453 -0.0446
 4094TIP3    H133773   4.069   3.019   5.229 -1.6732  1.5371  0.9821
 4094TIP3    H233774   3.935   3.044   5.162 -2.5870 -2.2914  1.1623
 4095TIP3   OH233775   3.458   3.892  13.030  0.1957 -0.5684  0.4187
 4095TIP3    H133776   3.550   3.876  13.049  0.6009  0.4185 -0.6597
 4095TIP3    H233777   3.456   3.925  12.940 -1.3039 -1.5251  0.0440
 4096TIP3   OH233778   2.748   2.787   5.833  0.1084 -0.5338  0.7237
 4096TIP3    H133779   2.688   2.860   5.847  0.4843  0.2283 -1.3121
 4096TIP3    H233780   2.803   2.786   5.911 -2.4334 -1.2120  2.6195
 4097TIP3   OH233781   1.309   2.591   1.518  0.7121 -0.3818  0.5781
 4097TIP3    H133782   1.356   2.508   1.507  1.7364  0.0924  1.2548
 4097TIP3    H233783   1.237   2.586   1.455  0.7527 -1.7864  0.6176
 4098TIP3   OH233784   5.853   2.220   3.132  0.4699 -0.1243 -0.0432
 4098TIP3    H133785   5.790   2.274   3.179 -0.3859 -1.4769  0.4175
 4098TIP3    H233786   5.902   2.282   3.078  0.2462  1.2334  1.2521
 4099TIP3   OH233787   4.846   0.676   3.588 -0.2175 -0.2917  0.3993
 4099TIP3    H133788   4.830   0.763   3.623 -0.7758 -0.1340 -0.2215
 4099TIP3    H233789   4.923   0.686   3.533 -0.0358 -0.2792  0.6582
 4100TIP3   OH233790   3.271   6.153   5.553 -0.2509  0.3253 -0.7097
 4100TIP3    H133791   3.229   6.156   5.640 -1.5330  0.7315 -1.3225
 4100TIP3    H233792   3.285   6.245   5.530  2.5896  0.2187  0.1854
 4101TIP3   OH233793   2.790   4.101   4.508  0.0220 -0.3898 -0.1666
 4101TIP3    H133794   2.763   4.104   4.600  1.1463 -0.4946  0.1909
 4101TIP3    H233795   2.717   4.059   4.463 -0.3788 -0.7235  0.7502
 4102TIP3   OH233796   3.157   2.892   3.020 -0.4604 -0.5305 -0.2202
 4102TIP3    H133797   3.080   2.838   3.003 -0.2957 -0.4477 -1.3422
 4102TIP3    H233798   3.206   2.844   3.087 -1.2437 -0.8228  0.1524
 4103TIP3   OH233799   2.113   2.287   5.417  0.0169 -0.1737 -0.4708
 4103TIP3    H133800   2.056   2.360   5.443  0.2273  0.1342 -0.8652
 4103TIP3    H233801   2.190   2.329   5.380  0.5990 -0.5884  0.2618
 4104TIP3   OH233802   5.063   1.210   1.136  0.2193 -0.2198  0.4293
 4104TIP3    H133803   5.128   1.140   1.125  0.2587 -0.0713 -0.3717
 4104TIP3    H233804   5.007   1.202   1.058  0.0583  0.4675  0.4730
 4105TIP3   OH233805   4.655   2.549  10.272 -0.2934  0.2760  0.1187
 4105TIP3    H133806   4.650   2.640  10.242  1.5803 -0.1521 -1.7521
 4105TIP3    H233807   4.564   2.525  10.291 -0.7285  2.7827  1.6199
 4106TIP3   OH233808   2.576   5.101  15.741 -0.8509  0.2651  0.6211
 4106TIP3    H133809   2.516   5.156  15.790 -1.1767 -0.4898  1.0884
 4106TIP3    H233810   2.550   5.113  15.649 -0.5037  1.3572  0.6519
 4107TIP3   OH233811   3.574   2.590   4.029  0.0909 -0.1223 -0.0266
 4107TIP3    H133812   3.642   2.535   4.067 -0.2296  0.5683  1.6414
 4107TIP3    H233813   3.500   2.581   4.089 -0.3189  1.3099 -0.2867
 4108TIP3   OH233814   4.285   0.270   2.579 -0.2956  0.3480 -0.2443
 4108TIP3    H133815   4.235   0.329   2.523 -1.9172  0.6543  1.4663
 4108TIP3    H233816   4.247   0.184   2.563 -1.0158  0.4913  0.6114
 4109TIP3   OH233817   6.222   6.037  15.573 -0.6463  0.0571  0.4003
 4109TIP3    H133818   6.132   6.005  15.565 -1.3349  1.6982  1.1467
 4109TIP3    H233819   6.258   6.031  15.484 -1.4747 -0.6366  0.1005
 4110TIP3   OH233820   0.968   2.409  13.179  0.3753  0.2220 -0.3131
 4110TIP3    H133821   0.956   2.326  13.225 -0.6376  0.2537 -0.4924
 4110TIP3    H233822   0.891   2.460  13.202 -0.4342  0.0626 -2.3839
 4111TIP3   OH233823   4.613   3.322  15.930 -0.1272 -0.3045  0.3722
 4111TIP3    H133824   4.576   3.251  15.877 -1.3070 -0.8676  1.8840
 4111TIP3    H233825   4.615   3.397  15.871  0.3190 -1.3586 -1.0075
 4112TIP3   OH233826   3.847   5.063   2.770  0.0495 -0.3072  0.4673
 4112TIP3    H133827   3.910   5.132   2.746 -0.7043  0.4499  0.6246
 4112TIP3    H233828   3.834   5.014   2.689  1.0906 -0.6922  0.5104
 4113TIP3   OH233829   0.534   0.241   6.443  0.7699 -0.2807 -0.1329
 4113TIP3    H133830   0.496   0.163   6.403 -2.5814  1.1538 -0.0343
 4113TIP3    H233831   0.533   0.223   6.537  1.0232 -0.5159 -0.1735
 4114TIP3   OH233832   2.653   6.291   4.220 -0.7225 -0.5024 -0.4010
 4114TIP3    H133833   2.689   6.218   4.270 -1.4490  1.3070  3.1221
 4114TIP3    H233834   2.558   6.275   4.218 -0.6179 -1.1663 -2.4587
 4115TIP3   OH233835   3.040   3.398  13.272  0.0588  0.3019 -0.2957
 4115TIP3    H133836   3.093   3.383  13.193  1.4112  0.7509  0.4924
 4115TIP3    H233837   3.104   3.403  13.343 -1.0084  1.2959  0.6388
 4116TIP3   OH233838   2.046   5.942  11.915  0.2504 -0.0137  0.1260
 4116TIP3    H133839   2.016   6.032  11.925 -1.1608 -0.5862  1.3663
 4116TIP3    H233840   2.020   5.919  11.825 -0.9880  0.2621  0.3921
 4117TIP3   OH233841   1.952   3.137   3.887  0.2223 -0.2409  0.5769
 4117TIP3    H133842   1.977   3.062   3.941  1.0060 -0.1505  0.3492
 4117TIP3    H233843   1.940   3.208   3.949  0.7047 -0.2442  0.6789
 4118TIP3   OH233844   0.697   0.503  14.542 -0.2583  0.2981 -0.4063
 4118TIP3    H133845   0.606   0.474  14.549 -0.1372  0.1293  0.7447
 4118TIP3    H233846   0.733   0.487  14.630  1.2055 -0.7447 -1.1567
 4119TIP3   OH233847   5.018   5.456   2.899 -0.1470  0.1198  0.4323
 4119TIP3    H133848   5.049   5.368   2.921 -0.8074 -0.1625  0.2696
 4119TIP3    H233849   5.004   5.454   2.805  0.9692  0.7740  0.2377
 4120TIP3   OH233850   3.138   5.896   2.279 -0.1280  0.4309 -1.3220
 4120TIP3    H133851   3.099   5.882   2.193  0.5371  3.3447 -2.2457
 4120TIP3    H233852   3.226   5.858   2.272 -0.3791 -0.0886 -1.6454
 4121TIP3   OH233853   2.626   3.681  11.339 -0.5002  0.6323 -0.7875
 4121TIP3    H133854   2.542   3.705  11.380  0.2136  1.6960  0.1222
 4121TIP3    H233855   2.685   3.667  11.413 -0.0108 -0.6788 -1.4103
 4122TIP3   OH233856   1.217   5.786  14.378 -0.3867  0.3135  0.4403
 4122TIP3    H133857   1.242   5.712  14.433 -0.0899 -0.0243 -0.1420
 4122TIP3    H233858   1.159   5.838  14.433 -0.4537 -0.2568  0.9187
 4123TIP3   OH233859   4.283   1.137  11.904 -0.6867 -0.0232 -0.2605
 4123TIP3    H133860   4.295   1.042  11.902 -0.0253  0.0156  0.8674
 4123TIP3    H233861   4.211   1.150  11.965 -0.5152  0.2148 -0.1085
 4124TIP3   OH233862   2.882   5.925  12.847 -0.1039 -0.1674 -0.3726
 4124TIP3    H133863   2.924   5.903  12.931  2.2731  0.9237 -1.1820
 4124TIP3    H233864   2.928   5.872  12.783  0.3218  1.3307 -1.3578
 4125TIP3   OH233865   6.789   3.731  13.219  0.4370 -0.3688 -0.4925
 4125TIP3    H133866   6.843   3.783  13.159  0.5997 -1.2927 -1.1693
 4125TIP3    H233867   6.705   3.776  13.221  1.0254  0.7500  0.0989
 4126TIP3   OH233868   0.501   3.078   5.223 -0.0496 -0.6308  1.3483
 4126TIP3    H133869   0.591   3.055   5.202 -0.4863 -0.1497 -1.3568
 4126TIP3    H233870   0.453   2.995   5.217 -0.3678 -0.3438 -1.0346
 4127TIP3   OH233871   6.163   2.701   5.086 -0.2466  1.3034 -0.2543
 4127TIP3    H133872   6.149   2.612   5.054  0.8703  1.1111 -0.2275
 4127TIP3    H233873   6.076   2.742   5.082 -0.9388 -0.0380  0.5308
 4128TIP3   OH233874   5.766   0.222   1.192 -0.3073  0.2408 -0.2888
 4128TIP3    H133875   5.752   0.250   1.283  1.5581 -0.6277  0.3221
 4128TIP3    H233876   5.698   0.157   1.177 -0.6411  0.3903  0.4928
 4129TIP3   OH233877   6.336   4.366  14.464  0.1584 -0.5857  0.0383
 4129TIP3    H133878   6.403   4.329  14.522  0.7292 -0.9203 -0.8186
 4129TIP3    H233879   6.277   4.413  14.523  1.2448 -0.1355  0.8075
 4130TIP3   OH233880   1.698   4.675  15.008  0.2657  0.3181  0.5812
 4130TIP3    H133881   1.705   4.770  15.002 -3.0813  0.7128  1.0617
 4130TIP3    H233882   1.685   4.658  15.102 -1.1461 -0.3693  0.2836
 4131TIP3   OH233883   6.022   6.053  13.749  0.1333  0.6132 -0.4259
 4131TIP3    H133884   5.979   6.020  13.828 -0.1827 -0.6716 -1.0896
 4131TIP3    H233885   6.081   5.982  13.723 -0.0512  0.8493 -1.5499
 4132TIP3   OH233886   2.802   0.595   5.192 -0.6743  0.4497  0.0477
 4132TIP3    H133887   2.860   0.559   5.259 -1.7243  0.3204  0.9222
 4132TIP3    H233888   2.745   0.521   5.167 -0.0186  0.3773 -1.3218
 4133TIP3   OH233889   6.637   3.230   5.646  0.0510 -0.1411 -0.0607
 4133TIP3    H133890   6.630   3.136   5.632 -2.7152 -0.0353  0.0046
 4133TIP3    H233891   6.560   3.267   5.604  0.4067  1.9791  0.9682
 4134TIP3   OH233892   5.792   5.261   6.621  0.8452  0.4603  0.0990
 4134TIP3    H133893   5.755   5.258   6.710 -1.5880  1.9893 -0.7729
 4134TIP3    H233894   5.724   5.221   6.566  2.3358 -0.5153 -1.1323
 4135TIP3   OH233895   5.614   4.818   4.253  0.1264 -0.0929 -0.0357
 4135TIP3    H133896   5.593   4.726   4.233 -0.1135 -0.3808  1.4379
 4135TIP3    H233897   5.582   4.831   4.342  2.0064  0.8316  0.5475
 4136TIP3   OH233898   3.837   0.574   2.841  0.0151  0.1895  0.1765
 4136TIP3    H133899   3.917   0.554   2.793  0.4348  1.5139  0.2947
 4136TIP3    H233900   3.820   0.666   2.823 -0.9277  0.1844  0.9600
 4137TIP3   OH233901   4.860   0.567  13.912  0.1811  0.2022  0.0600
 4137TIP3    H133902   4.872   0.658  13.885 -1.0679  1.3340  3.0076
 4137TIP3    H233903   4.910   0.559  13.993 -0.4243 -1.5053  0.3074
 4138TIP3   OH233904   1.072   2.608   0.414  0.2237 -0.3580  0.4395
 4138TIP3    H133905   1.086   2.545   0.485  0.0467 -0.7370  0.1400
 4138TIP3    H233906   1.159   2.642   0.394  0.0110  1.8425  2.7310
 4139TIP3   OH233907   3.559   4.593   3.630 -0.3504 -0.6085  0.1228
 4139TIP3    H133908   3.627   4.645   3.588 -0.6963  0.6038  0.9990
 4139TIP3    H233909   3.576   4.503   3.602  1.2886 -0.2558 -0.0902
 4140TIP3   OH233910   1.802   4.597  14.009  0.1532  0.2207  0.3459
 4140TIP3    H133911   1.726   4.584  14.065 -0.0544  0.0133  0.0229
 4140TIP3    H233912   1.857   4.659  14.057  0.9279 -1.4491  1.7091
 4141TIP3   OH233913   1.646   0.172  11.530  0.2637 -0.8008 -0.5381
 4141TIP3    H133914   1.585   0.243  11.547  1.5522  0.4729 -1.0149
 4141TIP3    H233915   1.719   0.189  11.590 -0.9264 -3.8449  2.0677
 4142TIP3   OH233916   4.043   6.243  13.553  0.4600  0.0192  0.0017
 4142TIP3    H133917   4.042   6.149  13.569  0.7380 -0.3391 -1.8670
 4142TIP3    H233918   3.973   6.278  13.609  1.1040 -1.1138  1.5851
 4143TIP3   OH233919   0.998   3.891  16.083  0.7193 -0.2957  0.4387
 4143TIP3    H133920   0.933   3.825  16.057 -0.3050  0.6273  0.5894
 4143TIP3    H233921   0.995   3.892  16.178  0.8266 -0.1204  0.4413
 4144TIP3   OH233922   4.125   6.251  15.609  0.1029  0.4239 -0.2623
 4144TIP3    H133923   4.034   6.244  15.636  0.4621 -1.4527  0.5917
 4144TIP3    H233924   4.175   6.217  15.684  1.4274  0.1704 -1.2220
 4145TIP3   OH233925   0.185   5.949   3.777  0.8317 -0.0037  0.1679
 4145TIP3    H133926   0.240   5.892   3.722  1.2884 -0.2601  0.8870
 4145TIP3    H233927   0.122   5.988   3.715  1.3522 -0.2727 -0.5419
 4146TIP3   OH233928   6.075   5.250  15.886 -0.4626  0.4811 -0.0042
 4146TIP3    H133929   6.034   5.167  15.908  2.7992 -1.1838  0.3932
 4146TIP3    H233930   6.115   5.236  15.800  0.0297  1.6992 -0.0000
 4147TIP3   OH233931   2.957   3.149   2.006 -0.4655  0.4139  0.2534
 4147TIP3    H133932   2.956   3.211   1.934 -1.7718  1.2854  0.9839
 4147TIP3    H233933   3.045   3.111   2.004 -1.1406 -1.3578 -3.2318
 4148TIP3   OH233934   4.284   2.193   1.413  0.0192  0.1450  0.5611
 4148TIP3    H133935   4.215   2.167   1.474  0.3870  0.9311  1.3364
 4148TIP3    H233936   4.239   2.202   1.329 -0.6297 -0.2820  0.8541
 4149TIP3   OH233937   0.301   0.625  16.858 -0.6254  0.2531 -0.4958
 4149TIP3    H133938   0.264   0.555  16.804  1.1123 -0.9054 -0.2834
 4149TIP3    H233939   0.260   0.705  16.826 -2.4825 -0.8009 -0.9390
 4150TIP3   OH233940   4.330   6.452   3.287  0.1363 -0.2556  0.5218
 4150TIP3    H133941   4.325   6.494   3.373  0.0093  0.5858  0.1133
 4150TIP3    H233942   4.376   6.370   3.303  0.7917  0.2475  1.2627
 4151TIP3   OH233943   5.368   1.768  11.480 -0.8881  0.0649 -0.3571
 4151TIP3    H133944   5.447   1.767  11.425 -0.2045  0.0812  0.5948
 4151TIP3    H233945   5.339   1.859  11.477  1.1009  0.8832  1.9488
 4152TIP3   OH233946   1.060   0.467   2.264  0.5825  0.1211  0.5355
 4152TIP3    H133947   0.991   0.425   2.213 -1.1071  0.3041  2.5318
 4152TIP3    H233948   1.095   0.535   2.206 -0.6590 -0.2291 -0.6685
 4153TIP3   OH233949   0.273   4.766  13.399  0.4014  0.1885 -0.0601
 4153TIP3    H133950   0.208   4.736  13.463  0.1747 -0.6774 -0.6819
 4153TIP3    H233951   0.355   4.725  13.428  0.4815  0.5087  0.1740
 4154TIP3   OH233952   1.409   5.513  15.790 -0.0931 -0.4057  0.0561
 4154TIP3    H133953   1.337   5.566  15.824  0.7220 -0.4279  1.9475
 4154TIP3    H233954   1.382   5.422  15.806  0.2184 -0.4231  0.5029
 4155TIP3   OH233955   3.122   2.439  11.917  0.1445  0.1634  0.0798
 4155TIP3    H133956   3.087   2.504  11.978 -3.0341  0.0470 -1.4063
 4155TIP3    H233957   3.174   2.380  11.972  0.5898  2.1715  1.9719
 4156TIP3   OH233958   0.120   1.226  14.503 -0.1340  0.5639 -0.0220
 4156TIP3    H133959   0.151   1.152  14.555 -2.6996  0.1573  1.1061
 4156TIP3    H233960   0.172   1.300  14.532  1.2359 -0.4286  0.1530
 4157TIP3   OH233961   6.314   1.072   1.847 -0.2635  0.4386  0.0398
 4157TIP3    H133962   6.295   0.983   1.815  1.3499  0.7665 -2.0161
 4157TIP3    H233963   6.260   1.080   1.926 -0.0928 -2.5534  0.6158
 4158TIP3   OH233964   0.431   0.924   0.710  0.2689  0.1480  0.4715
 4158TIP3    H133965   0.515   0.901   0.671  1.1912  0.3086  2.2453
 4158TIP3    H233966   0.393   0.840   0.737  1.1286  0.2335  2.0625
 4159TIP3   OH233967   3.585   5.532   0.606  0.4171 -0.2160  0.1171
 4159TIP3    H133968   3.540   5.447   0.613  0.2234 -0.3656 -2.2809
 4159TIP3    H233969   3.514   5.597   0.611  0.4388 -0.2367  0.7702
 4160TIP3   OH233970   0.640   0.801   3.810 -0.4598  0.0712  0.2528
 4160TIP3    H133971   0.709   0.766   3.867  0.0315  1.0006  0.2503
 4160TIP3    H233972   0.684   0.814   3.726 -0.5517  0.9484  0.3335
 4161TIP3   OH233973   1.457   1.572   4.308  0.0808  0.3829 -0.6601
 4161TIP3    H133974   1.388   1.615   4.359  1.6665  0.0186  1.9680
 4161TIP3    H233975   1.513   1.644   4.279  0.3460  0.4274 -0.0379
 4162TIP3   OH233976   4.115   3.679  14.802 -0.0346  0.2043 -0.1724
 4162TIP3    H133977   4.051   3.625  14.755 -2.6420  2.9658 -0.1171
 4162TIP3    H233978   4.144   3.744  14.738  0.3891  0.8308  0.6279
 4163TIP3   OH233979   1.410   3.260   3.186  0.6595 -0.1761 -0.4460
 4163TIP3    H133980   1.401   3.331   3.123 -1.5948 -0.0849 -0.1024
 4163TIP3    H233981   1.504   3.256   3.204  0.9889  1.9023 -1.3798
 4164TIP3   OH233982   6.343   5.391   2.288 -0.1783 -0.4372 -0.1165
 4164TIP3    H133983   6.276   5.459   2.294 -2.0951 -2.2511  0.1655
 4164TIP3    H233984   6.378   5.383   2.377 -2.5027 -2.1463  0.7766
 4165TIP3   OH233985   0.410   6.573  16.437 -0.3335  0.7901  0.3218
 4165TIP3    H133986   0.330   6.525  16.415  0.2021 -1.0671  2.0004
 4165TIP3    H233987   0.475   6.540  16.375 -0.4965  1.0728  0.0004
 4166TIP3   OH233988   3.639   2.602  16.406  0.1374 -0.0938  0.4468
 4166TIP3    H133989   3.727   2.638  16.405  0.0371  0.1358 -0.4398
 4166TIP3    H233990   3.582   2.677  16.391 -0.1789 -0.3255  0.4703
 4167TIP3   OH233991   6.217   1.994   2.492 -0.2355  0.1742 -0.2004
 4167TIP3    H133992   6.204   1.900   2.505  0.5087 -0.4916 -3.4784
 4167TIP3    H233993   6.304   2.012   2.527  1.1961 -1.2362 -2.7245
 4168TIP3   OH233994   0.062   1.750   0.950  0.0712  0.2994  0.0073
 4168TIP3    H133995   0.010   1.784   1.023 -0.7979  0.2961 -0.5989
 4168TIP3    H233996   0.006   1.684   0.910  0.3628  0.6098 -0.9304
 4169TIP3   OH233997   5.323   1.219  10.309  0.0586 -0.3722 -0.0438
 4169TIP3    H133998   5.297   1.296  10.359  0.7053 -1.2433  1.6961
 4169TIP3    H233999   5.242   1.170  10.296  0.0381 -0.6486  1.0649
 4170TIP3   OH234000   1.462   3.217  12.730 -0.2570 -0.4272  0.5999
 4170TIP3    H134001   1.403   3.292  12.730 -0.4362 -0.5677  0.6477
 4170TIP3    H234002   1.517   3.230  12.652 -0.1606 -0.1499  0.7125
 4171TIP3   OH234003   3.081   1.331  16.014  0.4235 -0.4630  0.6241
 4171TIP3    H134004   3.095   1.425  16.029 -1.7593  0.0169  0.0462
 4171TIP3    H234005   3.118   1.315  15.928 -1.7800  0.6010 -0.5947
 4172TIP3   OH234006   4.781   2.085  15.493  0.7976 -0.5000 -0.5097
 4172TIP3    H134007   4.856   2.112  15.546 -0.0468 -0.0319  0.4761
 4172TIP3    H234008   4.737   2.019  15.546  0.1811 -0.3392 -0.8194
 4173TIP3   OH234009   5.425   6.128  14.308  0.6682 -0.0648 -0.6928
 4173TIP3    H134010   5.423   6.084  14.223  2.7774  1.3814 -1.5675
 4173TIP3    H234011   5.514   6.114  14.340  0.1753  0.1837  0.8816
 4174TIP3   OH234012   5.948   1.629  15.492 -0.5157 -0.4620  0.2754
 4174TIP3    H134013   5.900   1.568  15.548 -1.6772  1.2306  1.2313
 4174TIP3    H234014   6.031   1.644  15.538 -1.5826  1.1437  1.8015
 4175TIP3   OH234015   2.922   0.889   4.028 -0.6587  0.0229  0.1070
 4175TIP3    H134016   2.905   0.963   4.086 -0.0147  0.5721 -0.3722
 4175TIP3    H234017   2.850   0.891   3.965 -0.6154  0.2806  0.0638
 4176TIP3   OH234018   0.228   6.599   0.016  0.4581  0.9085  0.4346
 4176TIP3    H134019   0.310   6.552   0.001 -1.0513 -1.5412 -0.5509
 4176TIP3    H234020   0.208   6.640  -0.068 -2.1008 -3.2799 -1.3117
 4177TIP3   OH234021   6.066   4.909  13.641 -0.2835  0.7144 -0.1225
 4177TIP3    H134022   6.089   4.992  13.683 -1.5167  0.5666  0.8846
 4177TIP3    H234023   6.043   4.850  13.713  0.3124 -0.4461 -0.8313
 4178TIP3   OH234024   3.839   1.537  16.327  0.5320 -0.3204 -0.3011
 4178TIP3    H134025   3.847   1.460  16.271 -2.7062 -0.4587 -0.7719
 4178TIP3    H234026   3.816   1.501  16.413 -0.3268  0.0674 -0.3577
 4179TIP3   OH234027   4.570   2.613  10.558  0.2374  0.0774  0.1238
 4179TIP3    H134028   4.552   2.634  10.466 -0.5019  0.9826  0.4557
 4179TIP3    H234029   4.572   2.517  10.561  0.2248  0.0398 -0.8226
 4180TIP3   OH234030   2.842   6.653  16.852  0.0225 -0.6418 -0.5386
 4180TIP3    H134031   2.811   6.643  16.942  0.1749 -0.1782 -0.4309
 4180TIP3    H234032   2.866   6.564  16.825  0.8218 -0.6726  0.1895
 4181TIP3   OH234033   3.705   4.760   4.320  0.1570 -0.3422 -0.4648
 4181TIP3    H134034   3.798   4.736   4.313  0.2000 -0.3351  0.0595
 4181TIP3    H234035   3.671   4.704   4.389 -0.0946  0.0688 -0.2560
 4182TIP3   OH234036   3.115   3.370  10.941  0.0501 -0.2292 -0.4077
 4182TIP3    H134037   3.044   3.420  10.902  1.8643  1.1390 -2.1797
 4182TIP3    H234038   3.127   3.409  11.028 -0.4806  0.4236 -0.6234
 4183TIP3   OH234039   4.991   1.993   6.028  0.5723  0.4472 -0.4928
 4183TIP3    H134040   4.909   1.991   6.078  1.2010  1.8955  0.7012
 4183TIP3    H234041   5.053   1.945   6.083  1.0396  1.2177 -0.3368
 4184TIP3   OH234042   6.513   0.633  13.846 -0.3385  0.4782 -0.2902
 4184TIP3    H134043   6.561   0.664  13.769 -1.9169  1.1572 -1.0493
 4184TIP3    H234044   6.560   0.670  13.921  0.2429  1.2083 -1.0009
 4185TIP3   OH234045   4.059   3.290  13.790 -0.3418 -0.2705  0.1307
 4185TIP3    H134046   4.133   3.262  13.737 -0.6745  0.9092 -1.0142
 4185TIP3    H234047   3.992   3.223  13.776 -0.3887 -0.0271 -0.8854
 4186TIP3   OH234048   5.055   5.283  11.953 -0.1889 -0.0186 -0.7135
 4186TIP3    H134049   4.994   5.292  12.026  0.4828  0.2029 -0.1767
 4186TIP3    H234050   5.060   5.371  11.915  1.0042  0.3492  0.2295
 4187TIP3   OH234051   0.275   4.682  15.832  0.0314  0.5060 -0.2262
 4187TIP3    H134052   0.228   4.733  15.897  0.0019  1.1533 -0.7472
 4187TIP3    H234053   0.366   4.681  15.863  0.0594  1.0019 -0.2925
 4188TIP3   OH234054   1.699   3.481  13.335  0.1134  0.1864 -0.5787
 4188TIP3    H134055   1.664   3.561  13.295  0.4596  0.4410 -0.3776
 4188TIP3    H234056   1.626   3.419  13.331 -0.9251  1.1950  1.3108
 4189TIP3   OH234057   6.452   5.666   6.331 -0.3325 -0.4341  0.4640
 4189TIP3    H134058   6.371   5.716   6.325 -1.1886 -1.8921 -3.0700
 4189TIP3    H234059   6.435   5.599   6.397 -1.3003  0.3847  1.0683
 4190TIP3   OH234060   5.229   1.885   5.496 -0.4759  0.0233 -0.0649
 4190TIP3    H134061   5.212   1.838   5.414 -1.3854 -1.8371  1.1361
 4190TIP3    H234062   5.217   1.977   5.473 -1.2492 -0.4834 -1.8881
 4191TIP3   OH234063   2.017   6.202   3.107 -0.3144 -0.1835  0.2738
 4191TIP3    H134064   1.946   6.264   3.123 -2.6319 -2.7859  0.9385
 4191TIP3    H234065   2.026   6.199   3.012 -2.8508 -1.4952 -0.0096
 4192TIP3   OH234066   0.547   5.161  13.132 -0.3937 -0.1767  0.7407
 4192TIP3    H134067   0.460   5.125  13.151 -0.9259 -0.1378 -1.3822
 4192TIP3    H234068   0.536   5.255  13.142 -0.6204 -0.1677  0.4325
 4193TIP3   OH234069   3.728   0.746   1.057  0.0792  0.5618  0.0945
 4193TIP3    H134070   3.646   0.762   1.010 -1.5934 -1.1150  2.2123
 4193TIP3    H234071   3.716   0.790   1.141  1.2566  0.0507  0.5431
 4194TIP3   OH234072   6.759   3.018   1.862  0.4372  0.0983 -0.7433
 4194TIP3    H134073   6.698   2.971   1.804 -0.6314 -0.1192  0.5129
 4194TIP3    H234074   6.838   2.964   1.861 -0.3752 -1.1498 -0.2144
 4195TIP3   OH234075   4.382   6.771  11.418 -0.2560  0.4071  0.1431
 4195TIP3    H134076   4.299   6.732  11.391  0.3964 -1.1594  0.2826
 4195TIP3    H234077   4.357   6.849  11.467 -1.6091  0.4856 -0.6116
 4196TIP3   OH234078   0.202   3.712   3.305  0.3869 -0.2740 -0.0968
 4196TIP3    H134079   0.214   3.707   3.400  2.0807 -0.6152 -0.3087
 4196TIP3    H234080   0.277   3.761   3.273  0.7691 -1.6291 -1.4291
 4197TIP3   OH234081   1.014   6.799   1.348  0.3770 -1.2471  0.6670
 4197TIP3    H134082   1.005   6.767   1.258  1.4451 -0.1162  0.1353
 4197TIP3    H234083   1.104   6.777   1.372  0.9274  0.6663  0.5289
 4198TIP3   OH234084   5.687   4.586  15.207 -0.7963  0.4769 -0.4148
 4198TIP3    H134085   5.649   4.506  15.171  1.5801 -0.7891 -0.3030
 4198TIP3    H234086   5.753   4.555  15.270  0.6624  2.4839 -0.8602
 4199TIP3   OH234087   6.454   6.662  12.302  0.2398 -0.2119  0.4937
 4199TIP3    H134088   6.475   6.643  12.394  0.6269  1.3405  0.7529
 4199TIP3    H234089   6.530   6.632  12.253  1.1144  1.2060  0.9544
 4200TIP3   OH234090   2.559   1.542   5.614 -0.0075 -0.0974 -0.5548
 4200TIP3    H134091   2.646   1.505   5.602  0.5851  1.2980 -0.7281
 4200TIP3    H234092   2.574   1.625   5.659 -1.2278  0.2315 -0.7136
 4201TIP3   OH234093   6.420   6.239  12.087  0.1035  0.3314 -0.3586
 4201TIP3    H134094   6.488   6.185  12.047 -0.0353 -0.5025  0.4651
 4201TIP3    H234095   6.464   6.286  12.158 -0.2773 -0.7693  0.6563
 4202TIP3   OH234096   3.363   6.482  13.256  0.1926  0.2263  0.5536
 4202TIP3    H134097   3.385   6.399  13.213 -0.5847  0.8142 -1.0273
 4202TIP3    H234098   3.272   6.471  13.285  0.3916  0.2054  1.2037
 4203TIP3   OH234099   4.053   5.808  11.308 -0.1575  0.1111 -0.4393
 4203TIP3    H134100   4.060   5.816  11.213  1.1731  0.7537 -0.3165
 4203TIP3    H234101   3.971   5.762  11.323 -1.1926  1.3952 -1.8530
 4204TIP3   OH234102   5.789   6.718   6.419 -0.3161 -0.0565  0.1823
 4204TIP3    H134103   5.749   6.661   6.485  1.3706  0.0561  1.3631
 4204TIP3    H234104   5.715   6.755   6.371 -1.5217 -1.4896  0.8730
 4205TIP3   OH234105   5.335   5.857   0.722 -0.1394  0.2775  0.0537
 4205TIP3    H134106   5.339   5.934   0.779  0.5716 -0.1500  0.5914
 4205TIP3    H234107   5.408   5.802   0.751 -1.1074 -0.9613  0.2073
 4206TIP3   OH234108   6.217   4.319   5.955 -0.4992 -0.0317 -0.2613
 4206TIP3    H134109   6.242   4.364   5.874 -1.2402 -0.0545 -0.5111
 4206TIP3    H234110   6.143   4.263   5.929  0.3532 -1.3546  0.0531
 4207TIP3   OH234111   6.011   3.046   4.951 -0.0985 -1.1961 -0.3600
 4207TIP3    H134112   5.929   3.088   4.926 -1.1792 -3.0655 -0.1680
 4207TIP3    H234113   6.074   3.076   4.885 -0.5909  1.1837  0.1548
 4208TIP3   OH234114   1.153   3.869   2.444  0.2984 -0.2400 -0.0509
 4208TIP3    H134115   1.076   3.813   2.454  0.1373  0.0858  0.5528
 4208TIP3    H234116   1.226   3.807   2.441 -0.0426 -0.6015 -1.4757
 4209TIP3   OH234117   4.620   1.948   2.183  0.6137 -0.8581 -0.7578
 4209TIP3    H134118   4.700   1.940   2.234  0.5045 -1.6936 -0.7108
 4209TIP3    H234119   4.621   1.873   2.124  0.3756 -0.3044 -1.4833
 4210TIP3   OH234120   5.670   0.376   1.401 -0.2242  0.0216  0.8033
 4210TIP3    H134121   5.741   0.436   1.378 -1.9977  2.4237  1.1982
 4210TIP3    H234122   5.662   0.382   1.496 -0.5150 -0.7624  0.8397
 4211TIP3   OH234123   2.496   5.777  13.722  0.5087 -0.0945 -0.5495
 4211TIP3    H134124   2.440   5.817  13.789 -0.1952 -0.2096 -1.0521
 4211TIP3    H234125   2.434   5.737  13.661  1.1701 -0.9950 -0.6455
 4212TIP3   OH234126   6.503   2.907  15.308 -0.0160  0.2477  0.0736
 4212TIP3    H134127   6.464   2.838  15.255  1.5092 -0.7297  0.1533
 4212TIP3    H234128   6.452   2.907  15.390 -0.9504  0.2349 -0.4971
 4213TIP3   OH234129   2.025   4.504  15.791 -0.5659 -0.4566  0.3740
 4213TIP3    H134130   2.060   4.460  15.868 -0.8144 -0.3569  0.5440
 4213TIP3    H234131   1.948   4.453  15.767 -1.8519  0.8411  1.5783
 4214TIP3   OH234132   3.798   4.963   1.799 -0.3875 -0.3873 -0.0132
 4214TIP3    H134133   3.783   4.887   1.743 -1.0854 -0.4628  0.2713
 4214TIP3    H234134   3.795   5.037   1.739 -0.1979 -0.5463 -0.2186
 4215TIP3   OH234135   6.701   3.584   2.323 -0.4560 -0.3547  0.4990
 4215TIP3    H134136   6.606   3.581   2.313 -0.4298 -0.6503  0.3469
 4215TIP3    H234137   6.728   3.492   2.324 -0.2181 -0.2853  0.9788
 4216TIP3   OH234138   2.553   3.157   2.275  0.2618  0.7552 -0.3024
 4216TIP3    H134139   2.539   3.200   2.191 -0.1110  0.7453 -0.2443
 4216TIP3    H234140   2.619   3.089   2.256  1.5417  1.9262 -0.2016
 4217TIP3   OH234141   0.092   3.905  11.208  0.9600 -0.6079  0.5712
 4217TIP3    H134142   0.018   3.874  11.157  0.9683 -0.2698  0.3539
 4217TIP3    H234143   0.131   3.825  11.244 -0.0223 -0.7345  1.4003
 4218TIP3   OH234144   6.799   2.306   5.366 -0.5296  1.0042  0.4776
 4218TIP3    H134145   6.839   2.220   5.374  0.7121  1.2664 -2.0364
 4218TIP3    H234146   6.724   2.293   5.308 -0.1447  1.6483 -0.1765
 4219TIP3   OH234147   5.134   6.024  12.227  0.3287  0.4621  0.6919
 4219TIP3    H134148   5.219   5.987  12.206  0.2903  0.9039 -0.2757
 4219TIP3    H234149   5.136   6.112  12.189 -0.1697  0.8712  1.5749
 4220TIP3   OH234150   4.190   1.277  17.009  0.4168  0.4062 -0.3592
 4220TIP3    H134151   4.151   1.203  17.056 -1.6157 -0.1755 -2.7758
 4220TIP3    H234152   4.140   1.353  17.038 -0.2118  0.1909 -0.8658
 4221TIP3   OH234153   2.289   6.077  11.986  0.3510  0.3399 -0.2217
 4221TIP3    H134154   2.282   6.115  12.074  1.5289 -2.1897  1.0757
 4221TIP3    H234155   2.210   6.024  11.977  0.9690 -0.6355 -0.0132
 4222TIP3   OH234156   6.560   5.190  10.820  0.6048 -0.7008  0.0364
 4222TIP3    H134157   6.579   5.167  10.911  0.8388 -0.7820 -0.0315
 4222TIP3    H234158   6.478   5.240  10.825  0.7088 -0.5512  0.3128
 4223TIP3   OH234159   1.518   6.775  16.260  0.1375 -0.4102 -0.5536
 4223TIP3    H134160   1.503   6.840  16.329 -1.3419 -0.8744 -0.4097
 4223TIP3    H234161   1.604   6.798  16.224  0.2806  0.7358  0.4553
 4224TIP3   OH234162   2.982   6.143  15.588 -0.4159 -0.3444 -0.2145
 4224TIP3    H134163   2.950   6.055  15.603 -3.8033  0.7920  0.1539
 4224TIP3    H234164   2.940   6.196  15.656  2.3442  1.4651  0.2587
 4225TIP3   OH234165   4.045   2.356  16.915  0.0962  0.2181 -0.1541
 4225TIP3    H134166   4.051   2.292  16.844  0.4044 -0.3682  0.3851
 4225TIP3    H234167   4.009   2.434  16.874 -2.3956 -0.9392 -0.4381
 4226TIP3   OH234168   5.290   0.018  11.925  1.2469 -0.1734 -0.4398
 4226TIP3    H134169   5.368   0.020  11.980  0.7025  3.8449  0.5550
 4226TIP3    H234170   5.316   0.065  11.845  0.4972 -0.9451 -1.1578
 4227TIP3   OH234171   6.755   3.050  16.809 -0.6164  0.2843 -0.7155
 4227TIP3    H134172   6.693   3.018  16.874 -1.5267  0.3154 -1.5495
 4227TIP3    H234173   6.708   3.119  16.762 -0.9618 -1.4971 -3.1692
 4228TIP3   OH234174   6.259   2.708   3.193  0.3567 -0.6786  0.0373
 4228TIP3    H134175   6.247   2.668   3.108 -1.7775  1.9161 -1.0352
 4228TIP3    H234176   6.336   2.765   3.182 -0.1987  0.0150 -0.3513
 4229TIP3   OH234177   4.415   0.228  14.915 -0.0220  0.1403  0.1853
 4229TIP3    H134178   4.333   0.276  14.912 -0.4511 -0.6098 -0.3780
 4229TIP3    H234179   4.413   0.182  14.999 -0.4043 -0.2693 -0.0489
 4230TIP3   OH234180   1.541   5.092   5.383  0.1156  0.2370  0.3230
 4230TIP3    H134181   1.523   5.138   5.465  0.6124  2.4796 -0.7599
 4230TIP3    H234182   1.636   5.093   5.375  0.0244  2.2021 -1.3632
 4231TIP3   OH234183   4.123   0.714  12.658 -0.0622  0.0899 -0.2758
 4231TIP3    H134184   4.080   0.799  12.646 -1.0750 -0.6007 -1.6679
 4231TIP3    H234185   4.135   0.680  12.570  2.6441 -0.1320  0.0796
 4232TIP3   OH234186   0.600   4.945  17.157  0.1934  0.2102 -0.1827
 4232TIP3    H134187   0.676   4.887  17.159 -0.6514 -0.9300  0.6698
 4232TIP3    H234188   0.526   4.887  17.174 -0.4761  1.8736  3.5158
 4233TIP3   OH234189   2.412   5.283  15.858  0.5719 -0.2123 -0.4097
 4233TIP3    H134190   2.323   5.313  15.841  0.0635 -1.5464 -0.2148
 4233TIP3    H234191   2.433   5.319  15.944  0.3674  0.4212 -0.6206
 4234TIP3   OH234192   2.680   4.056   5.140  0.1448 -0.3491  0.0868
 4234TIP3    H134193   2.720   4.143   5.148 -1.1155  0.3417 -0.8381
 4234TIP3    H234194   2.669   4.027   5.230  3.8891 -1.1763  0.4425
 4235TIP3   OH234195   1.831   2.125  15.446  0.3710  0.0189 -0.1335
 4235TIP3    H134196   1.803   2.213  15.470  0.1552  0.4663 -1.8643
 4235TIP3    H234197   1.749   2.078  15.430  0.4497  0.7041 -3.0917
 4236TIP3   OH234198   4.761   6.428   3.904  0.0070  0.3618 -0.0558
 4236TIP3    H134199   4.721   6.486   3.840 -0.2561  0.9783  0.6579
 4236TIP3    H234200   4.809   6.486   3.963 -1.6831  0.0514  1.7144
 4237TIP3   OH234201   0.615   3.035  15.991 -0.2205  0.3563  0.0286
 4237TIP3    H134202   0.542   3.095  15.973  0.6896  1.1874 -1.1523
 4237TIP3    H234203   0.634   2.996  15.906 -0.7985 -1.6789  0.7835
 4238TIP3   OH234204   0.198   5.662   5.837 -0.0361  0.0028  0.5458
 4238TIP3    H134205   0.183   5.756   5.823 -0.4568 -0.0226  0.8152
 4238TIP3    H234206   0.206   5.653   5.932 -0.3558 -0.2838  0.5499
 4239TIP3   OH234207   2.604   5.838   1.197 -0.8073 -0.0163  0.0494
 4239TIP3    H134208   2.670   5.865   1.134 -0.6909  1.8262  0.8805
 4239TIP3    H234209   2.527   5.891   1.175 -1.3209 -0.6029  0.3971
 4240TIP3   OH234210   0.056   6.767  15.909  0.1018  0.1293 -0.5494
 4240TIP3    H134211   0.099   6.697  15.957  1.0077  0.7126 -0.4790
 4240TIP3    H234212  -0.033   6.768  15.943  0.1848 -0.7380 -0.2879
 4241TIP3   OH234213   6.827   2.295  14.298 -0.4371  0.0766  0.0783
 4241TIP3    H134214   6.913   2.262  14.326  0.4209 -1.9752 -3.9939
 4241TIP3    H234215   6.772   2.216  14.293 -2.5456  1.2971  2.1776
 4242TIP3   OH234216   5.624   2.564   0.527  0.0010  0.5206 -0.5457
 4242TIP3    H134217   5.571   2.583   0.605  1.4408  0.4544  0.4944
 4242TIP3    H234218   5.582   2.615   0.457 -1.4383  0.4393  0.2071
 4243TIP3   OH234219   1.488   1.375  15.844 -0.4358  0.5240  0.1045
 4243TIP3    H134220   1.415   1.399  15.901 -0.5319 -1.3669  0.8322
 4243TIP3    H234221   1.447   1.339  15.766 -0.2970 -0.2115  0.3653
 4244TIP3   OH234222   6.770   2.793  12.935 -0.4578 -0.5815  0.4780
 4244TIP3    H134223   6.737   2.876  12.901 -1.6624 -1.0981  0.3221
 4244TIP3    H234224   6.782   2.808  13.028  0.0020 -0.0345  0.3368
 4245TIP3   OH234225   6.103   3.195  14.644  0.2565 -0.2965  0.0538
 4245TIP3    H134226   6.037   3.126  14.635 -1.7032  1.6195 -1.2083
 4245TIP3    H234227   6.174   3.168  14.586  0.2214 -1.9508  0.7215
 4246TIP3   OH234228   2.288   6.689   0.904  0.4411  0.2846 -0.0560
 4246TIP3    H134229   2.374   6.654   0.925  1.2882  1.9834 -0.5524
 4246TIP3    H234230   2.298   6.728   0.817 -1.6984 -2.2938 -1.6251
 4247TIP3   OH234231   3.030   4.306   0.695 -0.3144  0.6079 -0.0431
 4247TIP3    H134232   3.013   4.227   0.645  0.2941 -0.9179  2.0235
 4247TIP3    H234233   3.126   4.313   0.697 -0.3656  1.9257 -0.9390
 4248TIP3   OH234234   3.021   6.001   2.568  0.0220 -0.5959  0.1432
 4248TIP3    H134235   3.085   5.994   2.497  0.0612 -0.3567  0.1561
 4248TIP3    H234236   3.059   5.950   2.640  0.0452 -0.7252  0.0407
 4249TIP3   OH234237   6.611   4.204   2.544  0.0434  0.3576 -0.3557
 4249TIP3    H134238   6.565   4.260   2.482  0.8394  1.3215 -0.0964
 4249TIP3    H234239   6.627   4.260   2.620  0.9205 -0.1974 -0.1212
 4250TIP3   OH234240   6.718   5.665   6.281 -0.0590  0.0653  0.1621
 4250TIP3    H134241   6.738   5.738   6.339 -2.0373  1.7929 -1.1264
 4250TIP3    H234242   6.622   5.660   6.281 -0.0779 -0.7781 -1.8014
 4251TIP3   OH234243   2.894   1.710   1.715  0.3074  0.3432 -0.2140
 4251TIP3    H134244   2.884   1.622   1.680 -0.6615  0.1647  0.4605
 4251TIP3    H234245   2.952   1.700   1.790  0.4138  0.3292 -0.2972
 4252TIP3   OH234246   5.360   4.997  14.050 -0.2168 -0.0423  0.2048
 4252TIP3    H134247   5.369   5.026  14.141  0.3195 -0.8327  0.4129
 4252TIP3    H234248   5.301   4.922  14.055  2.1827 -2.0552  0.3510
 4253TIP3   OH234249   0.847   0.230  15.019  0.3457  0.4477 -0.1776
 4253TIP3    H134250   0.863   0.317  15.055  0.4884  1.4654 -2.5320
 4253TIP3    H234251   0.888   0.231  14.933 -0.2637 -1.7298 -0.5724
 4254TIP3   OH234252   3.142   1.264  15.127 -0.3643 -0.3975  0.5111
 4254TIP3    H134253   3.084   1.215  15.068  0.3193  0.4200 -0.8804
 4254TIP3    H234254   3.082   1.308  15.188 -1.1810 -0.0800 -0.4983
 4255TIP3   OH234255   2.188   3.889  15.664 -0.1389 -0.2236  0.1376
 4255TIP3    H134256   2.127   3.840  15.608 -0.1250 -1.5147  1.2009
 4255TIP3    H234257   2.220   3.824  15.726  0.3483  1.0262  1.2301
 4256TIP3   OH234258   3.466   4.218   1.495  0.0856 -0.3991 -0.1009
 4256TIP3    H134259   3.517   4.244   1.418 -0.9248 -1.8573 -1.3168
 4256TIP3    H234260   3.381   4.259   1.482  0.2087  0.1518  0.7647
 4257TIP3   OH234261   5.329   0.070  15.927  0.0924 -0.1058  0.3067
 4257TIP3    H134262   5.385   0.147  15.918 -0.5207  0.2468 -0.6972
 4257TIP3    H234263   5.348   0.036  16.014  0.0878  1.4155  0.9351
 4258TIP3   OH234264   1.306   3.888  17.170 -0.0705 -0.2086  0.2682
 4258TIP3    H134265   1.370   3.956  17.150 -0.3892 -0.1303 -0.4977
 4258TIP3    H234266   1.229   3.911  17.119  0.2041 -1.7701 -0.9236
 4259TIP3   OH234267   3.317   2.679   6.183  0.1641  0.2888 -0.0199
 4259TIP3    H134268   3.345   2.770   6.189  1.7345 -0.2231  0.9224
 4259TIP3    H234269   3.368   2.633   6.249 -0.2517 -1.3691 -0.7872
 4260TIP3   OH234270   6.169   6.050  13.499  0.2796 -0.2229 -0.1119
 4260TIP3    H134271   6.084   6.015  13.472 -0.3949  1.1064  0.1870
 4260TIP3    H234272   6.192   6.000  13.577 -0.0605 -0.8197 -0.3836
 4261TIP3   OH234273   4.012   6.092   1.394 -0.2189  0.2789  0.1801
 4261TIP3    H134274   4.056   6.123   1.473  0.2873 -2.0167  0.8920
 4261TIP3    H234275   4.082   6.081   1.330 -0.4960  1.2555 -0.3042
 4262TIP3   OH234276   0.817   2.716  15.451  0.0139 -1.1367  0.7426
 4262TIP3    H134277   0.910   2.696  15.451  0.0236 -1.2527 -1.0199
 4262TIP3    H234278   0.774   2.637  15.418 -0.4569 -0.3093 -0.7540
 4263TIP3   OH234279   5.458   1.486  12.929 -0.5423  0.0633 -0.1751
 4263TIP3    H134280   5.424   1.507  13.016  1.2901 -0.3079  0.6946
 4263TIP3    H234281   5.396   1.424  12.893 -1.3543  0.2425  0.8615
 4264TIP3   OH234282   3.054   1.014  12.120 -0.3349  0.2700  0.1003
 4264TIP3    H134283   3.144   1.040  12.140 -0.3771  0.7660 -0.3279
 4264TIP3    H234284   3.053   0.919  12.131  0.5610  0.1095 -1.0822
 4265TIP3   OH234285   4.374   5.426   3.035  0.2272  0.3776  0.0937
 4265TIP3    H134286   4.441   5.401   3.099  1.1589 -0.1488 -1.0448
 4265TIP3    H234287   4.372   5.354   2.973 -1.4207  0.3928  0.0875
 4266TIP3   OH234288   3.070   5.526  12.726 -0.0368 -0.0597 -0.0193
 4266TIP3    H134289   2.986   5.482  12.709 -1.0606  1.9452 -0.4677
 4266TIP3    H234290   3.133   5.478  12.673 -0.6056 -2.4565  1.3561
 4267TIP3   OH234291   0.173   2.386  15.427  0.1347 -0.2089 -0.6098
 4267TIP3    H134292   0.203   2.345  15.508 -0.8639  0.8298  0.3177
 4267TIP3    H234293   0.082   2.412  15.445  0.0350  0.4321 -1.9088
 4268TIP3   OH234294   3.785   4.078   6.243  0.0524 -0.2099  0.2506
 4268TIP3    H134295   3.786   3.993   6.200  0.2401 -0.1986  0.2300
 4268TIP3    H234296   3.813   4.140   6.175 -0.6767 -0.0443  0.0903
 4269TIP3   OH234297   6.199   5.694  15.106 -0.5595 -0.8184 -0.3441
 4269TIP3    H134298   6.106   5.675  15.121 -0.5126  0.0759  1.3002
 4269TIP3    H234299   6.206   5.789  15.121  0.3850 -0.6256 -1.8350
 4270TIP3   OH234300   0.046   3.750  13.670 -0.3427  0.6122  0.7696
 4270TIP3    H134301   0.012   3.683  13.729 -0.5200  0.6884  0.7545
 4270TIP3    H234302   0.130   3.776  13.708  1.0497 -1.5075 -0.5987
 4271TIP3   OH234303   2.549   1.181   3.525 -0.2188 -0.0862  0.0333
 4271TIP3    H134304   2.573   1.174   3.433 -1.8059 -0.4031 -0.3828
 4271TIP3    H234305   2.560   1.092   3.560 -0.3198 -0.1278 -0.0392
 4272TIP3   OH234306   0.438   1.585  16.183  0.0442 -0.1177  0.0181
 4272TIP3    H134307   0.365   1.572  16.122  0.0595  0.3459 -0.1008
 4272TIP3    H234308   0.504   1.632  16.132 -0.8025  2.2525  0.9976
 4273TIP3   OH234309   3.204   6.100  13.150 -0.1862 -0.1369  0.0050
 4273TIP3    H134310   3.289   6.057  13.155  0.6416  1.4473  0.2262
 4273TIP3    H234311   3.181   6.097  13.058  1.6324  2.1480 -0.6057
 4274TIP3   OH234312   3.793   6.617  13.818  0.9250  0.1341 -0.2921
 4274TIP3    H134313   3.783   6.558  13.893 -0.3011  0.6549 -0.0207
 4274TIP3    H234314   3.777   6.560  13.742  0.8483 -0.1114 -0.0955
 4275TIP3   OH234315   3.979   2.882   0.248 -0.2038 -0.0180 -0.8413
 4275TIP3    H134316   3.990   2.798   0.294  4.0718  0.7078 -0.1361
 4275TIP3    H234317   3.989   2.860   0.156 -0.2333 -0.4096 -0.7524
 4276TIP3   OH234318   5.638   5.580  15.403  0.3531  0.3087  0.0538
 4276TIP3    H134319   5.627   5.547  15.492  1.6494 -0.2162  0.0499
 4276TIP3    H234320   5.729   5.559  15.381  0.0699  0.4678 -1.3841
 4277TIP3   OH234321   0.295   4.357   1.721  0.2959  0.2515  0.0148
 4277TIP3    H134322   0.305   4.317   1.808  0.1593  0.4173  0.1079
 4277TIP3    H234323   0.347   4.302   1.663  0.1950 -0.0001  0.1617
 4278TIP3   OH234324   1.688   5.184  11.367 -0.3913  0.0905 -0.0523
 4278TIP3    H134325   1.717   5.110  11.314 -0.7168 -1.0207  1.2661
 4278TIP3    H234326   1.755   5.251  11.353 -0.9975  0.2693 -2.6633
 4279TIP3   OH234327   3.894   4.929  16.633  0.3702 -0.6069  0.5157
 4279TIP3    H134328   3.864   4.862  16.693  0.6949 -2.1480 -0.9512
 4279TIP3    H234329   3.840   4.917  16.554  1.6348 -0.3401 -0.4291
 4280TIP3   OH234330   5.303   0.214   1.486  0.3228 -0.1297  0.6632
 4280TIP3    H134331   5.318   0.214   1.581  0.0915 -0.0663  0.6997
 4280TIP3    H234332   5.209   0.229   1.476  0.3273 -0.2528  0.4260
 4281TIP3   OH234333   1.432   1.899  15.618 -0.0555 -0.0332  0.1302
 4281TIP3    H134334   1.523   1.897  15.589 -0.1883 -0.5851 -0.2528
 4281TIP3    H234335   1.380   1.894  15.538 -0.4220 -2.4043  0.4539
 4282TIP3   OH234336   2.788   1.692   5.923 -0.0067 -0.1080  0.4611
 4282TIP3    H134337   2.735   1.627   5.970  1.9627 -1.4317  0.9787
 4282TIP3    H234338   2.800   1.763   5.986 -0.7177 -0.0180  0.5079
 4283TIP3   OH234339   1.215   3.043   1.669 -0.6076 -0.1772  0.3273
 4283TIP3    H134340   1.256   3.070   1.587 -1.4962  1.1335  0.2791
 4283TIP3    H234341   1.264   2.965   1.696  1.6785  1.0708  0.0930
 4284TIP3   OH234342   3.789   5.503   5.195  0.3314  0.5138 -0.1343
 4284TIP3    H134343   3.764   5.412   5.180 -1.4031  0.5726  1.9216
 4284TIP3    H234344   3.708   5.552   5.182  1.1560  1.7367 -0.8139
 4285TIP3   OH234345   2.273   4.261  14.279  0.0635  0.0073  0.3973
 4285TIP3    H134346   2.295   4.354  14.285  0.9732 -0.2728  2.1038
 4285TIP3    H234347   2.178   4.259  14.280  0.0243  0.8910  1.6318
 4286TIP3   OH234348   4.046   4.706  16.339  0.0997  0.4373  0.1725
 4286TIP3    H134349   3.966   4.731  16.292 -0.2774 -1.4981 -0.2743
 4286TIP3    H234350   4.017   4.681  16.426 -0.1580 -2.4031 -0.6493
 4287TIP3   OH234351   1.047   5.661  16.422  0.3358 -0.3470  0.1976
 4287TIP3    H134352   1.082   5.640  16.509  1.4704  0.4562 -0.0365
 4287TIP3    H234353   1.100   5.735  16.393  0.1065 -0.7323 -1.2680
 4288TIP3   OH234354   0.661   6.072   6.513 -0.4878  0.0869 -0.0454
 4288TIP3    H134355   0.585   6.045   6.564 -2.3437  0.4529 -2.4473
 4288TIP3    H234356   0.638   6.051   6.423  2.2864  0.2270 -0.8689
 4289TIP3   OH234357   3.222   0.756   3.542  0.2190 -0.0785 -0.2577
 4289TIP3    H134358   3.290   0.736   3.606  0.5118  0.6248 -0.3480
 4289TIP3    H234359   3.185   0.839   3.571 -0.8064 -0.5838 -0.0448
 4290TIP3   OH234360   5.698   4.209  13.894 -0.4537  0.1067  0.3029
 4290TIP3    H134361   5.691   4.116  13.874 -2.4953  0.0745  0.9704
 4290TIP3    H234362   5.673   4.216  13.986 -1.4713  1.4430 -0.0465
 4291TIP3   OH234363   2.329   3.392   6.335  0.2465  0.3503 -0.0894
 4291TIP3    H134364   2.314   3.451   6.261  0.6624 -0.5624 -0.9319
 4291TIP3    H234365   2.266   3.419   6.401  0.9272  2.2173 -0.1488
 4292TIP3   OH234366   4.537   2.151   4.739  0.5253 -0.6405 -0.3854
 4292TIP3    H134367   4.592   2.098   4.797  0.5805  0.1027  0.2743
 4292TIP3    H234368   4.587   2.232   4.727 -0.9569  0.5996  1.3120
 4293TIP3   OH234369   2.236   5.684  16.772  0.5030 -0.2580  0.4730
 4293TIP3    H134370   2.209   5.770  16.740 -1.1413 -0.6119  0.8521
 4293TIP3    H234371   2.235   5.692  16.867  0.1320 -0.7667  0.5117
 4294TIP3   OH234372   3.345   4.237  16.725  0.8341  0.3828 -0.0627
 4294TIP3    H134373   3.304   4.292  16.658  1.5332  0.9040 -0.0670
 4294TIP3    H234374   3.433   4.272  16.735  0.7531  0.3017  1.1179
 4295TIP3   OH234375   4.897   4.301  15.038 -0.0670 -0.7787 -0.0398
 4295TIP3    H134376   4.858   4.239  15.100  0.7741  0.6596  2.0602
 4295TIP3    H234377   4.838   4.377  15.039  1.9222  0.8941  2.1963
 4296TIP3   OH234378   2.235   5.157   0.064 -0.2590 -0.2305 -0.3010
 4296TIP3    H134379   2.180   5.211   0.007  1.5150  1.4981 -0.5209
 4296TIP3    H234380   2.292   5.109   0.004  0.1990 -0.0192 -0.0401
 4297TIP3   OH234381   3.304   4.965   3.481 -0.0342 -0.2431  0.0514
 4297TIP3    H134382   3.222   4.924   3.455 -0.7001  1.6828 -1.1098
 4297TIP3    H234383   3.282   5.057   3.493  2.0361  0.4162 -0.7427
 4298TIP3   OH234384   0.143   4.320   3.413 -0.0623 -0.1683  0.8513
 4298TIP3    H134385   0.090   4.337   3.335 -1.1213  1.1414  1.8139
 4298TIP3    H234386   0.179   4.233   3.399 -0.7925 -0.2359 -0.7838
 4299TIP3   OH234387   0.069   6.024   1.063  0.0044  0.3434 -0.0760
 4299TIP3    H134388   0.034   6.017   0.974  0.6280  0.1261 -0.3123
 4299TIP3    H234389   0.058   6.117   1.086 -1.2206  0.1718  0.0754
 4300TIP3   OH234390   3.713   1.231   6.675 -0.0202  0.6570  0.0169
 4300TIP3    H134391   3.637   1.193   6.631  1.7841 -1.4640 -1.5430
 4300TIP3    H234392   3.723   1.318   6.637  1.4703 -1.0605 -4.1759
 4301TIP3   OH234393   6.314   2.566  14.887 -0.6545  0.0395  0.1271
 4301TIP3    H134394   6.406   2.561  14.863 -0.8914 -1.8257 -0.5235
 4301TIP3    H234395   6.312   2.539  14.979 -0.5620 -0.0466  0.1041
 4302TIP3   OH234396   6.710   0.313  11.397  0.0347 -0.1941 -0.3068
 4302TIP3    H134397   6.704   0.217  11.393 -0.8299 -0.1406 -0.5386
 4302TIP3    H234398   6.765   0.330  11.473  1.3752 -0.8981 -1.0872
 4303TIP3   OH234399   2.440   5.835   1.679 -0.7163  0.6101  0.0172
 4303TIP3    H134400   2.534   5.827   1.662 -0.7142 -0.2855  0.4513
 4303TIP3    H234401   2.416   5.916   1.634  0.2082  0.7146 -0.3246
 4304TIP3   OH234402   4.460   2.481  14.352  0.7382  0.4829  0.6122
 4304TIP3    H134403   4.470   2.397  14.306  0.5548  0.8269 -0.0658
 4304TIP3    H234404   4.521   2.474  14.426 -0.4502 -0.8858  1.5310
 4305TIP3   OH234405   6.565   2.407  12.194 -0.3687 -0.0956 -0.1014
 4305TIP3    H134406   6.504   2.469  12.155  0.2978  0.3839 -0.4113
 4305TIP3    H234407   6.527   2.321  12.176 -1.5895  0.2206  0.8191
 4306TIP3   OH234408   2.839   3.041  11.736  0.2720 -0.3445  0.4812
 4306TIP3    H134409   2.752   3.072  11.764  0.1793 -0.0177 -0.1449
 4306TIP3    H234410   2.864   2.978  11.803 -0.8384 -1.1088  0.2136
 4307TIP3   OH234411   1.322   2.960   0.981 -0.5449 -0.6075 -0.2493
 4307TIP3    H134412   1.336   2.959   1.075  0.6893  0.3436 -0.3981
 4307TIP3    H234413   1.409   2.948   0.943 -1.1500 -2.1668 -1.3029
 4308TIP3   OH234414   0.930   4.191   5.950  0.2860  0.0648 -0.5402
 4308TIP3    H134415   0.920   4.115   5.893  1.3689 -0.1326 -0.4850
 4308TIP3    H234416   0.886   4.262   5.903 -1.0073 -0.6292 -0.4519
 4309TIP3   OH234417   1.651   1.734  16.733 -0.2308 -0.3043 -0.2669
 4309TIP3    H134418   1.638   1.643  16.759  0.1333  0.4741  3.1321
 4309TIP3    H234419   1.735   1.758  16.772 -0.1645  1.4273 -1.3773
 4310TIP3   OH234420   5.901   3.289   1.755  0.0536  0.4073  0.1436
 4310TIP3    H134421   5.855   3.330   1.681 -0.2121  0.6038  0.4157
 4310TIP3    H234422   5.876   3.197   1.751  0.6754  0.2519 -0.4887
 4311TIP3   OH234423   0.933   2.291   4.754  0.3196  0.3739 -0.1027
 4311TIP3    H134424   1.023   2.257   4.760 -0.0040 -0.1681  2.6848
 4311TIP3    H234425   0.944   2.386   4.747  1.1269  0.3752  0.9210
 4312TIP3   OH234426   2.296   0.582  14.954 -0.1776 -0.4960 -0.2821
 4312TIP3    H134427   2.303   0.574  15.049  1.4767  0.0326 -0.3329
 4312TIP3    H234428   2.303   0.676  14.937  1.0332 -0.6938 -1.0057
 4313TIP3   OH234429   6.700   2.594   2.715 -0.0508 -0.3833 -0.5540
 4313TIP3    H134430   6.703   2.516   2.659 -1.7744 -1.6437  1.0173
 4313TIP3    H234431   6.641   2.571   2.786  1.4308  1.4363  1.4071
 4314TIP3   OH234432   1.754   2.069   4.106  0.5838  0.4675  0.3780
 4314TIP3    H134433   1.824   2.008   4.128  0.7206 -0.0377 -1.3004
 4314TIP3    H234434   1.796   2.134   4.049 -0.0126  0.9267  0.4507
 4315TIP3   OH234435   5.135   5.189   1.593  0.2102 -0.5150 -0.5425
 4315TIP3    H134436   5.092   5.125   1.650  0.1972 -1.3861 -1.4992
 4315TIP3    H234437   5.157   5.262   1.651  0.9778 -1.7274  0.7615
 4316TIP3   OH234438   4.146   1.861   4.943 -0.0586 -0.3272  0.3330
 4316TIP3    H134439   4.164   1.943   4.988  1.4515 -0.3747 -0.1053
 4316TIP3    H234440   4.123   1.887   4.854 -1.1768 -0.3213  0.6116
 4317TIP3   OH234441   5.852   5.245   1.128  0.3163  0.6797  0.1755
 4317TIP3    H134442   5.913   5.313   1.155  0.5465  0.7773 -0.5583
 4317TIP3    H234443   5.813   5.279   1.047  0.1060  0.1418  0.0471
 4318TIP3   OH234444   1.443   6.374   3.958 -0.3268 -0.2986 -0.1789
 4318TIP3    H134445   1.426   6.446   4.019 -1.2817 -0.6333 -0.0242
 4318TIP3    H234446   1.369   6.315   3.970  0.1010 -0.9786 -0.7881
 4319TIP3   OH234447   1.982   5.404   4.586 -0.7474  0.4494 -1.0365
 4319TIP3    H134448   1.919   5.370   4.650 -1.9995  0.9223 -1.9684
 4319TIP3    H234449   2.060   5.350   4.598 -1.7230 -0.9057 -0.6075
 4320TIP3   OH234450   0.773   4.859   1.914  0.7340 -0.2526  0.6545
 4320TIP3    H134451   0.714   4.918   1.960 -0.7188  1.6719 -3.2558
 4320TIP3    H234452   0.732   4.773   1.920 -0.1633  0.2270  1.6073
 4321TIP3   OH234453   2.222   0.758   2.092 -0.3585  0.4555 -0.9698
 4321TIP3    H134454   2.167   0.808   2.152 -0.1914 -0.0776 -0.3540
 4321TIP3    H234455   2.299   0.735   2.145  0.2760  0.8749 -1.7021
 4322TIP3   OH234456   0.715   3.580   0.163  0.1336 -0.1722 -0.6045
 4322TIP3    H134457   0.728   3.626   0.080 -0.2387  0.4842 -0.3035
 4322TIP3    H234458   0.685   3.492   0.137  0.8804 -0.2602 -1.1775
 4323TIP3   OH234459   0.211   5.376  16.783 -0.2930  0.5705 -0.0801
 4323TIP3    H134460   0.224   5.439  16.712  0.6237 -0.1329 -0.5517
 4323TIP3    H234461   0.234   5.291  16.745  1.1120  0.3000  1.2997
 4324TIP3   OH234462   0.630   4.609  11.445  0.3498  0.5188 -0.1606
 4324TIP3    H134463   0.576   4.677  11.404 -1.2821 -0.1564  0.7923
 4324TIP3    H234464   0.573   4.567  11.509  1.0053 -2.3021 -1.2395
 4325TIP3   OH234465   2.261   0.099  15.746 -0.0708  0.2514  0.0970
 4325TIP3    H134466   2.283   0.006  15.744 -1.6638 -0.1963  1.3191
 4325TIP3    H234467   2.249   0.119  15.839  0.9863  1.8871 -0.0759
 4326TIP3   OH234468   5.614   0.086   3.293  0.4233  1.1670  0.1556
 4326TIP3    H134469   5.519   0.073   3.296  0.3437  1.0586 -1.8045
 4326TIP3    H234470   5.650  -0.001   3.275  0.6196  1.6991 -2.4199
 4327TIP3   OH234471   3.350   1.737  12.370 -0.1022  0.1225  0.1917
 4327TIP3    H134472   3.407   1.661  12.378 -0.7629 -0.4936 -0.8236
 4327TIP3    H234473   3.407   1.811  12.392  1.4480 -0.3444 -1.8808
 4328TIP3   OH234474   0.742   5.501   3.075 -0.1889  0.2010  0.4869
 4328TIP3    H134475   0.690   5.575   3.043  0.2106  0.1715 -0.2655
 4328TIP3    H234476   0.730   5.502   3.170 -1.5614  0.1884  0.3392
 4329TIP3   OH234477   6.833   4.142  12.551 -0.9475 -0.6429  0.0833
 4329TIP3    H134478   6.806   4.107  12.636 -1.0928 -0.3591  0.1564
 4329TIP3    H234479   6.793   4.229  12.548 -0.2700 -0.3247  0.0717
 4330TIP3   OH234480   6.318   5.233  16.441 -0.1862 -0.2063  0.1815
 4330TIP3    H134481   6.330   5.303  16.505  0.3077  0.3759 -0.5311
 4330TIP3    H234482   6.398   5.180  16.448 -0.8279 -1.0922  1.1629
 4331TIP3   OH234483   2.307   4.874  14.627  0.1499  0.4998  0.2211
 4331TIP3    H134484   2.275   4.855  14.539  1.5080  2.1330 -0.6809
 4331TIP3    H234485   2.334   4.966  14.624  1.4983  0.2125  1.9349
 4332TIP3   OH234486   1.623   4.316   1.404  0.4625 -0.0872  0.0785
 4332TIP3    H134487   1.626   4.404   1.367 -0.0721  0.4405  1.2492
 4332TIP3    H234488   1.685   4.266   1.351  0.6910  0.9568 -0.6759
 4333TIP3   OH234489   6.175   2.667   4.278  0.1233 -0.2551  0.0054
 4333TIP3    H134490   6.138   2.636   4.195  2.5672  0.6852 -1.5728
 4333TIP3    H234491   6.192   2.760   4.263  4.7712 -0.8871 -0.3191
 4334TIP3   OH234492   1.765   1.430   4.386  0.2610  0.0228 -0.2227
 4334TIP3    H134493   1.704   1.456   4.455 -0.5644 -0.2233 -0.8383
 4334TIP3    H234494   1.710   1.381   4.324  0.7040  1.3723 -1.7246
 4335TIP3   OH234495   6.276   0.264   4.738 -0.5126  0.1567 -0.2174
 4335TIP3    H134496   6.348   0.244   4.678 -0.8312 -0.6999 -0.3299
 4335TIP3    H234497   6.287   0.201   4.810 -0.9513  0.2404 -0.0748
 4336TIP3   OH234498   3.538   1.494   2.917 -0.0782 -0.4358 -0.3581
 4336TIP3    H134499   3.565   1.402   2.927  1.6475 -0.2375 -2.4066
 4336TIP3    H234500   3.503   1.518   3.003  0.7092 -2.6015  0.6589
 4337TIP3   OH234501   5.832   5.897  10.541  0.2348  0.1337  0.3885
 4337TIP3    H134502   5.852   5.956  10.614  1.7302  0.0341  0.0893
 4337TIP3    H234503   5.843   5.951  10.463 -1.6320  0.3163  0.2001
 4338TIP3   OH234504   0.951   0.674  11.571  0.5276 -0.6245  0.2717
 4338TIP3    H134505   0.927   0.680  11.478 -0.1070  0.1582  0.4722
 4338TIP3    H234506   0.867   0.670  11.617  0.8491 -1.7837  0.7825
 4339TIP3   OH234507   5.260   0.142  11.216  0.2416  0.2884  0.8871
 4339TIP3    H134508   5.253   0.225  11.168 -2.0547 -1.3924 -2.0139
 4339TIP3    H234509   5.321   0.089  11.164  1.6498  0.0465  2.6778
 4340TIP3   OH234510   6.344   4.829   4.803  0.4747 -0.0373  0.3374
 4340TIP3    H134511   6.270   4.889   4.814  0.7992  0.4021  0.1554
 4340TIP3    H234512   6.303   4.746   4.777  0.0694  0.3376 -0.2677
 4341TIP3   OH234513   6.170   4.146   4.389  0.1185  0.1293  0.3624
 4341TIP3    H134514   6.122   4.063   4.387  1.4830 -0.7110  1.1936
 4341TIP3    H234515   6.175   4.169   4.481  2.7629 -0.7340  0.5320
 4342TIP3   OH234516   2.134   6.662   4.314 -0.5927 -0.5124  0.1330
 4342TIP3    H134517   2.158   6.738   4.368 -1.0232 -0.8195  0.7762
 4342TIP3    H234518   2.186   6.590   4.349 -1.4532 -0.8910  0.6803
 4343TIP3   OH234519   5.082   1.288  11.999  0.7899  0.2719  0.3968
 4343TIP3    H134520   5.166   1.242  11.995  0.5612 -0.0913 -0.3227
 4343TIP3    H234521   5.097   1.360  12.061  1.8880  0.7338 -0.3783
 4344TIP3   OH234522   3.400   2.990  14.784  0.0005  0.5615  0.0603
 4344TIP3    H134523   3.451   3.069  14.806 -1.6049  1.3219  1.3151
 4344TIP3    H234524   3.332   2.987  14.851  0.2653 -2.1774  0.2999
 4345TIP3   OH234525   4.185   6.670  16.796  0.7880  0.1141  0.3885
 4345TIP3    H134526   4.216   6.676  16.886 -2.1754  1.5465  1.4368
 4345TIP3    H234527   4.162   6.577  16.785  1.4075 -0.1199  0.9971
 4346TIP3   OH234528   3.959   6.715   1.069 -0.5579  0.1153  0.2817
 4346TIP3    H134529   4.030   6.665   1.111  1.3689  1.7417 -0.8943
 4346TIP3    H234530   3.939   6.666   0.990 -1.1755 -0.6551  0.9015
 4347TIP3   OH234531   4.876   6.754  14.802 -0.4318  0.1156 -0.1514
 4347TIP3    H134532   4.796   6.764  14.853  0.4186  1.2142  1.0192
 4347TIP3    H234533   4.908   6.666  14.823 -0.9698 -0.0687 -0.0978
 4348TIP3   OH234534   2.304   3.836   3.574  0.4215 -0.3097  0.3608
 4348TIP3    H134535   2.369   3.813   3.641 -0.4721  0.7815  1.6724
 4348TIP3    H234536   2.253   3.756   3.563 -3.2044  0.7835  5.4914
 4349TIP3   OH234537   4.979   6.787   3.833  0.1827 -0.2776 -0.4811
 4349TIP3    H134538   4.922   6.766   3.907  0.5128 -1.6753 -0.5962
 4349TIP3    H234539   5.020   6.703   3.809  0.2261  0.1724 -2.1220
 4350TIP3   OH234540   4.024   0.942   4.094  0.0469 -0.8563  0.3542
 4350TIP3    H134541   4.116   0.918   4.086  0.3502 -0.1679  1.5883
 4350TIP3    H234542   4.008   0.948   4.188 -1.0069 -0.0171  0.1509
 4351TIP3   OH234543   2.071   3.849  11.307  0.1586  0.1102 -0.1886
 4351TIP3    H134544   2.094   3.860  11.214  0.5340 -0.1097 -0.1276
 4351TIP3    H234545   1.983   3.812  11.306 -0.1188  0.7568 -0.4422
 4352TIP3   OH234546   4.179   6.221   2.264  0.5661 -0.1728  0.8309
 4352TIP3    H134547   4.113   6.156   2.238  0.9930 -0.7084  1.0550
 4352TIP3    H234548   4.220   6.248   2.182  0.9966 -0.8604  0.8108
 4353TIP3   OH234549   6.636   5.604   1.145  0.3834  0.3499 -0.2225
 4353TIP3    H134550   6.695   5.660   1.094 -0.5539  0.8506 -0.7671
 4353TIP3    H234551   6.672   5.515   1.134  0.7920  0.5904 -0.8873
 4354TIP3   OH234552   4.854   0.833  14.748  0.0016  0.4691  0.2707
 4354TIP3    H134553   4.889   0.805  14.664  2.2163  0.6558  1.0579
 4354TIP3    H234554   4.764   0.802  14.749  0.4117 -0.8952 -1.5157
 4355TIP3   OH234555   5.339   3.101   4.840 -0.1239 -0.1062 -0.0789
 4355TIP3    H134556   5.419   3.053   4.860 -0.0337 -0.0359 -0.2605
 4355TIP3    H234557   5.268   3.042   4.864 -0.0148 -0.2136 -0.0241
 4356TIP3   OH234558   0.589   0.365   5.338 -0.3741 -0.2066 -0.3863
 4356TIP3    H134559   0.601   0.270   5.329 -0.1964 -0.2517  0.2351
 4356TIP3    H234560   0.633   0.386   5.421 -0.6095  0.3809 -0.4106
 4357TIP3   OH234561   3.653   3.256  13.500  0.3070 -0.1659  0.2743
 4357TIP3    H134562   3.706   3.179  13.480 -1.5002 -1.7752  1.2757
 4357TIP3    H234563   3.649   3.258  13.596 -0.5489  0.5518  0.2381
 4358TIP3   OH234564   1.918   3.208   5.997  0.0367  0.7870  0.1173
 4358TIP3    H134565   1.947   3.256   5.920  0.2116  1.9982  0.9090
 4358TIP3    H234566   1.966   3.248   6.070  0.0569 -0.4848  0.8315
 4359TIP3   OH234567   2.796   2.187   4.551  0.2195  0.1979  0.1866
 4359TIP3    H134568   2.746   2.247   4.605 -1.1615 -1.6197  0.9995
 4359TIP3    H234569   2.764   2.203   4.462 -1.4622 -0.5475  0.6219
 4360TIP3   OH234570   5.500   3.689  15.517 -0.4759 -0.0033  0.3916
 4360TIP3    H134571   5.460   3.706  15.431  1.8624  1.5553 -0.4713
 4360TIP3    H234572   5.426   3.664  15.573 -1.9373 -2.2906 -2.3142
 4361TIP3   OH234573   4.010   1.158   1.751  0.1206  0.1633 -0.4745
 4361TIP3    H134574   4.061   1.149   1.671  0.7263 -1.7585  0.0838
 4361TIP3    H234575   4.054   1.229   1.799  1.5622 -0.6277 -0.5537
 4362TIP3   OH234576   0.669   5.683   2.737  0.3655 -0.5393  0.0693
 4362TIP3    H134577   0.620   5.652   2.661  0.3281 -0.4828  0.0707
 4362TIP3    H234578   0.747   5.628   2.739 -0.1314 -1.2440  0.5999
 4363TIP3   OH234579   4.251   0.616  16.165 -0.1387  0.5700  0.0984
 4363TIP3    H134580   4.326   0.667  16.196  0.8005  0.0152 -1.1691
 4363TIP3    H234581   4.188   0.619  16.237  1.1325  0.9712  1.2230
 4364TIP3   OH234582   2.678   2.320   5.794 -0.2647 -0.3837  0.0468
 4364TIP3    H134583   2.665   2.399   5.741  0.6758  0.9240  1.6850
 4364TIP3    H234584   2.772   2.315   5.809 -0.5965  0.2533  2.9189
 4365TIP3   OH234585   1.459   3.776   3.842  0.7133 -0.2814 -0.0395
 4365TIP3    H134586   1.383   3.795   3.897 -1.5142 -0.0462 -3.0135
 4365TIP3    H234587   1.481   3.685   3.863 -0.4309 -0.3787  0.8046
 4366TIP3   OH234588   3.427   1.546  11.532 -0.5555 -0.5451  0.4551
 4366TIP3    H134589   3.395   1.596  11.457  1.2146 -0.7691 -0.4946
 4366TIP3    H234590   3.362   1.477  11.544 -1.3201  0.0255 -0.2883
 4367TIP3   OH234591   5.584   1.938  16.741 -0.2951 -0.4766 -0.8675
 4367TIP3    H134592   5.678   1.928  16.755 -0.5158 -1.5267  0.0161
 4367TIP3    H234593   5.563   1.874  16.674 -0.5944 -1.2132 -0.0846
 4368TIP3   OH234594   2.387   1.707   3.915 -0.1746 -0.8301  0.5472
 4368TIP3    H134595   2.416   1.622   3.946 -0.4762 -1.1220  0.0364
 4368TIP3    H234596   2.362   1.693   3.824  4.4650  0.7727 -1.2496
 4369TIP3   OH234597   6.314   2.455   0.458 -0.4601  0.6562 -0.2431
 4369TIP3    H134598   6.340   2.506   0.535 -0.1209 -1.0639  0.8246
 4369TIP3    H234599   6.218   2.460   0.458 -0.6568 -1.3501  1.8163
 4370TIP3   OH234600   3.803   0.219   4.396  0.1836 -0.7745 -0.1912
 4370TIP3    H134601   3.791   0.134   4.353 -0.3665 -0.1306 -1.3650
 4370TIP3    H234602   3.777   0.283   4.330  3.1802  0.4690 -0.3043
 4371TIP3   OH234603   2.742   3.663  14.209  0.0509 -0.0038  0.4357
 4371TIP3    H134604   2.833   3.638  14.224  0.0161 -0.8674 -0.6365
 4371TIP3    H234605   2.715   3.611  14.134 -0.8820  1.3646 -0.2141
 4372TIP3   OH234606   4.969   4.104  14.655 -1.0268 -0.4743 -0.0109
 4372TIP3    H134607   4.902   4.158  14.612  0.3533  1.0190 -0.3787
 4372TIP3    H234608   4.957   4.121  14.748 -0.1152  1.1485 -0.1522
 4373TIP3   OH234609   5.487   2.970  15.385 -0.2316  0.5166 -0.3261
 4373TIP3    H134610   5.429   2.935  15.453  1.8490  1.7572  2.2765
 4373TIP3    H234611   5.451   3.056  15.365  1.1056  1.7460  2.0717
 4374TIP3   OH234612   3.591   5.454  12.793 -0.1377  0.1482  0.0453
 4374TIP3    H134613   3.532   5.390  12.753 -0.6577  1.8788 -2.1468
 4374TIP3    H234614   3.679   5.425  12.768 -0.2801 -0.4306  0.2125
 4375TIP3   OH234615   5.848   0.592   1.448  0.4091 -0.1676 -0.5707
 4375TIP3    H134616   5.787   0.664   1.437  0.4572 -0.1967 -1.0511
 4375TIP3    H234617   5.927   0.633   1.485 -0.0291 -0.1948  0.4465
 4376TIP3   OH234618   1.316   4.074   4.097  0.5091 -0.0475  0.4888
 4376TIP3    H134619   1.317   4.100   4.189 -0.5933  1.0199  0.2280
 4376TIP3    H234620   1.408   4.076   4.070  0.7107  1.1235  1.1833
 4377TIP3   OH234621   2.667   2.834  14.110 -0.3770  0.3156 -0.5880
 4377TIP3    H134622   2.682   2.920  14.071 -0.0059  0.5177 -0.0041
 4377TIP3    H234623   2.642   2.778  14.036 -0.4042  0.8698 -0.9999
 4378TIP3   OH234624   0.215   1.628   2.547 -0.3802  0.1600 -0.0809
 4378TIP3    H134625   0.224   1.568   2.473  2.1727 -0.4573  0.6191
 4378TIP3    H234626   0.146   1.589   2.601 -3.1756  1.2681 -2.5961
 4379TIP3   OH234627   0.545   6.084   2.670 -0.7157  0.7188 -0.4804
 4379TIP3    H134628   0.521   5.992   2.661 -0.2717  0.6898 -1.6133
 4379TIP3    H234629   0.471   6.133   2.633 -0.8088  0.7978 -0.1872
 4380TIP3   OH234630   1.380   0.535  15.835  0.1853 -0.7646  0.2358
 4380TIP3    H134631   1.302   0.483  15.818  0.1671 -0.3178 -1.1799
 4380TIP3    H234632   1.453   0.473  15.826  0.0579 -0.9401  0.4180
 4381TIP3   OH234633   5.813   1.020   3.497  0.0272  0.3544  0.2132
 4381TIP3    H134634   5.836   0.945   3.444  2.1837 -0.1418  1.6916
 4381TIP3    H234635   5.777   0.983   3.578  1.7203  0.7973  1.2325
 4382TIP3   OH234636   4.140   4.846  14.013 -1.0025 -0.0597  0.2435
 4382TIP3    H134637   4.155   4.908  13.942  1.5474  0.7370  1.3398
 4382TIP3    H234638   4.067   4.792  13.984 -1.2378  1.4282 -2.1376
 4383TIP3   OH234639   1.231   4.105   6.083 -0.0725  0.6338  0.1277
 4383TIP3    H134640   1.281   4.087   6.004 -0.2634 -1.5799  0.4500
 4383TIP3    H234641   1.237   4.025   6.134 -3.9475  0.1690  0.1679
 4384TIP3   OH234642   2.402   5.572  14.757  0.2170 -0.3655 -0.2962
 4384TIP3    H134643   2.359   5.489  14.777  0.8930 -0.6724 -0.0628
 4384TIP3    H234644   2.482   5.547  14.710 -0.2970  0.2397 -1.5181
 4385TIP3   OH234645   1.706   3.013  14.789 -0.1174  0.2624  0.1603
 4385TIP3    H134646   1.793   3.019  14.829  0.2023 -0.8187 -0.3560
 4385TIP3    H234647   1.722   2.992  14.697 -0.9310 -2.8032  0.6059
 4386TIP3   OH234648   1.447   2.386   6.068  0.6629 -0.2951  0.3081
 4386TIP3    H134649   1.416   2.469   6.031 -0.8327 -1.6116 -1.6342
 4386TIP3    H234650   1.508   2.411   6.137  0.8370  2.3976 -0.7170
 4387TIP3   OH234651   0.604   0.286  11.880 -0.4510  0.2393 -0.3038
 4387TIP3    H134652   0.691   0.324  11.866  0.3263 -0.8985  1.1263
 4387TIP3    H234653   0.569   0.335  11.955 -0.1017 -0.7453  0.5293
 4388TIP3   OH234654   1.878   5.317   5.457  0.5012  0.0054  0.1591
 4388TIP3    H134655   1.814   5.301   5.527  1.5508 -1.5329  0.8300
 4388TIP3    H234656   1.922   5.398   5.483 -1.0809  1.0492 -0.2785
 4389TIP3   OH234657   2.619   3.620  11.832  0.2305  0.1004 -0.0269
 4389TIP3    H134658   2.624   3.639  11.926 -0.5856  0.6215 -0.0794
 4389TIP3    H234659   2.545   3.559  11.824  0.4321 -0.1087 -0.3071
 4390TIP3   OH234660   6.714   0.059   3.468 -0.1208  0.1708 -0.0208
 4390TIP3    H134661   6.808   0.067   3.456 -0.1267  2.0336  0.7504
 4390TIP3    H234662   6.700   0.072   3.562 -1.2824  2.1943 -0.4077
 4391TIP3   OH234663   0.916   2.314  12.899  0.5956  0.3190  0.0022
 4391TIP3    H134664   0.854   2.241  12.898 -0.3345  1.0983 -0.5041
 4391TIP3    H234665   0.949   2.316  12.989  0.7944 -0.8439 -0.0322
 4392TIP3   OH234666   6.667   4.926  14.326  0.2556  0.8579  0.3833
 4392TIP3    H134667   6.609   4.945  14.253 -0.2386  1.0995  0.8343
 4392TIP3    H234668   6.739   4.875  14.288  1.1641  2.8344 -0.6954
 4393TIP3   OH234669   3.119   6.337   1.610  0.1267 -0.8713  0.2280
 4393TIP3    H134670   3.190   6.285   1.648 -0.5581 -0.9670  1.4523
 4393TIP3    H234671   3.043   6.279   1.612 -0.1723 -0.5073 -0.3122
 4394TIP3   OH234672   4.150   0.854  15.350  0.0620  0.0183 -0.3727
 4394TIP3    H134673   4.076   0.857  15.289  1.1471  0.1898 -1.7151
 4394TIP3    H234674   4.226   0.836  15.295  0.8048 -1.9426  1.2061
 4395TIP3   OH234675   5.214   2.320   4.168 -0.1487  0.2006 -0.1483
 4395TIP3    H134676   5.173   2.352   4.088 -0.4423 -2.2058 -1.0448
 4395TIP3    H234677   5.298   2.284   4.139  0.2753  0.3640  0.8230
 4396TIP3   OH234678   3.593   3.549  11.852 -0.9948  0.3848 -0.4577
 4396TIP3    H134679   3.619   3.513  11.937  1.8247  1.0704 -0.9274
 4396TIP3    H234680   3.550   3.476  11.807 -1.4494 -0.3384  1.0739
 4397TIP3   OH234681   1.558   4.006   1.728 -0.1259 -0.2223  0.0241
 4397TIP3    H134682   1.615   3.969   1.796  1.6452 -0.1101 -1.3313
 4397TIP3    H234683   1.524   3.930   1.681  0.7510 -0.2433 -0.5926
 4398TIP3   OH234684   5.107   3.739  12.519 -0.5224  0.0132  0.4315
 4398TIP3    H134685   5.027   3.748  12.571 -0.7478 -1.2827  0.3409
 4398TIP3    H234686   5.177   3.769  12.577 -0.9554  0.1801  0.8739
 4399TIP3   OH234687   3.437   5.692  12.674 -0.1872 -0.7209 -0.4371
 4399TIP3    H134688   3.446   5.688  12.770  0.7400 -1.0252 -0.5256
 4399TIP3    H234689   3.403   5.606  12.650  0.7584 -1.0961 -0.4834
 4400TIP3   OH234690   0.873   5.055  15.112 -0.2041 -0.3714  0.2148
 4400TIP3    H134691   0.820   5.067  15.191 -1.1494  0.4402 -0.5040
 4400TIP3    H234692   0.957   5.022  15.143 -0.7169 -0.5097  1.5081
 4401TIP3   OH234693   3.247   5.486   1.721 -0.6447  0.9302 -0.5551
 4401TIP3    H134694   3.266   5.420   1.654 -0.3016  0.6151 -0.1571
 4401TIP3    H234695   3.185   5.443   1.780  0.0576  0.7319  0.0525
 4402TIP3   OH234696   4.097   6.099  11.856 -0.2799  0.3626  0.0672
 4402TIP3    H134697   4.165   6.139  11.802 -0.9316  0.6804 -0.5322
 4402TIP3    H234698   4.039   6.172  11.879 -0.0170  0.2388  1.2165
 4403TIP3   OH234699   0.179   4.370  11.530 -0.2287  0.1875 -0.1619
 4403TIP3    H134700   0.247   4.438  11.527  0.8907 -0.8590  0.3656
 4403TIP3    H234701   0.220   4.293  11.491 -0.4878 -0.9606  1.6631
 4404TIP3   OH234702   3.433   5.810   5.719 -0.7592 -0.1259  0.0093
 4404TIP3    H134703   3.504   5.822   5.783  0.3377  1.0596 -1.3378
 4404TIP3    H234704   3.353   5.831   5.768 -0.1644 -1.0214  1.4428
 4405TIP3   OH234705   2.936   2.695  14.292 -0.4872  0.5660 -0.1888
 4405TIP3    H134706   2.978   2.610  14.284 -0.5586  0.3840  1.1286
 4405TIP3    H234707   2.922   2.724  14.202 -1.2646 -1.2051 -0.6793
 4406TIP3   OH234708   4.926   4.510   0.640  0.2526 -0.0359 -0.1244
 4406TIP3    H134709   4.857   4.487   0.703  0.8726 -1.0851  0.2033
 4406TIP3    H234710   4.936   4.605   0.649 -0.1400 -0.0732  0.8723
 4407TIP3   OH234711   4.235   0.074   6.326  0.2853 -0.6401  0.6176
 4407TIP3    H134712   4.230   0.163   6.360 -0.3419 -0.0691 -0.8716
 4407TIP3    H234713   4.147   0.039   6.335  0.0153 -0.3459 -0.7035
 4408TIP3   OH234714   0.371   5.864   4.223 -0.0130  0.1578 -0.6865
 4408TIP3    H134715   0.294   5.839   4.274  0.8249 -0.1979  0.4241
 4408TIP3    H234716   0.361   5.815   4.141 -0.0303 -1.3762  0.1883
 4409TIP3   OH234717   5.429   3.983  16.527 -0.8427 -0.2490  0.7180
 4409TIP3    H134718   5.500   3.921  16.541  0.1609  0.1103 -2.1777
 4409TIP3    H234719   5.357   3.931  16.493 -0.1495  0.0292 -1.2890
 4410TIP3   OH234720   6.793   1.038   5.606  0.3641 -0.2665 -0.1559
 4410TIP3    H134721   6.786   1.104   5.674 -0.4733 -0.4397 -0.0693
 4410TIP3    H234722   6.834   0.963   5.649 -1.4827 -0.9158  0.5829
 4411TIP3   OH234723   2.171   3.842   5.480  0.5045  0.6592 -0.3532
 4411TIP3    H134724   2.142   3.769   5.426  1.1589 -0.0433  0.2323
 4411TIP3    H234725   2.225   3.895   5.422  1.7710 -0.4532 -0.2305
 4412TIP3   OH234726   3.170   3.895   1.818  0.1456  0.1423  0.4796
 4412TIP3    H134727   3.169   3.962   1.750  0.5439  1.0648  1.3492
 4412TIP3    H234728   3.252   3.848   1.803 -0.2575 -0.3453 -0.2914
 4413TIP3   OH234729   4.872   0.753  14.487 -0.2512  0.1050  0.8104
 4413TIP3    H134730   4.955   0.776  14.446 -0.6744  1.1535  0.4995
 4413TIP3    H234731   4.844   0.673  14.442  0.3921 -0.0376  0.6496
 4414TIP3   OH234732   2.576   4.272  16.105  0.0369  0.6790 -0.0645
 4414TIP3    H134733   2.651   4.277  16.164 -0.6252  0.7636  0.8053
 4414TIP3    H234734   2.565   4.362  16.072  0.8619  0.4775 -0.9230
 4415TIP3   OH234735   0.560   1.945   4.414  0.3117  0.0651  0.2829
 4415TIP3    H134736   0.525   1.856   4.425 -1.2880  0.4415 -1.2629
 4415TIP3    H234737   0.522   1.995   4.487  1.2549 -0.4909  1.1858
 4416TIP3   OH234738   2.124   2.127   0.702 -0.6093  0.5086 -0.1183
 4416TIP3    H134739   2.216   2.133   0.729 -0.9110 -1.1441  1.4261
 4416TIP3    H234740   2.128   2.119   0.607  0.8454  0.6601 -0.0930
 4417TIP3   OH234741   4.061   0.569   0.451 -0.4457 -0.4591 -0.2930
 4417TIP3    H134742   4.078   0.617   0.532  1.7326 -0.2367 -0.8072
 4417TIP3    H234743   3.966   0.564   0.445 -0.7789  2.8320  0.3514
 4418TIP3   OH234744   1.315   4.190   3.285 -0.0920 -0.2551  0.4382
 4418TIP3    H134745   1.387   4.133   3.313  0.5548 -0.4834 -1.5815
 4418TIP3    H234746   1.236   4.135   3.293  0.0963 -0.4115  1.4222
 4419TIP3   OH234747   0.170   0.705   0.559  0.3136  0.2724 -0.7001
 4419TIP3    H134748   0.115   0.627   0.563 -1.3725  1.4211  0.9198
 4419TIP3    H234749   0.219   0.704   0.642 -0.4303  1.3493 -0.2153
 4420TIP3   OH234750   6.433   5.966  13.891 -0.2861  0.1994 -0.1832
 4420TIP3    H134751   6.524   5.988  13.912  0.4849  0.3069 -3.2020
 4420TIP3    H234752   6.381   6.028  13.942  1.4502  1.9047 -0.3788
 4421TIP3   OH234753   1.007   5.836  11.336 -0.4358  0.7356 -0.2338
 4421TIP3    H134754   1.010   5.915  11.390 -0.0726  0.6107 -0.0681
 4421TIP3    H234755   0.951   5.859  11.262  0.3522  1.4304 -0.6258
 4422TIP3   OH234756   0.712   5.998  11.317  0.2305  0.0383  0.0247
 4422TIP3    H134757   0.670   6.036  11.394  1.7753  2.5601 -0.2459
 4422TIP3    H234758   0.641   5.986  11.254 -0.4758  1.8834  0.4197
 4423TIP3   OH234759   0.569   1.668   1.202 -0.2820  0.0833 -0.0310
 4423TIP3    H134760   0.500   1.667   1.269 -2.6367  0.6905 -2.2867
 4423TIP3    H234761   0.571   1.759   1.172 -1.1436 -0.6403 -2.5015
 4424TIP3   OH234762   2.111   2.996   6.076  0.0986 -0.3327  0.0673
 4424TIP3    H134763   2.085   3.087   6.089  2.7019  0.6935 -1.2948
 4424TIP3    H234764   2.043   2.945   6.121 -2.7105  2.1362 -1.0534
 4425TIP3   OH234765   0.990   0.227  14.001 -0.1958 -0.0930  0.6260
 4425TIP3    H134766   1.074   0.219  13.957  0.0605 -0.9571  1.2436
 4425TIP3    H234767   0.982   0.320  14.021  0.2245  0.1238 -0.1772
 4426TIP3   OH234768   6.354   1.122   5.478  0.3269  0.4270 -0.1033
 4426TIP3    H134769   6.434   1.088   5.519  0.9976  0.3323 -1.4401
 4426TIP3    H234770   6.361   1.217   5.488 -0.3258  0.3406  1.4223
 4427TIP3   OH234771   6.156   5.720   4.188 -0.1131  0.4775  1.0241
 4427TIP3    H134772   6.238   5.708   4.235 -0.8419 -1.3893  1.9457
 4427TIP3    H234773   6.092   5.742   4.256 -0.2177  3.2723  0.1791
 4428TIP3   OH234774   1.534   4.542   3.146 -0.6339  0.2875 -0.0492
 4428TIP3    H134775   1.510   4.611   3.085 -0.1493 -0.4436 -1.1061
 4428TIP3    H234776   1.455   4.525   3.197 -1.2542  0.4546 -0.9412
 4429TIP3   OH234777   1.897   6.140   0.313  0.3130 -0.5573  0.2579
 4429TIP3    H134778   1.833   6.069   0.304 -0.0719 -0.3891  1.5318
 4429TIP3    H234779   1.845   6.218   0.329  0.8103 -0.6165  2.5603
 4430TIP3   OH234780   6.297   6.611  12.594 -0.0177 -0.3409 -0.5762
 4430TIP3    H134781   6.302   6.549  12.667  0.6896 -1.2719 -1.3869
 4430TIP3    H234782   6.269   6.693  12.634 -0.2188 -0.9812  0.6479
 4431TIP3   OH234783   5.463   1.160   3.496 -0.1498  0.5542 -0.4563
 4431TIP3    H134784   5.475   1.157   3.590  1.3285  0.8077 -0.6137
 4431TIP3    H234785   5.378   1.202   3.483 -0.7985 -0.3367  0.7637
 4432TIP3   OH234786   3.480   2.680  10.517 -0.0840  0.0788 -0.5714
 4432TIP3    H134787   3.535   2.743  10.471  1.1864  0.0748  0.8586
 4432TIP3    H234788   3.407   2.663  10.457 -0.4000  2.7682 -1.0666
 4433TIP3   OH234789   4.314   0.354  15.340 -0.2053 -0.1736  0.3581
 4433TIP3    H134790   4.237   0.412  15.339  0.1266  0.2675 -0.6135
 4433TIP3    H234791   4.281   0.271  15.306 -0.9024 -0.8996  2.6048
 4434TIP3   OH234792   2.076   5.865  15.772 -0.3811  0.4774 -0.2041
 4434TIP3    H134793   2.050   5.956  15.780 -0.8216  0.3589 -0.2531
 4434TIP3    H234794   2.115   5.843  15.856  2.3657  1.5177 -1.1151
 4435TIP3   OH234795   5.625   5.272  13.028 -0.1554 -0.0953 -0.3213
 4435TIP3    H134796   5.667   5.354  13.003  1.5031 -1.0582 -0.8445
 4435TIP3    H234797   5.625   5.272  13.123 -0.5626  0.6864 -0.3114
 4436TIP3   OH234798   5.588   1.145   3.264 -0.6758 -0.2924 -0.5915
 4436TIP3    H134799   5.620   1.055   3.256  0.2657 -0.2413  1.8981
 4436TIP3    H234800   5.541   1.147   3.347  1.6923  2.1127  0.8452
 4437TIP3   OH234801   3.215   2.535  13.884 -0.1350  0.2602 -0.3275
 4437TIP3    H134802   3.290   2.510  13.830 -1.0418 -0.3595 -1.3265
 4437TIP3    H234803   3.141   2.488  13.846 -1.0545  0.9314  0.5874
 4438TIP3   OH234804   3.621   0.725  12.878  0.5827 -0.0623  0.4484
 4438TIP3    H134805   3.694   0.766  12.925  1.8201 -3.7840  2.1155
 4438TIP3    H234806   3.555   0.710  12.946 -0.4628  0.4569 -0.4303
 4439TIP3   OH234807   0.546   5.834  12.276 -0.0064  0.0900  0.4310
 4439TIP3    H134808   0.605   5.894  12.321 -1.0305  1.2546  0.2640
 4439TIP3    H234809   0.482   5.890  12.232 -0.3035 -1.0808 -0.7208
 4440TIP3   OH234810   3.948   2.945   1.965 -0.0496 -0.0354 -0.3910
 4440TIP3    H134811   3.983   2.866   1.924 -0.0085  0.0120 -0.4480
 4440TIP3    H234812   3.914   2.997   1.892 -0.3785 -0.1503 -0.3176
 4441TIP3   OH234813   3.886   3.331  11.291  0.3291 -0.5119 -0.1578
 4441TIP3    H134814   3.945   3.323  11.216  0.4906  0.0870 -0.1013
 4441TIP3    H234815   3.814   3.385  11.260 -0.5281 -1.7561 -0.4151
 4442TIP3   OH234816   0.242   0.206  13.894 -0.2808 -0.5432 -0.2005
 4442TIP3    H134817   0.213   0.120  13.864 -1.2578 -0.9373  1.7287
 4442TIP3    H234818   0.302   0.236  13.826  0.1245 -2.7595 -0.8980
 4443TIP3   OH234819   3.394   3.343   3.559  0.4341  0.6393  0.4740
 4443TIP3    H134820   3.345   3.265   3.535  0.6058  0.4378  0.7732
 4443TIP3    H234821   3.377   3.405   3.488 -1.2754  1.0454  1.1753
 4444TIP3   OH234822   2.365   1.711  14.598  0.0053  0.1057 -0.2701
 4444TIP3    H134823   2.420   1.704  14.676 -0.6591  0.8056  0.2770
 4444TIP3    H234824   2.400   1.786  14.551  1.0942 -0.9603 -1.2312
 4445TIP3   OH234825   0.806   4.178  11.970  0.3567  0.4934  0.3911
 4445TIP3    H134826   0.802   4.103  11.910  1.1109  1.1673 -0.5310
 4445TIP3    H234827   0.825   4.139  12.055  0.6771 -0.3699 -0.0620
 4446TIP3   OH234828   0.579   4.683   1.548 -0.3698 -0.7550 -0.1352
 4446TIP3    H134829   0.569   4.687   1.453 -0.7376  0.6084 -0.0555
 4446TIP3    H234830   0.606   4.593   1.565  2.3659 -0.3471 -1.7763
 4447TIP3   OH234831   4.688   6.750  11.430  0.4462  0.5049  0.1792
 4447TIP3    H134832   4.615   6.812  11.430  0.5417  0.6414 -1.1243
 4447TIP3    H234833   4.760   6.797  11.472 -0.0750  0.5244  1.0708
 4448TIP3   OH234834   6.309   0.795   2.605 -0.4671 -0.7881 -0.0636
 4448TIP3    H134835   6.348   0.723   2.655  2.7954 -0.5630 -2.0279
 4448TIP3    H234836   6.246   0.752   2.547  0.6489 -1.9846 -0.4476
 4449TIP3   OH234837   5.733   3.971  15.164 -0.0436  0.1244  0.7296
 4449TIP3    H134838   5.824   3.996  15.181  0.5860 -1.1568 -0.5220
 4449TIP3    H234839   5.734   3.938  15.074 -1.2625 -2.1084  1.4753
 4450TIP3   OH234840   4.186   5.182  12.481 -0.1675 -0.2036  0.0677
 4450TIP3    H134841   4.176   5.111  12.418 -1.7936 -0.2087  0.2891
 4450TIP3    H234842   4.167   5.261  12.431  2.1396  0.1972 -0.3084
 4451TIP3   OH234843   6.806   2.162   4.956  0.4677  0.2632  0.1709
 4451TIP3    H134844   6.788   2.128   5.043 -1.5510 -0.9771 -0.6503
 4451TIP3    H234845   6.720   2.168   4.914  1.1969  2.4373 -1.1862
 4452TIP3   OH234846   6.743   1.580  12.765 -0.2654 -0.2281  0.0945
 4452TIP3    H134847   6.722   1.488  12.781 -0.8779  0.0465  0.9661
 4452TIP3    H234848   6.809   1.578  12.696 -0.3966 -1.3113 -0.0190
 4453TIP3   OH234849   6.106   2.211  12.838  0.2485 -0.4059  0.2270
 4453TIP3    H134850   6.050   2.286  12.819  0.4028 -0.5759 -1.0001
 4453TIP3    H234851   6.048   2.148  12.881 -0.2089 -0.1153  0.0363
 4454TIP3   OH234852   4.915   2.674   1.827  0.0020 -0.2816 -0.0323
 4454TIP3    H134853   4.868   2.722   1.895 -1.1090  0.1415 -1.0731
 4454TIP3    H234854   4.924   2.585   1.863 -0.3258  0.0067  0.7788
 4455TIP3   OH234855   0.606   6.751   3.338 -0.3332  0.8357 -0.0110
 4455TIP3    H134856   0.579   6.731   3.248 -0.9384  1.1032  0.1046
 4455TIP3    H234857   0.597   6.846   3.345 -2.3812  0.6170  0.9715
 4456TIP3   OH234858   6.538   0.757  12.117  0.0931 -0.3820  0.5961
 4456TIP3    H134859   6.630   0.738  12.098  0.0538  0.3631 -0.4481
 4456TIP3    H234860   6.535   0.774  12.211  0.5528 -2.9957  1.1658
 4457TIP3   OH234861   2.510   3.254   2.026 -0.0415  0.2911 -0.1770
 4457TIP3    H134862   2.598   3.218   2.017  0.0461  0.1603  1.0013
 4457TIP3    H234863   2.498   3.308   1.948  0.1520 -1.5835 -1.5577
 4458TIP3   OH234864   3.785   0.710  13.174  0.4822  0.2451  0.2053
 4458TIP3    H134865   3.699   0.738  13.203  0.1244  0.9406 -1.3893
 4458TIP3    H234866   3.811   0.775  13.108  0.2938 -2.2307 -2.5415
 4459TIP3   OH234867   0.128   1.973  12.633  0.0527  0.6165  0.1757
 4459TIP3    H134868   0.117   1.918  12.710 -1.5519  0.1657 -0.3392
 4459TIP3    H234869   0.061   1.943  12.572  1.6653  0.5539 -1.6648
 4460TIP3   OH234870   4.054   3.887  15.607 -0.6670 -0.5469 -0.3832
 4460TIP3    H134871   4.017   3.807  15.569 -0.9618 -1.3598  1.4912
 4460TIP3    H234872   4.132   3.904  15.554 -0.1270 -2.5740 -0.3484
 4461TIP3   OH234873   1.975   2.739   0.366 -0.3095  0.0882 -0.4462
 4461TIP3    H134874   1.965   2.830   0.336 -1.2638 -0.1676 -0.9507
 4461TIP3    H234875   1.918   2.733   0.442 -0.0198 -0.0136 -0.2369
 4462TIP3   OH234876   3.809   0.876  12.453  0.4323  0.3823 -0.0690
 4462TIP3    H134877   3.879   0.933  12.484 -0.1159  0.8752  0.2787
 4462TIP3    H234878   3.747   0.935  12.410  0.0459  0.0013 -0.0424
 4463TIP3   OH234879   6.609   1.238  16.163 -0.1915  0.0574  0.3221
 4463TIP3    H134880   6.606   1.250  16.258  0.9711  0.6347  0.3064
 4463TIP3    H234881   6.696   1.201  16.146 -0.3933 -0.0559 -0.5172
 4464TIP3   OH234882   3.300   1.846  12.748  0.6457 -0.1658 -0.0167
 4464TIP3    H134883   3.281   1.755  12.723 -0.6145 -0.1565  0.8094
 4464TIP3    H234884   3.292   1.895  12.666 -2.1307 -0.3250  0.0442
 4465TIP3   OH234885   5.071   6.551  12.584  0.4561  0.0749  0.8043
 4465TIP3    H134886   5.127   6.603  12.642  0.9322 -0.3860  0.7669
 4465TIP3    H234887   5.031   6.616  12.526  0.3082  0.4970  1.3646
 4466TIP3   OH234888   0.101   0.796   0.864 -0.5059 -0.5270  0.1659
 4466TIP3    H134889   0.020   0.758   0.829 -0.1192 -1.3034  0.0950
 4466TIP3    H234890   0.137   0.728   0.921 -0.7311  0.4172  1.5115
 4467TIP3   OH234891   0.498   2.128   5.281  0.4424  0.1601  0.2209
 4467TIP3    H134892   0.510   2.214   5.323  1.2133  0.2564 -0.1688
 4467TIP3    H234893   0.580   2.081   5.299  0.3186 -0.2203 -0.1928
 4468TIP3   OH234894   3.663   5.842   0.447  0.2427  0.1088  0.0870
 4468TIP3    H134895   3.722   5.795   0.505  0.5100  0.4932  0.1280
 4468TIP3    H234896   3.720   5.900   0.396 -0.0571  0.2186 -0.1284
 4469TIP3   OH234897   1.295   0.222   4.384 -0.0986 -0.5121 -0.0907
 4469TIP3    H134898   1.379   0.205   4.342 -0.3606  0.4385 -1.0584
 4469TIP3    H234899   1.234   0.161   4.344 -0.2216 -0.0128 -0.6821
 4470TIP3   OH234900   4.028   2.123   5.593 -0.3645  0.0776 -0.1024
 4470TIP3    H134901   3.989   2.094   5.511  1.5520  1.4827 -1.5863
 4470TIP3    H234902   3.988   2.208   5.610 -1.3309 -0.5442  0.8954
 4471TIP3   OH234903   4.444   4.828   0.730  0.6067 -0.9809 -0.3375
 4471TIP3    H134904   4.422   4.847   0.639 -0.5324 -0.4910  0.0313
 4471TIP3    H234905   4.474   4.737   0.728  0.2598 -1.0876 -1.1451
 4472TIP3   OH234906   6.347   4.444   5.718  0.1655  0.6359 -0.2919
 4472TIP3    H134907   6.371   4.385   5.646 -1.0999 -0.2937  0.0124
 4472TIP3    H234908   6.322   4.526   5.674 -0.7529  0.0275 -0.9525
 4473TIP3   OH234909   6.709   4.974   4.228  0.1548  0.3019 -0.4419
 4473TIP3    H134910   6.657   4.898   4.205 -0.8763  1.3288 -1.6315
 4473TIP3    H234911   6.747   5.004   4.146  1.1556  0.6497  0.1246
 4474TIP3   OH234912   4.696   0.195   2.058  0.0257 -0.1075  0.4383
 4474TIP3    H134913   4.654   0.110   2.069 -0.7277  0.2656  0.5175
 4474TIP3    H234914   4.713   0.225   2.148 -1.2446  0.5572  0.4852
 4475TIP3   OH234915   0.196   5.233  17.117 -0.5066 -0.1239 -0.4341
 4475TIP3    H134916   0.216   5.325  17.099  0.5225 -0.6687 -2.3448
 4475TIP3    H234917   0.147   5.203  17.040 -0.5190 -1.2689 -0.0071
 4476TIP3   OH234918   6.751   2.484   3.524  0.1173  0.4670 -0.5036
 4476TIP3    H134919   6.683   2.421   3.550  2.0325 -1.4014  0.3388
 4476TIP3    H234920   6.786   2.448   3.442  0.3955  1.1610 -0.6925
 4477TIP3   OH234921   4.689   5.088  17.055 -0.2042  0.1811 -0.1635
 4477TIP3    H134922   4.673   5.011  17.001 -0.5127  0.2741 -0.2074
 4477TIP3    H234923   4.645   5.159  17.010 -1.3394  0.0734  0.7146
 4478TIP3   OH234924   4.545   2.535   5.308 -0.4458 -0.6372 -0.5280
 4478TIP3    H134925   4.501   2.618   5.323  1.6730  0.4511  0.0699
 4478TIP3    H234926   4.566   2.535   5.214 -2.5394 -1.6548 -1.0572
 4479TIP3   OH234927   3.452   6.793   4.363 -0.1428  0.0519 -0.2387
 4479TIP3    H134928   3.426   6.866   4.308 -0.7323  1.2705  1.5813
 4479TIP3    H234929   3.384   6.727   4.348  0.2188 -0.0425 -1.6492
 4480TIP3   OH234930   6.246   6.331  16.088 -0.1970 -0.2088 -0.3979
 4480TIP3    H134931   6.323   6.342  16.033 -0.8841  1.5139 -1.1055
 4480TIP3    H234932   6.261   6.389  16.162 -0.9436  0.3909 -0.7071
 4481TIP3   OH234933   1.977   0.768   3.621 -0.1123 -0.5539 -0.3776
 4481TIP3    H134934   1.896   0.759   3.670 -0.1475  0.9546 -0.1193
 4481TIP3    H234935   2.042   0.721   3.673 -0.5184 -0.5136  0.1751
 4482TIP3   OH234936   2.489   1.880  16.905  0.1259 -0.5129  0.2764
 4482TIP3    H134937   2.546   1.825  16.851  0.7540 -0.8665  1.2780
 4482TIP3    H234938   2.401   1.862  16.871  0.6641  1.1866 -2.3046
 4483TIP3   OH234939   4.980   4.419  16.852 -0.1392 -0.4032  0.2868
 4483TIP3    H134940   5.027   4.437  16.771 -0.7329  1.0580  0.2490
 4483TIP3    H234941   4.981   4.323  16.859 -0.1602 -0.5599 -1.4817
 4484TIP3   OH234942   1.175   4.347  11.853  0.0837 -0.8692 -0.3062
 4484TIP3    H134943   1.219   4.339  11.768 -0.6824 -0.6277 -0.7363
 4484TIP3    H234944   1.085   4.370  11.831  0.3956  1.4850  0.6229
 4485TIP3   OH234945   1.625   2.251   0.018 -0.1148 -0.1144 -0.8462
 4485TIP3    H134946   1.652   2.252  -0.074  1.9972 -4.1156 -0.4932
 4485TIP3    H234947   1.565   2.177   0.024 -2.1177  1.5173  0.6850
 4486TIP3   OH234948   5.384   5.766  11.183 -0.3133 -0.0162 -0.0498
 4486TIP3    H134949   5.377   5.718  11.266 -0.7337 -1.0933 -0.6960
 4486TIP3    H234950   5.294   5.769  11.150 -0.3884  1.7109  0.2358
 4487TIP3   OH234951   0.946   2.847  16.387  0.4761  0.0045  0.6286
 4487TIP3    H134952   0.859   2.886  16.398 -0.2462 -0.8186 -1.6384
 4487TIP3    H234953   0.958   2.792  16.465  0.6207  2.9354  2.8156
 4488TIP3   OH234954   4.918   0.095   0.673  0.0033 -0.2684  0.3307
 4488TIP3    H134955   4.958   0.174   0.637 -0.1013 -0.8802 -1.2078
 4488TIP3    H234956   4.863   0.127   0.745 -1.2645  1.2857 -1.2212
 4489TIP3   OH234957   4.120   3.283  12.263  0.4069  0.5449  0.0529
 4489TIP3    H134958   4.073   3.216  12.213  0.8050 -1.1795  1.8884
 4489TIP3    H234959   4.051   3.329  12.312  0.4344 -1.4735  2.1452
 4490TIP3   OH234960   5.129   2.638   2.068  0.2620  0.1282 -0.3104
 4490TIP3    H134961   5.151   2.702   2.000 -0.0348  0.4713 -0.0871
 4490TIP3    H234962   5.081   2.569   2.021  0.2124  0.2756 -0.4795
 4491TIP3   OH234963   5.897   6.598  13.018  0.0301  0.1674 -0.0952
 4491TIP3    H134964   5.830   6.666  13.004  0.7494  0.7892 -0.5831
 4491TIP3    H234965   5.879   6.564  13.106  0.4507  1.8984  0.7034
 4492TIP3   OH234966   5.627   5.609  14.026  0.7631  0.4783 -0.0350
 4492TIP3    H134967   5.592   5.606  13.936  0.9146  0.1898 -0.0847
 4492TIP3    H234968   5.573   5.675  14.070 -0.5401 -0.6809  0.1680
 4493TIP3   OH234969   0.469   5.154   4.959 -0.2562  0.1378  0.3792
 4493TIP3    H134970   0.494   5.068   4.922 -0.5094  0.4804 -0.6195
 4493TIP3    H234971   0.495   5.217   4.892  0.3608  0.9011  1.3059
 4494TIP3   OH234972   2.453   4.069   1.459  0.3142  0.0464  0.4605
 4494TIP3    H134973   2.505   4.114   1.393 -0.9106  1.8256  0.6451
 4494TIP3    H234974   2.387   4.022   1.409  1.9072 -2.1172  0.2333
 4495TIP3   OH234975   6.013   6.668   0.101 -0.0390  0.4090 -0.2856
 4495TIP3    H134976   6.106   6.645   0.109 -0.2106  0.0783  1.0223
 4495TIP3    H234977   6.013   6.760   0.074  0.6548  0.1472 -1.2302
 4496TIP3   OH234978   3.437   6.707  15.976  0.0574  0.5887 -0.5625
 4496TIP3    H134979   3.512   6.762  15.997  0.1993 -0.4525  1.9281
 4496TIP3    H234980   3.476   6.623  15.951 -0.2441  0.6091 -1.1129
 4497TIP3   OH234981   5.313   4.154  14.809  0.1582  0.2429 -0.2747
 4497TIP3    H134982   5.299   4.065  14.777  0.9607  0.1633 -0.4300
 4497TIP3    H234983   5.228   4.180  14.844  0.0645 -0.8114  0.3379
 4498TIP3   OH234984   0.923   3.627  14.527  0.5703  0.1193  0.5147
 4498TIP3    H134985   0.977   3.678  14.466  2.6501 -2.5549 -0.0638
 4498TIP3    H234986   0.841   3.611  14.480  0.3032  1.9267  0.3048
 4499TIP3   OH234987   0.999   1.311  11.588  0.5918 -0.0821 -0.1363
 4499TIP3    H134988   1.037   1.353  11.665  0.6104 -0.3593  0.0065
 4499TIP3    H234989   1.062   1.327  11.518  1.3889 -1.2428  0.2872
 4500TIP3   OH234990   2.104   4.764   0.656 -0.0568  0.2405  0.0209
 4500TIP3    H134991   2.112   4.713   0.575  1.8298  0.7276 -0.1339
 4500TIP3    H234992   2.101   4.698   0.725 -0.0724 -0.1342 -0.3308
 4501TIP3   OH234993   1.567   6.168   1.312 -0.1845 -0.1309  0.2051
 4501TIP3    H134994   1.509   6.100   1.277  0.9608 -2.1410  2.0179
 4501TIP3    H234995   1.516   6.209   1.382 -0.4112  0.0076 -0.0390
 4502TIP3   OH234996   2.130   6.671  11.960  0.5362 -0.0837  0.5515
 4502TIP3    H134997   2.088   6.586  11.975  0.8459 -0.5110 -0.9163
 4502TIP3    H234998   2.170   6.664  11.874  2.0554  0.9659  1.1228
 4503TIP3   OH234999   3.203   6.273   4.569 -0.5046 -0.0046 -0.4235
 4503TIP3    H135000   3.142   6.253   4.498  1.0745  0.6582 -2.0694
 4503TIP3    H235001   3.252   6.349   4.537  1.2927 -0.6204  0.7251
 4504TIP3   OH235002   3.252   5.892   3.301 -0.2218  0.0950 -0.4061
 4504TIP3    H135003   3.248   5.833   3.226  0.3588  0.8658 -1.0559
 4504TIP3    H235004   3.228   5.977   3.266 -1.7744  0.1451  0.6706
 4505TIP3   OH235005   2.893   2.053   4.102 -0.5883  0.4157 -0.3153
 4505TIP3    H135006   2.847   1.975   4.134  2.0329 -0.4647  1.6708
 4505TIP3    H235007   2.983   2.023   4.087  1.0192  3.3166  2.2255
 4506TIP3   OH235008   4.886   3.426   3.364 -0.0950 -0.0812  0.5482
 4506TIP3    H135009   4.867   3.335   3.383  1.0140 -0.1815  1.2387
 4506TIP3    H235010   4.820   3.451   3.299  1.3058 -2.1783 -1.8617
 4507TIP3   OH235011   4.094   1.359  12.365 -0.2733 -0.6465 -0.1444
 4507TIP3    H135012   4.024   1.425  12.362 -1.4047 -1.6854  1.8140
 4507TIP3    H235013   4.049   1.277  12.384  1.4408 -1.3722  1.0248
 4508TIP3   OH235014   3.425   6.434   1.495  0.1012 -0.0334  0.6670
 4508TIP3    H135015   3.520   6.443   1.505 -0.1566  0.3543  3.8152
 4508TIP3    H235016   3.401   6.364   1.556 -1.8350  1.0236  1.1919
 4509TIP3   OH235017   2.109   1.051   5.305 -0.0730  0.0057 -0.3063
 4509TIP3    H135018   2.144   1.069   5.392 -0.5580  0.6642 -0.2382
 4509TIP3    H235019   2.153   0.971   5.277  0.0671 -0.2184  0.5501
 4510TIP3   OH235020   0.612   1.465  12.180  0.3410 -0.7816 -0.3262
 4510TIP3    H135021   0.639   1.444  12.090  1.2047 -1.4284  0.0723
 4510TIP3    H235022   0.517   1.477  12.174  0.6324  1.4056 -1.7377
 4511TIP3   OH235023   3.081   0.064   0.537 -0.0523  0.2224 -0.3411
 4511TIP3    H135024   2.996   0.109   0.542 -1.3597 -1.7446 -2.5010
 4511TIP3    H235025   3.140   0.128   0.499 -1.2348  0.9230 -1.0770
 4512TIP3   OH235026   5.801   3.706   5.573 -0.6396 -0.2872 -0.0510
 4512TIP3    H135027   5.843   3.780   5.617 -0.6854  0.7512 -1.6691
 4512TIP3    H235028   5.712   3.704   5.609  0.1214 -1.2774  1.9600
 4513TIP3   OH235029   6.684   1.308  11.707 -0.5680 -0.2833  0.7564
 4513TIP3    H135030   6.776   1.283  11.696  0.2690  2.8465 -0.5078
 4513TIP3    H235031   6.669   1.302  11.802  1.0462 -0.5618  1.0305
 4514TIP3   OH235032   6.449   6.607   3.056  0.8709  0.2443 -0.3820
 4514TIP3    H135033   6.463   6.676   2.991  0.0726 -0.4611 -1.3293
 4514TIP3    H235034   6.517   6.622   3.122 -0.1052  2.7638  0.1801
 4515TIP3   OH235035   1.722   1.327  15.492 -0.2237  0.2443 -0.1707
 4515TIP3    H135036   1.689   1.244  15.456 -2.5856  0.4701  1.2711
 4515TIP3    H235037   1.688   1.394  15.432 -0.1241  0.3133 -0.1491
 4516TIP3   OH235038   6.751   6.736   5.665 -0.5975  0.4400 -0.5355
 4516TIP3    H135039   6.796   6.661   5.627  0.4917  0.7571  0.0770
 4516TIP3    H235040   6.688   6.762   5.599 -0.2657 -0.3776 -1.1881
 4517TIP3   OH235041   2.492   1.883   4.638  0.0930  0.0532  0.0447
 4517TIP3    H135042   2.483   1.973   4.668  1.1957  0.2792 -0.2351
 4517TIP3    H235043   2.485   1.889   4.543 -1.6647 -0.4246  0.1126
 4518TIP3   OH235044   2.003   1.535  13.929  0.4163  0.0625  0.0505
 4518TIP3    H135045   2.028   1.488  14.009  0.0149  0.9888  0.7516
 4518TIP3    H235046   1.929   1.486  13.895  0.2127 -0.0171  0.5910
 4519TIP3   OH235047   0.753   5.971   5.448 -0.0645  0.8775 -0.0589
 4519TIP3    H135048   0.727   6.040   5.508 -2.6938  0.2320 -0.3459
 4519TIP3    H235049   0.695   5.982   5.372 -1.4347 -2.2664  0.3679
 4520TIP3   OH235050   4.211   3.992   2.828 -0.8913 -0.0872 -0.0576
 4520TIP3    H135051   4.292   4.023   2.788 -1.0240  0.8622  0.3656
 4520TIP3    H235052   4.225   3.899   2.843  0.5564  0.2593  1.0067
 4521TIP3   OH235053   0.089   2.177  16.350 -0.1857 -0.1537 -0.1128
 4521TIP3    H135054   0.168   2.157  16.399 -0.8925 -1.0562  0.6941
 4521TIP3    H235055   0.111   2.158  16.259  0.6960  0.1870  0.0225
 4522TIP3   OH235056   3.665   1.895   0.977  0.3601 -0.4495  0.8498
 4522TIP3    H135057   3.664   1.973   0.921 -0.7315 -0.8491  0.2839
 4522TIP3    H235058   3.732   1.839   0.939  0.1932 -0.3677  0.4334
 4523TIP3   OH235059   5.904   3.278   0.378  0.2634  0.5061  0.0798
 4523TIP3    H135060   5.917   3.373   0.374 -1.4007  0.7907  0.6702
 4523TIP3    H235061   5.872   3.254   0.291  1.3891  0.3482 -0.3040
 4524TIP3   OH235062   5.892   1.941  14.980  0.1509 -0.2700 -0.7075
 4524TIP3    H135063   5.847   2.024  14.997 -0.4020 -0.9395  1.4034
 4524TIP3    H235064   5.825   1.886  14.938  0.1735 -0.0016 -1.0924
 4525TIP3   OH235065   4.083   1.211   0.931  0.0164  0.1292 -0.0398
 4525TIP3    H135066   4.137   1.189   0.856  1.1216  2.3304  0.0246
 4525TIP3    H235067   4.004   1.158   0.921  0.1095  0.3810 -2.7641
 4526TIP3   OH235068   3.291   6.537  11.415 -0.4041  0.3210  0.2892
 4526TIP3    H135069   3.384   6.522  11.433 -0.0361  0.3081 -1.5009
 4526TIP3    H235070   3.288   6.624  11.375 -0.7315 -0.8419 -2.4225
 4527TIP3   OH235071   2.668   6.436  15.130 -0.2883  0.4173 -0.1691
 4527TIP3    H135072   2.650   6.414  15.222 -0.5916 -2.4924 -0.8312
 4527TIP3    H235073   2.597   6.394  15.081  0.0607  1.6168 -1.7948
 4528TIP3   OH235074   6.734   3.334  13.012 -0.1027 -0.2006 -0.0356
 4528TIP3    H135075   6.684   3.336  13.093  0.5627  1.7487  0.3736
 4528TIP3    H235076   6.674   3.298  12.947 -0.9122 -1.0179  1.1283
 4529TIP3   OH235077   3.348   5.860   1.257  0.0815 -0.2762 -0.1545
 4529TIP3    H135078   3.279   5.894   1.200 -0.6833 -1.6237 -0.0678
 4529TIP3    H235079   3.429   5.885   1.213 -0.4443  1.0882 -0.3975
 4530TIP3   OH235080   4.594   5.918   4.144 -0.8256 -0.2217  0.6293
 4530TIP3    H135081   4.628   5.893   4.058  0.5474  0.1618  1.0432
 4530TIP3    H235082   4.581   6.012   4.138 -1.7490 -0.3453  0.5150
 4531TIP3   OH235083   1.014   5.421  16.280 -0.4263  0.2256 -0.0369
 4531TIP3    H135084   0.929   5.456  16.252 -0.0519  0.2716 -1.1609
 4531TIP3    H235085   1.040   5.477  16.352 -1.9471 -0.5828  1.2057
 4532TIP3   OH235086   2.018   4.667   5.205  0.1925 -0.6295  0.7966
 4532TIP3    H135087   2.010   4.573   5.221 -1.2494 -0.2968  2.1844
 4532TIP3    H235088   2.065   4.673   5.122  1.9742 -2.5452  1.5814
 4533TIP3   OH235089   1.677   2.765   1.823 -0.3203 -0.0264 -0.6863
 4533TIP3    H135090   1.582   2.770   1.834 -0.1632  0.7066  0.4015
 4533TIP3    H235091   1.705   2.856   1.815  0.4848 -0.1295  0.7861
 4534TIP3   OH235092   4.459   3.652   1.082 -0.6758  0.7009 -0.5344
 4534TIP3    H135093   4.391   3.588   1.103  0.2734 -0.0215  0.4188
 4534TIP3    H235094   4.420   3.736   1.106 -2.2808  0.6373 -2.6494
 4535TIP3   OH235095   5.865   5.378   2.952  0.3430 -0.1878 -0.1639
 4535TIP3    H135096   5.914   5.321   3.012 -1.3994 -0.5596  0.9638
 4535TIP3    H235097   5.872   5.334   2.867  0.0986 -1.4129  0.4258
 4536TIP3   OH235098   3.264   3.192  16.542  0.3378  0.7732 -0.1440
 4536TIP3    H135099   3.288   3.281  16.516  1.6172  0.1642 -1.1783
 4536TIP3    H235100   3.297   3.184  16.631  1.1059  1.0317 -0.3920
 4537TIP3   OH235101   0.666   5.533   2.490 -0.0483  0.0128 -0.0542
 4537TIP3    H135102   0.629   5.467   2.431  0.5091  0.1974 -0.6212
 4537TIP3    H235103   0.728   5.582   2.436 -0.5359  1.0865  0.3065
 4538TIP3   OH235104   2.217   2.134   0.416 -0.2253  0.0224  0.1290
 4538TIP3    H135105   2.241   2.159   0.327 -0.8671  0.3340  0.0370
 4538TIP3    H235106   2.273   2.188   0.472  0.0276 -0.0198 -0.0816
 4539TIP3   OH235107   4.171   6.789   0.657 -0.0820  0.0148 -0.4270
 4539TIP3    H135108   4.103   6.723   0.648 -0.0650  0.1257 -1.6301
 4539TIP3    H235109   4.194   6.789   0.750 -0.8312 -0.9057 -0.2330
 4540TIP3   OH235110   3.809   2.525  13.767  0.0136  0.3297 -0.1018
 4540TIP3    H135111   3.823   2.611  13.727  1.8806 -0.1646 -0.5851
 4540TIP3    H235112   3.763   2.544  13.849 -0.1389  1.7224 -0.4799
 4541TIP3   OH235113   6.288   0.507  16.091 -0.1925  0.1188 -0.4864
 4541TIP3    H135114   6.314   0.433  16.145 -1.7933 -0.8934 -1.0357
 4541TIP3    H235115   6.235   0.469  16.022 -0.8982  1.7672 -0.8984
 4542TIP3   OH235116   1.003   2.073  12.344 -0.0681 -0.1434  0.3984
 4542TIP3    H135117   0.967   1.985  12.354 -0.3363 -0.0944 -0.0850
 4542TIP3    H235118   0.975   2.100  12.257 -1.1826  0.9636  1.0627
 4543TIP3   OH235119   1.310   1.633  11.368 -0.2444  0.1297 -0.0722
 4543TIP3    H135120   1.301   1.695  11.296 -2.6560 -3.2031 -2.9309
 4543TIP3    H235121   1.232   1.646  11.421 -0.4935 -0.1216 -0.3782
 4544TIP3   OH235122   6.348   1.271   0.601 -0.2021 -0.4222 -0.1440
 4544TIP3    H135123   6.301   1.260   0.684 -0.2377 -0.6919 -0.1994
 4544TIP3    H235124   6.440   1.264   0.625 -0.2210 -0.7802 -0.1667
 4545TIP3   OH235125   1.753   4.203   5.118 -0.4424 -0.1753 -0.0936
 4545TIP3    H135126   1.690   4.202   5.046 -0.9386  2.0342  0.2349
 4545TIP3    H235127   1.701   4.189   5.197  0.1025 -2.6000 -0.0949
 4546TIP3   OH235128   5.781   5.752  12.438 -0.1787 -0.1542 -0.4057
 4546TIP3    H135129   5.715   5.818  12.418 -1.5846 -1.8245 -1.5682
 4546TIP3    H235130   5.816   5.726  12.352  2.1226  0.7481  0.1781
 4547TIP3   OH235131   2.655   3.889   4.769  0.1441  0.0571 -0.3123
 4547TIP3    H135132   2.681   3.972   4.729  0.4648  0.2817  0.3612
 4547TIP3    H235133   2.639   3.831   4.694 -0.2446  0.7694 -0.7928
 4548TIP3   OH235134   2.788   6.470   2.042 -0.1654 -0.3666 -0.2567
 4548TIP3    H135135   2.848   6.401   2.071 -0.8586 -1.0743 -0.4456
 4548TIP3    H235136   2.840   6.524   1.983  0.3634 -0.8090 -0.2057
 4549TIP3   OH235137   0.021   1.100   6.276  0.3954  0.4586  0.0244
 4549TIP3    H135138  -0.058   1.088   6.223  0.4496 -0.1002  0.0696
 4549TIP3    H235139   0.004   1.181   6.324 -0.9914 -0.6201  1.4813
 4550TIP3   OH235140   6.821   3.320   3.683 -0.5527  0.5255 -0.5552
 4550TIP3    H135141   6.814   3.359   3.596  2.0032 -0.4254 -1.2852
 4550TIP3    H235142   6.822   3.226   3.667  1.1137  0.3513  0.3332
 4551TIP3   OH235143   3.185   3.045  12.134  0.7055 -0.0219 -0.2617
 4551TIP3    H135144   3.163   3.104  12.062  1.4085 -0.2029 -0.6345
 4551TIP3    H235145   3.207   3.103  12.207 -1.8883  0.1918  0.4569
 4552TIP3   OH235146   3.828   2.157  12.004 -0.0327  0.3284  0.7855
 4552TIP3    H135147   3.738   2.183  11.987  0.5382  2.1099  0.2815
 4552TIP3    H235148   3.827   2.061  11.997 -1.4209  0.4342 -1.5749
 4553TIP3   OH235149   1.861   3.726  12.919  0.4044  0.0488 -0.1369
 4553TIP3    H135150   1.887   3.808  12.960  1.3017 -0.6386  0.7138
 4553TIP3    H235151   1.874   3.740  12.825  0.3349  0.9403 -0.0179
 4554TIP3   OH235152   2.768   2.665   0.855 -0.0381  0.7746  0.0017
 4554TIP3    H135153   2.814   2.699   0.932  1.6843 -2.0564  0.3979
 4554TIP3    H235154   2.830   2.675   0.783 -0.5982  0.9968 -0.4622
 4555TIP3   OH235155   2.466   4.355   3.075  0.4747  0.1880  0.2911
 4555TIP3    H135156   2.509   4.277   3.112 -0.7095 -0.3409  0.5917
 4555TIP3    H235157   2.453   4.412   3.151  1.1943  0.6265  0.0969
 4556TIP3   OH235158   2.220   1.548  13.753  0.0028 -0.1751  0.6800
 4556TIP3    H135159   2.133   1.508  13.759  0.7742 -2.2580 -0.7801
 4556TIP3    H235160   2.212   1.609  13.679 -0.0885 -0.8403  0.1207
 4557TIP3   OH235161   5.036   1.183   2.248 -0.0813 -0.3835  0.2006
 4557TIP3    H135162   5.055   1.204   2.156  0.1166 -0.5966  0.1917
 4557TIP3    H235163   4.941   1.184   2.253 -0.0922 -0.2874  0.0128
 4558TIP3   OH235164   0.842   3.272  11.039  0.3647 -0.6626 -0.4622
 4558TIP3    H135165   0.774   3.277  10.972  0.4387  1.0999 -0.4550
 4558TIP3    H235166   0.806   3.215  11.106 -0.1868 -1.5131 -1.4577
 4559TIP3   OH235167   5.176   2.874  12.948  0.8262 -0.0947  0.4532
 4559TIP3    H135168   5.102   2.821  12.977  0.5006  0.5521  0.8138
 4559TIP3    H235169   5.136   2.948  12.901  1.1225  1.1663  2.0855
 4560TIP3   OH235170   3.006   4.029  13.709  0.8032  1.1383  0.1970
 4560TIP3    H135171   3.060   3.953  13.732  0.2638  0.9446  0.8818
 4560TIP3    H235172   2.916   3.997  13.715  0.6068  1.3268 -1.3947
 4561TIP3   OH235173   4.769   4.200   1.268  0.0732 -0.3389 -0.3045
 4561TIP3    H135174   4.796   4.143   1.340  0.1263  0.6783  0.4968
 4561TIP3    H235175   4.850   4.236   1.234 -0.0735  0.7144  0.4255
 4562TIP3   OH235176   1.305   3.204  17.041  0.5315 -0.8268  0.1669
 4562TIP3    H135177   1.370   3.208  16.971 -1.1559  0.4013 -1.4119
 4562TIP3    H235178   1.251   3.128  17.020 -1.1800  0.6382 -1.0822
 4563TIP3   OH235179   5.524   3.615   4.986  0.2083  0.1611  0.1415
 4563TIP3    H135180   5.450   3.577   4.938  0.4117 -1.3187  0.9229
 4563TIP3    H235181   5.587   3.544   4.993  1.0742  0.9689  0.7746
 4564TIP3   OH235182   3.294   3.628  13.043 -0.1110  0.2076  0.0581
 4564TIP3    H135183   3.365   3.589  13.094  1.2105  1.6630 -0.5900
 4564TIP3    H235184   3.313   3.722  13.043 -1.8340  0.5907 -0.4704
 4565TIP3   OH235185   4.283   2.424   2.161  0.3524 -0.4385  0.1637
 4565TIP3    H135186   4.257   2.342   2.201 -1.3055  0.1282  0.3469
 4565TIP3    H235187   4.274   2.409   2.067 -1.2100 -0.1215  0.2336
 4566TIP3   OH235188   3.997   2.348   2.702  0.1638  0.3116  0.2092
 4566TIP3    H135189   3.922   2.400   2.731  0.0716 -0.0060  0.5563
 4566TIP3    H235190   4.065   2.412   2.682  0.0306  0.5688  0.5677
 4567TIP3   OH235191   3.401   3.497   4.301  0.0203  0.0509  0.5750
 4567TIP3    H135192   3.465   3.554   4.344 -1.9401  1.4687  1.7935
 4567TIP3    H235193   3.323   3.503   4.356 -0.8223 -2.5375 -0.2100
 4568TIP3   OH235194   2.729   0.022   2.586 -0.4713  0.2785  0.2106
 4568TIP3    H135195   2.688  -0.033   2.519 -0.4459  0.7339 -0.1865
 4568TIP3    H235196   2.776  -0.040   2.642  1.0388  0.0115 -1.2581
 4569TIP3   OH235197   3.697   3.874  12.103 -1.0554  0.5534  0.1811
 4569TIP3    H135198   3.752   3.909  12.174 -1.3305  2.9361 -0.6978
 4569TIP3    H235199   3.757   3.822  12.050 -0.2674  0.8688  0.7360
 4570TIP3   OH235200   3.143   0.350   2.914 -0.2680  0.0627 -0.8174
 4570TIP3    H135201   3.227   0.328   2.954 -0.9990 -2.3303 -0.4730
 4570TIP3    H235202   3.094   0.268   2.914 -0.9529  0.2228 -5.1582
 4571TIP3   OH235203   4.222   4.607  11.481 -0.0755 -0.1677 -0.6700
 4571TIP3    H135204   4.171   4.688  11.479 -0.0863 -0.1789 -1.3712
 4571TIP3    H235205   4.308   4.633  11.512 -0.4417 -0.1132  0.3293
 4572TIP3   OH235206   6.567   2.608   0.767 -0.3186 -0.7587 -0.2554
 4572TIP3    H135207   6.608   2.669   0.829 -2.4682 -0.8239  1.3334
 4572TIP3    H235208   6.636   2.544   0.748  0.9767  0.3152  0.6066
 4573TIP3   OH235209   1.106   2.429  12.547 -0.1094 -0.6164  0.5668
 4573TIP3    H135210   1.035   2.371  12.574  0.6713 -0.4535  3.2128
 4573TIP3    H235211   1.079   2.516  12.575  0.5123 -0.3209  0.2741
 4574TIP3   OH235212   0.769   4.165  14.652 -0.1239 -0.1526  0.3836
 4574TIP3    H135213   0.847   4.131  14.694  0.0479  1.4317  1.4437
 4574TIP3    H235214   0.697   4.139  14.710 -0.1466  0.0322  0.4424
 4575TIP3   OH235215   4.232   1.926  15.838  0.2517 -0.0704 -0.1972
 4575TIP3    H135216   4.179   1.847  15.827  1.6011 -1.0512  0.0460
 4575TIP3    H235217   4.322   1.895  15.837  0.7952  1.2559  1.5426
 4576TIP3   OH235218   4.250   6.593  12.050 -0.2402 -0.3370  0.0928
 4576TIP3    H135219   4.266   6.686  12.062 -0.4669 -0.0487 -1.6554
 4576TIP3    H235220   4.268   6.577  11.958 -0.3111 -2.0097  0.3381
 4577TIP3   OH235221   5.291   2.462  15.616 -0.2935 -0.1582  0.4376
 4577TIP3    H135222   5.295   2.367  15.605 -1.5176 -0.3019  1.0365
 4577TIP3    H235223   5.225   2.476  15.684 -2.6977  1.2510 -1.9597
 4578TIP3   OH235224   4.827   2.248   2.226 -0.5883 -0.0144  0.1772
 4578TIP3    H135225   4.872   2.205   2.152  0.9016 -0.4465  1.2826
 4578TIP3    H235226   4.735   2.222   2.216  0.2073 -3.7746  0.8634
 4579TIP3   OH235227   4.024   4.342   5.929  0.2661  0.1827 -0.0716
 4579TIP3    H135228   4.090   4.284   5.968 -0.1912 -1.0750 -1.0937
 4579TIP3    H235229   3.985   4.388   6.004  1.0612 -0.3978  0.7117
 4580TIP3   OH235230   1.181   0.883   5.134 -0.8840 -0.5701  0.3658
 4580TIP3    H135231   1.249   0.830   5.177 -0.2934 -0.3076 -0.2298
 4580TIP3    H235232   1.216   0.901   5.047 -1.3212  0.3299  0.3665
 4581TIP3   OH235233   5.477   3.775   5.417 -0.0636  0.0578 -0.3714
 4581TIP3    H135234   5.412   3.843   5.403 -0.4229 -0.8165 -4.3042
 4581TIP3    H235235   5.454   3.735   5.501 -2.7964  1.6461 -0.2524
 4582TIP3   OH235236   2.276   3.432  15.189  0.4952  0.2010 -0.5277
 4582TIP3    H135237   2.343   3.383  15.141  1.7148  0.2989  0.9847
 4582TIP3    H235238   2.214   3.366  15.217  1.0475 -0.1940 -0.2185
 4583TIP3   OH235239   3.284   2.138   2.716  0.3601  0.1494 -0.0723
 4583TIP3    H135240   3.308   2.047   2.735  0.8996 -0.0490 -1.5561
 4583TIP3    H235241   3.359   2.173   2.668  0.2210  1.4400  0.6128
 4584TIP3   OH235242   5.050   4.964   4.679 -0.1908 -0.1485 -0.3702
 4584TIP3    H135243   5.012   4.902   4.617  0.6728 -0.8310 -0.2508
 4584TIP3    H235244   4.980   4.980   4.743  0.2404 -2.8809  0.9400
 4585TIP3   OH235245   6.419   5.604  15.962 -0.0880  0.3269  0.3983
 4585TIP3    H135246   6.355   5.558  15.908  1.9322 -1.1833 -0.8768
 4585TIP3    H235247   6.397   5.581  16.052 -0.5511 -1.2702 -0.0910
 4586TIP3   OH235248   5.989   6.559   4.192  0.6634 -0.3236  0.5530
 4586TIP3    H135249   6.059   6.612   4.229  1.8037 -0.5380 -1.1871
 4586TIP3    H235250   5.910   6.612   4.203  1.5015  1.0059  0.3924
 4587TIP3   OH235251   1.457   0.721  14.426  0.0973 -0.4415 -0.7879
 4587TIP3    H135252   1.446   0.661  14.500  1.9919  1.1195  0.8956
 4587TIP3    H235253   1.386   0.785  14.435 -0.0303 -0.5986 -0.6808
 4588TIP3   OH235254   6.141   5.452   5.329  0.0673  0.2765  0.3036
 4588TIP3    H135255   6.051   5.482   5.321 -0.3059 -0.5404  1.2635
 4588TIP3    H235256   6.135   5.357   5.332  1.1058  0.1272 -1.1901
 4589TIP3   OH235257   2.286   3.360   3.420 -0.0856  0.2658  0.0834
 4589TIP3    H135258   2.344   3.308   3.476 -0.6012  0.4895  0.8475
 4589TIP3    H235259   2.344   3.414   3.367  0.4242 -0.2623  0.1078
 4590TIP3   OH235260   0.731   4.960   3.376  0.3407  0.3823  0.2310
 4590TIP3    H135261   0.742   4.937   3.469  0.5497  0.4860  0.2340
 4590TIP3    H235262   0.650   4.917   3.350  0.5933 -0.1422  0.3059
 4591TIP3   OH235263   0.272   2.925   5.125 -0.0123 -0.1702 -0.8605
 4591TIP3    H135264   0.225   2.954   5.048 -1.7224  1.9227  0.8300
 4591TIP3    H235265   0.211   2.867   5.170  0.1295  0.2509 -0.1015
 4592TIP3   OH235266   5.914   2.019  11.573  0.8663  0.2382 -1.0046
 4592TIP3    H135267   5.896   2.095  11.628  0.4828  0.1106 -0.9500
 4592TIP3    H235268   5.850   1.953  11.602 -0.3067  0.6502 -2.5683
 4593TIP3   OH235269   4.217   3.641   4.719  0.6739  0.1949 -0.0839
 4593TIP3    H135270   4.273   3.714   4.747  0.3640 -0.5904  2.9551
 4593TIP3    H235271   4.243   3.568   4.776 -1.2033 -1.1303 -0.8349
 4594TIP3   OH235272   3.205   3.500  12.257 -0.6900 -0.3426 -0.0330
 4594TIP3    H135273   3.221   3.525  12.348 -0.2657  1.5478 -0.5790
 4594TIP3    H235274   3.110   3.496  12.249 -0.7393 -0.0175  0.3694
 4595TIP3   OH235275   3.562   6.286   2.225 -0.2204  0.0709  0.1811
 4595TIP3    H135276   3.645   6.292   2.177 -0.4500  1.4938 -0.0809
 4595TIP3    H235277   3.505   6.234   2.169  0.8019 -1.8723  0.8573
 4596TIP3   OH235278   1.059   4.787   0.387  0.1112 -0.0965 -0.1493
 4596TIP3    H135279   1.004   4.716   0.355 -0.1028 -0.3150  0.6863
 4596TIP3    H235280   1.145   4.747   0.401  0.5002  0.2476 -1.4688
 4597TIP3   OH235281   6.312   5.707  16.250 -0.1298 -0.6851 -0.6162
 4597TIP3    H135282   6.270   5.788  16.277 -0.4120 -1.4342  1.3276
 4597TIP3    H235283   6.252   5.638  16.277  1.3662 -1.6760  0.3669
 4598TIP3   OH235284   4.142   6.736   3.406  0.2508  0.4901  0.2308
 4598TIP3    H135285   4.195   6.686   3.343 -1.1198 -0.1108 -0.4707
 4598TIP3    H235286   4.205   6.762   3.473  1.6577  0.7057 -1.1019
 4599TIP3   OH235287   6.449   2.037  11.309  0.1583 -0.3423  0.0226
 4599TIP3    H135288   6.533   1.995  11.330  0.8323  0.9911  0.0725
 4599TIP3    H235289   6.402   2.039  11.392 -0.0998 -1.4463 -0.0816
 4600TIP3   OH235290   0.767   6.137   3.928  0.3912 -0.4546 -0.0439
 4600TIP3    H135291   0.846   6.142   3.982  0.7916 -1.1391 -0.5534
 4600TIP3    H235292   0.739   6.046   3.934 -0.4733 -0.1748  0.2744
 4601TIP3   OH235293   4.747   3.445   1.771 -0.1343 -0.4973  0.0397
 4601TIP3    H135294   4.818   3.499   1.804 -0.0740  0.1638 -1.1295
 4601TIP3    H235295   4.741   3.372   1.833  0.4431  0.3152  1.0742
 4602TIP3   OH235296   5.883   1.394   3.828 -0.1126  0.1000 -0.5488
 4602TIP3    H135297   5.934   1.329   3.778 -0.1209 -1.9912  1.9886
 4602TIP3    H235298   5.947   1.462   3.850  1.5104 -2.0179  1.7729
 4603TIP3   OH235299   0.748   1.381  10.380  0.1069  0.2524  0.4559
 4603TIP3    H135300   0.698   1.384  10.299 -0.4872  1.3471  0.8449
 4603TIP3    H235301   0.729   1.294  10.417  0.0387 -0.0824 -0.3491
 4604TIP3   OH235302   3.667   3.010  17.071 -0.3802  0.1880  0.0810
 4604TIP3    H135303   3.741   3.021  17.131  0.0721  0.2957 -0.4816
 4604TIP3    H235304   3.599   3.069  17.105 -0.6176 -0.6937  1.2190
 4605TIP3   OH235305   5.243   2.186  16.367 -0.3245 -0.1777 -0.0673
 4605TIP3    H135306   5.296   2.214  16.293 -2.4354 -0.1432 -1.6349
 4605TIP3    H235307   5.154   2.178  16.333 -1.4434  0.0553  2.5153
 4606TIP3   OH235308   1.446   0.957  16.789  0.1711  0.4401 -0.0327
 4606TIP3    H135309   1.387   0.900  16.740  0.4322 -0.8532  1.1016
 4606TIP3    H235310   1.393   0.989  16.862  0.3965  0.5988  0.0613
 4607TIP3   OH235311   4.735   4.444   0.864  0.7502 -0.3403  0.5629
 4607TIP3    H135312   4.682   4.378   0.909 -0.4176  1.0503  1.3299
 4607TIP3    H235313   4.818   4.444   0.911  1.7612 -2.9861 -1.0443
 4608TIP3   OH235314   3.574   6.806   3.179  0.4474 -0.2134 -0.1316
 4608TIP3    H135315   3.625   6.748   3.236  1.4239 -0.0682 -0.8146
 4608TIP3    H235316   3.598   6.894   3.208 -2.0185 -0.0794  1.7619
 4609TIP3   OH235317   4.423   2.088  13.684 -0.0804 -0.0333  0.3677
 4609TIP3    H135318   4.388   2.172  13.715  1.5169  0.7396  0.1670
 4609TIP3    H235319   4.498   2.070  13.740  0.9977 -0.1380 -1.0444
 4610TIP3   OH235320   0.512   0.442  16.947  0.5615  0.4802 -0.1333
 4610TIP3    H135321   0.443   0.504  16.969 -0.4490 -0.9954  1.0614
 4610TIP3    H235322   0.579   0.456  17.014 -0.6790 -1.1741  1.5762
 4611TIP3   OH235323   4.699   0.845   5.093  0.4206  1.0568 -0.4085
 4611TIP3    H135324   4.682   0.932   5.130 -2.5079  1.5337 -2.5034
 4611TIP3    H235325   4.742   0.863   5.009  0.2683  0.4353 -0.6234
 4612TIP3   OH235326   0.539   3.258   2.232 -0.1071 -0.4088 -0.0151
 4612TIP3    H135327   0.482   3.182   2.217 -2.0986  0.8401  0.8587
 4612TIP3    H235328   0.566   3.286   2.144  0.6768 -2.0787 -0.3524
 4613TIP3   OH235329   3.233   1.724   5.576  0.3032  0.3618  0.6485
 4613TIP3    H135330   3.271   1.713   5.488  1.3624 -2.5772  1.3713
 4613TIP3    H235331   3.290   1.788   5.618  0.0032  1.5306 -0.6336
 4614TIP3   OH235332   4.871   3.048  11.002  0.2870 -0.2562  0.7517
 4614TIP3    H135333   4.915   3.062  10.917  1.5502 -0.4976  1.3487
 4614TIP3    H235334   4.936   3.075  11.067 -1.0695  1.0093  1.6377
 4615TIP3   OH235335   5.022   6.728  14.050  0.1039 -0.1632  0.1498
 4615TIP3    H135336   5.022   6.754  13.958 -0.5977 -0.4749  0.0574
 4615TIP3    H235337   4.965   6.791  14.093  2.4099  1.5956  0.8712
 4616TIP3   OH235338   2.152   1.408   2.735  0.2413 -0.1784 -0.0016
 4616TIP3    H135339   2.063   1.405   2.769 -0.2170 -1.5551 -1.2312
 4616TIP3    H235340   2.142   1.399   2.641  1.6323  0.8057 -0.2759
 4617TIP3   OH235341   4.354   5.360  13.953  0.8177 -0.1882  0.2937
 4617TIP3    H135342   4.328   5.446  13.985  4.5804  2.3716 -2.6462
 4617TIP3    H235343   4.318   5.355  13.865 -0.3364 -2.2476  0.8262
 4618TIP3   OH235344   3.160   3.318   3.316  0.3464  0.1127 -0.4397
 4618TIP3    H135345   3.095   3.388   3.304  0.7154  0.1534 -2.7080
 4618TIP3    H235346   3.114   3.239   3.289  0.7602 -0.0818 -0.5797
 4619TIP3   OH235347   5.416   5.769  11.838  0.7428 -0.3714  0.6268
 4619TIP3    H135348   5.499   5.816  11.843 -0.6672  2.4254  0.2818
 4619TIP3    H235349   5.434   5.692  11.785  2.8695  0.7623 -0.4092
 4620TIP3   OH235350   0.312   4.059   1.285 -0.3201 -0.2474  0.2992
 4620TIP3    H135351   0.377   4.113   1.240 -1.2177 -0.9079 -1.9315
 4620TIP3    H235352   0.358   4.025   1.361  1.7909 -0.2817 -0.9144
 4621TIP3   OH235353   3.494   1.306  16.107  0.0320 -0.1082  0.1020
 4621TIP3    H135354   3.434   1.377  16.083  0.3370  0.3265  0.5852
 4621TIP3    H235355   3.488   1.301  16.202  0.8291  0.0093  0.1679
 4622TIP3   OH235356   5.103   5.452   2.112 -0.4778 -0.3270  0.3933
 4622TIP3    H135357   5.156   5.376   2.089  3.3339  1.8266  1.2551
 4622TIP3    H235358   5.124   5.518   2.046 -0.6338  1.2090  1.7927
 4623TIP3   OH235359   3.100   5.164   3.214  0.7304  1.0790 -0.1385
 4623TIP3    H135360   3.023   5.162   3.271  0.3872  1.8495 -0.5525
 4623TIP3    H235361   3.066   5.143   3.127  1.4263 -1.2108  0.0727
 4624TIP3   OH235362   0.856   6.504  14.105  0.1305  0.2967  0.1943
 4624TIP3    H135363   0.916   6.515  14.031  0.9626  1.7616  1.0367
 4624TIP3    H235364   0.771   6.491  14.065  0.7150  0.1307 -1.0355
 4625TIP3   OH235365   2.448   1.656   6.255 -0.1409  0.1602 -0.1283
 4625TIP3    H135366   2.372   1.600   6.271  1.5833 -2.1502  0.5163
 4625TIP3    H235367   2.521   1.595   6.247  1.7272  2.3067 -0.3491
 4626TIP3   OH235368   2.614   0.850   3.747 -0.7302  0.0557 -0.1991
 4626TIP3    H135369   2.709   0.856   3.732 -0.3934 -2.6151  0.2718
 4626TIP3    H235370   2.606   0.810   3.834 -2.3161  0.7709  0.0136
 4627TIP3   OH235371   1.555   3.689   6.167 -0.2000  0.8919  0.3748
 4627TIP3    H135372   1.529   3.754   6.101 -0.4173 -0.0654 -0.5108
 4627TIP3    H235373   1.477   3.635   6.179 -0.1563  1.0589  1.4364
 4628TIP3   OH235374   5.667   0.561  13.737 -0.8918 -0.7803 -0.0302
 4628TIP3    H135375   5.737   0.500  13.761 -0.4428 -0.0907  0.4287
 4628TIP3    H235376   5.619   0.515  13.667 -1.0664 -2.0031  0.8570
 4629TIP3   OH235377   2.652   3.430   4.450  0.5593  0.0616 -0.4089
 4629TIP3    H135378   2.581   3.365   4.454  0.4170  0.1572 -1.1798
 4629TIP3    H235379   2.714   3.402   4.516 -0.1044 -0.1449  0.1378
 4630TIP3   OH235380   2.911   5.009  14.226 -0.4887  0.4531 -0.0560
 4630TIP3    H135381   2.966   5.018  14.148 -1.0367  0.2207 -0.4761
 4630TIP3    H235382   2.972   4.982  14.295 -0.3800 -2.0066 -1.0080
 4631TIP3   OH235383   2.965   5.930  12.165 -0.4785  0.0661 -0.5094
 4631TIP3    H135384   2.984   5.991  12.094 -1.9610  0.7591 -0.3312
 4631TIP3    H235385   2.936   5.850  12.122  0.3873 -0.1478 -0.7129
 4632TIP3   OH235386   5.258   1.389  10.534 -0.0883  0.0696 -0.5840
 4632TIP3    H135387   5.166   1.408  10.554  0.2495  0.5526  0.5794
 4632TIP3    H235388   5.297   1.368  10.619  0.8531 -0.2669 -1.0901
 4633TIP3   OH235389   1.257   5.995  13.093  0.2205 -0.4386  0.1398
 4633TIP3    H135390   1.299   6.054  13.155  0.8866  2.4375 -2.8016
 4633TIP3    H235391   1.166   6.023  13.090  0.3341 -0.1435 -0.6312
 4634TIP3   OH235392   4.733   3.630  14.544 -0.1309  0.7815  0.3380
 4634TIP3    H135393   4.807   3.680  14.579 -0.0051  0.2604  0.8229
 4634TIP3    H235394   4.672   3.697  14.511  0.6808  1.2014 -0.3340
 4635TIP3   OH235395   0.271   2.745  12.982 -0.6875 -0.1617  0.2039
 4635TIP3    H135396   0.319   2.733  12.900  1.9395  1.9338  1.2880
 4635TIP3    H235397   0.187   2.702  12.966  0.9445 -2.8834 -2.3455
 4636TIP3   OH235398   4.220   5.745   4.392  0.2661 -0.2172 -0.1043
 4636TIP3    H135399   4.193   5.660   4.356 -1.4362  0.3188 -0.1693
 4636TIP3    H235400   4.221   5.731   4.487  0.7690 -0.5211 -0.1521
 4637TIP3   OH235401   4.441   6.657   0.688 -0.0486  0.1289  0.2674
 4637TIP3    H135402   4.390   6.733   0.717  1.8874  0.7622  2.2036
 4637TIP3    H235403   4.476   6.618   0.768 -1.0052 -2.9253 -0.6374
 4638TIP3   OH235404   2.076   1.601  15.185  0.0649  0.0879 -0.3442
 4638TIP3    H135405   2.168   1.616  15.165  0.0404 -0.4458 -0.8933
 4638TIP3    H235406   2.032   1.607  15.100  0.0527 -3.0498 -0.6467
 4639TIP3   OH235407   1.673   4.473   2.843 -0.3366  0.0371 -0.1250
 4639TIP3    H135408   1.669   4.405   2.910 -1.6561 -0.3145 -0.5424
 4639TIP3    H235409   1.766   4.481   2.823 -0.0502 -0.7552  0.8263
 4640TIP3   OH235410   5.533   5.791  14.239  0.1245  0.1525 -0.5939
 4640TIP3    H135411   5.441   5.793  14.266 -0.1086 -4.1047 -0.3147
 4640TIP3    H235412   5.582   5.809  14.320 -0.4352  1.1198 -0.4548
 4641TIP3   OH235413   3.120   3.424  15.546  0.1998 -0.2413 -0.1509
 4641TIP3    H135414   3.163   3.509  15.541  1.2243 -0.7259  0.0749
 4641TIP3    H235415   3.151   3.376  15.470  0.6919 -0.8800  0.4402
 4642TIP3   OH235416   1.820   0.106  15.903  0.1234  0.2615 -0.4882
 4642TIP3    H135417   1.770   0.080  15.825  1.5861 -0.9400 -1.0651
 4642TIP3    H235418   1.838   0.023  15.948 -1.1890  0.9788  1.4839
 4643TIP3   OH235419   2.722   5.668   3.204 -0.0545 -0.0161  0.4730
 4643TIP3    H135420   2.654   5.700   3.264 -0.9906 -0.1582 -0.4740
 4643TIP3    H235421   2.685   5.588   3.166  1.7100 -1.5663  1.8218
 4644TIP3   OH235422   0.773   4.651   5.722  0.1765 -0.3104  0.2462
 4644TIP3    H135423   0.681   4.647   5.695  0.8952 -0.2841 -2.5064
 4644TIP3    H235424   0.807   4.731   5.682  1.2103  0.2405  2.0700
 4645TIP3   OH235425   4.364   0.136  12.757  0.1058 -0.4504  0.1445
 4645TIP3    H135426   4.291   0.080  12.733  0.1869 -0.7040  0.4879
 4645TIP3    H235427   4.403   0.094  12.834 -0.0950  0.3087  0.6687
 4646TIP3   OH235428   2.832   0.045   4.593 -0.0045 -0.0653  0.1235
 4646TIP3    H135429   2.899   0.100   4.632  0.2376  1.0055 -1.7105
 4646TIP3    H235430   2.834   0.066   4.500 -1.6328 -1.3609 -0.2575
 4647TIP3   OH235431   6.202   4.424  11.932 -0.2883  0.1810  0.3401
 4647TIP3    H135432   6.197   4.489  12.001  0.3075  2.1927 -1.4025
 4647TIP3    H235433   6.255   4.465  11.864 -0.5844 -1.8183 -1.2066
 4648TIP3   OH235434   2.755   4.211   3.871 -0.1364 -0.1541  0.0339
 4648TIP3    H135435   2.674   4.262   3.872 -1.4006 -1.8476 -3.0027
 4648TIP3    H235436   2.824   4.276   3.872 -1.5873  1.4565  0.1937
 4649TIP3   OH235437   3.920   6.048  12.875  0.9652 -0.6480  0.4253
 4649TIP3    H135438   3.992   6.110  12.890  1.8531 -1.5297 -0.0225
 4649TIP3    H235439   3.962   5.974  12.831 -0.0805 -1.5583  0.9308
 4650TIP3   OH235440   5.065   5.675   6.104 -0.1047 -0.7122  0.1983
 4650TIP3    H135441   5.018   5.640   6.028  0.4124 -2.6167  0.7046
 4650TIP3    H235442   5.010   5.747   6.136 -0.9901 -0.7531 -1.1599
 4651TIP3   OH235443   0.368   4.200  17.067 -0.3771  0.4107  0.1938
 4651TIP3    H135444   0.392   4.143  16.994  1.0983 -0.3470  1.2231
 4651TIP3    H235445   0.451   4.237  17.097 -0.9452  0.6817  1.5012
 4652TIP3   OH235446   5.788   5.589  16.607 -0.5952  0.4851 -0.1086
 4652TIP3    H135447   5.793   5.555  16.517 -3.2280  0.0389 -0.1559
 4652TIP3    H235448   5.746   5.519  16.657  0.1624  1.0270  1.3473
 4653TIP3   OH235449   3.127   2.890  11.835  0.5390  0.1757 -0.1716
 4653TIP3    H135450   3.180   2.970  11.842 -0.5904  0.9973 -0.7737
 4653TIP3    H235451   3.125   2.871  11.742  3.2784 -2.3243  0.1309
 4654TIP3   OH235452   5.247   3.689   1.014 -0.2746  0.0869 -0.2758
 4654TIP3    H135453   5.316   3.743   0.976  1.4983 -2.9689 -1.7577
 4654TIP3    H235454   5.184   3.678   0.943 -0.3045 -0.2760 -0.1952
 4655TIP3   OH235455   6.525   5.653   2.369 -0.1176  0.1930  0.1638
 4655TIP3    H135456   6.531   5.744   2.340  0.4201 -0.1491 -0.8218
 4655TIP3    H235457   6.557   5.654   2.459 -0.8513  1.1009  0.4300
 4656TIP3   OH235458   4.607   1.778  11.257 -0.0885  0.3672 -0.2818
 4656TIP3    H135459   4.574   1.813  11.174 -1.0781  1.2132  0.4335
 4656TIP3    H235460   4.546   1.708  11.279  0.1336  0.1900 -0.2267
 4657TIP3   OH235461   5.792   6.602  14.870  0.1616  0.0107 -0.4029
 4657TIP3    H135462   5.786   6.687  14.827  1.1602 -0.3321 -1.2614
 4657TIP3    H235463   5.783   6.622  14.963  1.7634  1.2473 -0.4664
 4658TIP3   OH235464   3.961   2.091   2.562  0.0692 -0.2042  0.0413
 4658TIP3    H135465   3.866   2.078   2.571  0.3209 -1.4733  1.1008
 4658TIP3    H235466   3.983   2.152   2.632  0.2341 -1.0539  0.7556
 4659TIP3   OH235467   2.039   3.878   4.587 -0.1097  0.2043  0.4445
 4659TIP3    H135468   1.950   3.907   4.605 -0.5272 -0.3507 -0.6066
 4659TIP3    H235469   2.095   3.947   4.623 -0.9923  1.0020  0.3379
 4660TIP3   OH235470   0.687   1.953   2.051 -0.2659  0.0446 -0.1830
 4660TIP3    H135471   0.684   2.042   2.015 -2.6095  0.1662  0.1648
 4660TIP3    H235472   0.758   1.911   2.003  0.8020  2.0438 -0.4756
 4661TIP3   OH235473   2.906   6.381  15.700 -0.2597  0.4735 -0.5007
 4661TIP3    H135474   2.953   6.455  15.661 -0.4537  1.3428  0.8595
 4661TIP3    H235475   2.814   6.397  15.680 -0.3063  0.6270 -0.1670
 4662TIP3   OH235476   5.787   6.261  11.512  0.0671 -0.7795 -0.1610
 4662TIP3    H135477   5.718   6.235  11.573 -0.3684  3.6335  1.5677
 4662TIP3    H235478   5.740   6.286  11.433 -0.2766  0.9649  0.5547
 4663TIP3   OH235479   3.945   1.758   5.359 -0.2117  0.2963  0.2921
 4663TIP3    H135480   3.977   1.745   5.270 -1.0149  0.8070 -0.0838
 4663TIP3    H235481   3.906   1.673   5.383  1.6584 -0.4493  0.8943
 4664TIP3   OH235482   0.067   2.360   0.046 -0.2573  0.2547  0.3820
 4664TIP3    H135483   0.144   2.311   0.073 -0.4131 -0.2748 -0.1061
 4664TIP3    H235484   0.094   2.452   0.048 -0.3288  0.2747  2.5135
 4665TIP3   OH235485   6.750   5.571  12.072  0.2247 -0.1119 -0.0798
 4665TIP3    H135486   6.800   5.649  12.096  0.0503 -0.0313  0.0238
 4665TIP3    H235487   6.740   5.577  11.977  1.3521 -0.6921 -0.2570
 4666TIP3   OH235488   1.542   1.813   6.701  0.3590  0.7322 -0.5853
 4666TIP3    H135489   1.476   1.877   6.726  0.5342  0.7149 -0.0665
 4666TIP3    H235490   1.492   1.737   6.671  0.0432 -0.2820  2.2241
 4667TIP3   OH235491   4.876   6.368  17.081 -0.1235  0.5799 -0.0718
 4667TIP3    H135492   4.910   6.410  17.002 -3.1970  1.0059 -1.2916
 4667TIP3    H235493   4.791   6.333  17.056 -0.5413 -0.6829  2.6683
 4668TIP3   OH235494   6.106   0.189  11.440  0.1039 -0.2341  0.3736
 4668TIP3    H135495   6.077   0.128  11.507 -0.8015 -1.7665 -1.3275
 4668TIP3    H235496   6.086   0.146  11.357  3.1652  0.6154 -0.9444
 4669TIP3   OH235497   5.373   5.231   0.574  0.2147 -0.7535  0.0676
 4669TIP3    H135498   5.310   5.259   0.640 -0.8846  0.9457 -1.5771
 4669TIP3    H235499   5.321   5.220   0.494  1.9398  0.7610 -1.3765
 4670TIP3   OH235500   6.619   6.115   4.888  0.4010 -0.0586  0.6082
 4670TIP3    H135501   6.635   6.044   4.825  2.0465  0.2069  0.6851
 4670TIP3    H235502   6.531   6.099   4.920  0.3117 -1.4061 -0.2360
 4671TIP3   OH235503   5.753   6.467  11.291 -0.2613  0.2875  0.2256
 4671TIP3    H135504   5.678   6.517  11.324 -1.4513 -0.1738 -1.6238
 4671TIP3    H235505   5.731   6.449  11.200  1.4560 -1.1526  0.0485
 4672TIP3   OH235506   5.785   6.314  16.461  0.1043 -0.4339  0.3707
 4672TIP3    H135507   5.706   6.351  16.421 -1.2216 -2.1842  1.2239
 4672TIP3    H235508   5.790   6.357  16.546  1.8748  1.9106 -0.7889
 4673TIP3   OH235509   6.736   6.367   3.675 -0.4036  0.1608  0.3427
 4673TIP3    H135510   6.702   6.279   3.689  0.7262 -0.4341 -0.4954
 4673TIP3    H235511   6.780   6.363   3.590 -2.3000  2.1321 -0.8560
 4674TIP3   OH235512   1.883   1.861  14.636  0.2361 -0.9652  0.2872
 4674TIP3    H135513   1.831   1.856  14.716 -1.0839  0.5321 -0.4301
 4674TIP3    H235514   1.949   1.928  14.654 -0.4830 -0.1461 -0.0945
 4675TIP3   OH235515   6.007   1.320  13.892 -0.5273 -0.0981  0.2627
 4675TIP3    H135516   5.997   1.358  13.980 -0.7950 -0.2326  0.2913
 4675TIP3    H235517   6.056   1.239  13.907  1.6395  1.0838  0.0032
 4676TIP3   OH235518   4.495   5.775   5.339 -0.0141 -0.0764  0.3258
 4676TIP3    H135519   4.535   5.788   5.253 -0.4466 -1.8626 -0.2009
 4676TIP3    H235520   4.559   5.810   5.401  0.0894  1.7205 -0.7121
 4677TIP3   OH235521   3.535   6.799  11.417 -0.2499  0.6697  0.2142
 4677TIP3    H135522   3.492   6.821  11.499  0.3732  0.4823  0.5978
 4677TIP3    H235523   3.584   6.878  11.393 -1.0089  0.9798 -0.3647
 4678TIP3   OH235524   0.262   5.079  15.933 -0.3254  0.0293  0.1841
 4678TIP3    H135525   0.187   5.127  15.898 -1.2607 -0.2110  1.7601
 4678TIP3    H235526   0.240   5.064  16.025  1.0057 -1.3415  0.3185
 4679TIP3   OH235527   3.645   6.058  16.541  0.4781 -0.1619 -0.0157
 4679TIP3    H135528   3.648   6.001  16.464  4.0763 -0.2826  0.0538
 4679TIP3    H235529   3.638   6.146  16.505 -3.7687 -0.3498 -0.1530
 4680TIP3   OH235530   0.827   5.848   1.677 -0.3628  0.2507  0.0690
 4680TIP3    H135531   0.858   5.938   1.686  0.0042  0.0529  0.9021
 4680TIP3    H235532   0.907   5.796   1.667 -0.5328 -0.0492  0.2560
 4681TIP3   OH235533   0.219   2.007  15.594  0.2163  0.5122  0.6803
 4681TIP3    H135534   0.240   2.092  15.631 -0.9886  0.6701  1.0496
 4681TIP3    H235535   0.156   2.025  15.525  1.3434  0.0778 -0.4996
 4682TIP3   OH235536   4.505   0.106   3.095  0.7158  0.4200  0.1467
 4682TIP3    H135537   4.513   0.174   3.163  2.6121 -0.1774  0.5927
 4682TIP3    H235538   4.594   0.095   3.062  0.1191 -0.5483 -1.2332
 4683TIP3   OH235539   4.340   3.791  13.621  0.3637  0.8870  0.9393
 4683TIP3    H135540   4.301   3.753  13.543 -1.2240  1.7678  1.2449
 4683TIP3    H235541   4.432   3.763  13.619 -0.2208 -1.1563  0.0832
 4684TIP3   OH235542   6.639   2.084   0.281  0.2025  0.2911  0.2169
 4684TIP3    H135543   6.550   2.119   0.286  0.3086  0.5036  0.7195
 4684TIP3    H235544   6.629   1.989   0.293  0.1691  0.4717  1.8713
 4685TIP3   OH235545   4.649   1.424   1.200  0.6154 -0.1097 -0.3533
 4685TIP3    H135546   4.585   1.408   1.269 -1.3325  6.1910 -0.0668
 4685TIP3    H235547   4.598   1.421   1.119  1.2732 -0.5103 -0.7624
 4686TIP3   OH235548   2.560   1.759   1.248  0.3861  0.1770 -0.0187
 4686TIP3    H135549   2.475   1.789   1.216 -1.7834 -1.6832  3.4359
 4686TIP3    H235550   2.597   1.835   1.293 -1.1720  0.1090  1.4797
 4687TIP3   OH235551   1.455   3.526   2.056 -0.1076  0.3284 -0.7674
 4687TIP3    H135552   1.429   3.613   2.023 -1.4565  0.0628 -0.4965
 4687TIP3    H235553   1.397   3.512   2.131  0.6586 -0.4781 -0.3140
 4688TIP3   OH235554   3.062   3.506   3.679 -0.4357 -0.4586  0.0523
 4688TIP3    H135555   2.983   3.482   3.727 -2.6536  1.0748 -2.5360
 4688TIP3    H235556   3.125   3.437   3.699 -2.1425 -1.3517  2.8080
 4689TIP3   OH235557   2.450   1.177  13.273 -0.3955  0.5769  0.2311
 4689TIP3    H135558   2.439   1.120  13.349  0.4020 -2.6619 -1.9047
 4689TIP3    H235559   2.526   1.141  13.227 -0.9930  2.2750 -2.2310
 4690TIP3   OH235560   3.821   6.786  12.442 -0.0124  0.2510  0.1551
 4690TIP3    H135561   3.879   6.737  12.501  0.5745 -1.0554 -1.4032
 4690TIP3    H235562   3.733   6.768  12.473  0.2864 -0.4006  0.6404
 4691TIP3   OH235563   3.962   5.797  16.721 -0.1861  0.5786  0.0226
 4691TIP3    H135564   3.995   5.887  16.717  0.2342  0.4267  0.0704
 4691TIP3    H235565   3.933   5.778  16.632  1.7728 -0.0084 -0.5393
 4692TIP3   OH235566   2.655   6.756  14.761  0.1805  0.0832  0.0054
 4692TIP3    H135567   2.593   6.790  14.696  0.6342 -0.9829 -1.0172
 4692TIP3    H235568   2.620   6.785  14.845 -1.9800 -0.8926 -0.4951
 4693TIP3   OH235569   0.643   2.269  14.975 -0.0165  0.1159  0.0592
 4693TIP3    H135570   0.563   2.249  15.023 -0.9047  0.3780 -1.2415
 4693TIP3    H235571   0.661   2.362  14.993 -0.9562  0.5079 -0.9310
 4694TIP3   OH235572   1.643   5.998  11.155 -0.5909  0.2815  0.2106
 4694TIP3    H135573   1.604   6.006  11.067  0.7012 -3.7122 -0.9698
 4694TIP3    H235574   1.572   5.963  11.209 -0.2148 -1.9914 -0.6287
 4695TIP3   OH235575   6.085   0.552   1.233 -0.3340 -0.2371  0.5931
 4695TIP3    H135576   6.063   0.497   1.309  1.3537 -2.0240 -0.1401
 4695TIP3    H235577   6.178   0.570   1.242 -0.8127  2.6251  0.7906
 4696TIP3   OH235578   5.940   0.951   0.024 -0.0374 -0.0593  0.0649
 4696TIP3    H135579   5.887   0.879  -0.007 -0.8462 -0.2503  1.7600
 4696TIP3    H235580   5.988   0.915   0.099  2.9835 -0.0598 -1.6880
 4697TIP3   OH235581   0.112   4.761   0.875 -0.3078 -0.0668 -0.5037
 4697TIP3    H135582   0.186   4.711   0.841 -0.6659  0.0259 -1.4679
 4697TIP3    H235583   0.077   4.806   0.798 -1.8890 -0.7853 -0.2422
 4698TIP3   OH235584   5.763   4.220  16.093  0.1459 -0.1736  0.3915
 4698TIP3    H135585   5.671   4.205  16.115  0.0830  1.2428  1.2036
 4698TIP3    H235586   5.809   4.203  16.175  0.4937  0.1293  0.2569
 4699TIP3   OH235587   6.417   2.835  14.991  0.5282 -0.8719 -0.0982
 4699TIP3    H135588   6.416   2.739  14.991  0.7693 -0.8851 -1.4273
 4699TIP3    H235589   6.329   2.860  14.961  1.6095 -0.7681 -3.5822
 4700TIP3   OH235590   4.927   4.674   1.415 -0.5164 -0.1287 -0.1637
 4700TIP3    H135591   4.953   4.765   1.433 -0.3655 -0.2462  0.2126
 4700TIP3    H235592   4.960   4.657   1.326  1.9931 -0.7417  0.8068
 4701TIP3   OH235593   4.329   1.135  15.310  0.3535  0.0034 -0.5554
 4701TIP3    H135594   4.308   1.148  15.218  1.9024  0.4892 -0.8696
 4701TIP3    H235595   4.351   1.042  15.316 -3.7592 -1.0953  0.2338
 4702TIP3   OH235596   5.463   4.791  14.367  0.4130  0.3895  0.3610
 4702TIP3    H135597   5.515   4.777  14.288  1.1547  1.6117  0.5969
 4702TIP3    H235598   5.420   4.707  14.383 -1.1842  0.5600 -2.3502
 4703TIP3   OH235599   4.543   4.702  13.740 -0.1560  0.0120 -0.2902
 4703TIP3    H135600   4.567   4.775  13.798 -0.2948 -0.4498  0.3629
 4703TIP3    H235601   4.572   4.624  13.787 -1.5379 -0.4710 -0.1793
 4704TIP3   OH235602   1.446   6.360   1.079  0.0032  0.3686  0.3203
 4704TIP3    H135603   1.387   6.434   1.068  0.5812  0.6232 -1.3597
 4704TIP3    H235604   1.391   6.283   1.061  0.3240  0.6497 -2.1729
 4705TIP3   OH235605   3.717   2.648   5.530 -0.9890  0.1259  0.6080
 4705TIP3    H135606   3.668   2.580   5.484  1.4614 -1.6566  0.4542
 4705TIP3    H235607   3.684   2.730   5.493 -2.5505 -1.0314 -0.7364
 4706TIP3   OH235608   5.662   3.111  16.739 -0.5063 -0.0179 -0.0475
 4706TIP3    H135609   5.579   3.151  16.766 -0.7671 -1.3053  1.1353
 4706TIP3    H235610   5.662   3.118  16.643  0.5801  4.9876 -0.0012
 4707TIP3   OH235611   1.467   3.214  14.072  0.0095 -0.1936 -0.3578
 4707TIP3    H135612   1.523   3.248  14.142  0.1713 -0.5206 -0.3258
 4707TIP3    H235613   1.379   3.214  14.109  0.0800 -0.2682 -0.1915
 4708TIP3   OH235614   5.109   2.909   5.215 -0.7223 -0.2200 -0.1526
 4708TIP3    H135615   5.151   2.825   5.233  0.3500  0.4978  0.7995
 4708TIP3    H235616   5.016   2.894   5.235 -0.4928 -1.0800  0.3127
 4709TIP3   OH235617   0.653   4.404   2.867  0.4631 -0.1410  0.0231
 4709TIP3    H135618   0.648   4.349   2.788  2.2352  0.2814 -0.4213
 4709TIP3    H235619   0.561   4.418   2.892 -0.0621 -2.7758 -0.1911
 4710TIP3   OH235620   3.428   3.177  17.086 -0.0673  1.1149 -0.2665
 4710TIP3    H135621   3.410   3.221  17.002  0.4380  1.3037 -0.2807
 4710TIP3    H235622   3.439   3.249  17.148 -0.8571  0.9673  0.0578
 4711TIP3   OH235623   5.624   5.796  10.762 -0.0585 -0.3118  0.4750
 4711TIP3    H135624   5.673   5.789  10.680 -0.8964  2.3284 -0.3186
 4711TIP3    H235625   5.689   5.825  10.826  0.4370 -1.6945  0.6486
 4712TIP3   OH235626   3.048   5.641   3.200 -0.4469 -0.4458  0.1679
 4712TIP3    H135627   3.087   5.571   3.252  1.2345  0.0473 -0.3804
 4712TIP3    H235628   2.955   5.620   3.198 -0.3173 -1.4099  1.9175
 4713TIP3   OH235629   3.582   1.574  13.488 -0.3262 -0.5951  0.5231
 4713TIP3    H135630   3.666   1.614  13.510 -0.7687 -0.5828  2.4130
 4713TIP3    H235631   3.565   1.514  13.561 -2.0082 -0.5142  0.2290
 4714TIP3   OH235632   2.142   5.114  10.769  0.5320  0.2469 -0.5163
 4714TIP3    H135633   2.120   5.042  10.709  0.7643  1.2372 -1.8282
 4714TIP3    H235634   2.234   5.101  10.790  0.0951 -0.9330  0.8318
 4715TIP3   OH235635   4.748   4.916   2.069  0.1603  0.6314  0.2851
 4715TIP3    H135636   4.765   4.824   2.088  0.4845  0.6093 -0.1023
 4715TIP3    H235637   4.653   4.925   2.077 -0.0024  0.0047 -0.7686
 4716TIP3   OH235638   6.298   6.044   2.752 -0.3389  0.4820 -0.1346
 4716TIP3    H135639   6.269   6.116   2.696  0.8939  2.5064  1.6289
 4716TIP3    H235640   6.236   6.044   2.825  0.0479  0.2303  0.2046
 4717TIP3   OH235641   6.725   1.651   2.436  0.2097  0.6666 -0.1891
 4717TIP3    H135642   6.651   1.685   2.486  0.0705  0.2141 -0.0765
 4717TIP3    H235643   6.685   1.611   2.359  0.2845 -0.0636  0.1424
 4718TIP3   OH235644   4.039   3.286  15.259  0.1999 -0.6713  0.1160
 4718TIP3    H135645   4.099   3.211  15.265 -0.1950 -1.1805 -1.6924
 4718TIP3    H235646   4.056   3.323  15.173 -0.3627  0.7023  0.5762
 4719TIP3   OH235647   6.642   0.026  10.707  0.2667 -0.2915  0.0545
 4719TIP3    H135648   6.552  -0.007  10.713 -0.0191  0.3708 -0.4245
 4719TIP3    H235649   6.634   0.119  10.725  0.8937 -0.2746  0.2334
 4720TIP3   OH235650   6.484   4.536  14.700 -0.2899  0.3668  0.9077
 4720TIP3    H135651   6.474   4.611  14.641 -1.5111  0.5187  1.2687
 4720TIP3    H235652   6.544   4.567  14.768 -0.0087  0.6805  0.5171
 4721TIP3   OH235653   1.177   2.763   3.715 -0.0103 -0.1994 -0.0991
 4721TIP3    H135654   1.190   2.670   3.733 -0.1587 -0.1470  0.2883
 4721TIP3    H235655   1.134   2.766   3.630 -1.4812 -0.5553  0.6049
 4722TIP3   OH235656   5.465   6.359  13.279  0.5497  0.3447 -0.1599
 4722TIP3    H135657   5.417   6.402  13.209 -1.7753 -0.3039  0.9537
 4722TIP3    H235658   5.398   6.315  13.331  2.4854 -1.8660  0.6435
 4723TIP3   OH235659   4.831   4.609   3.076  0.0001 -0.1544 -0.1228
 4723TIP3    H135660   4.922   4.581   3.067 -0.4109 -2.1851  1.5185
 4723TIP3    H235661   4.794   4.554   3.145 -2.2656  1.1866 -0.1397
 4724TIP3   OH235662   1.039   2.372  12.278 -0.4350  0.1818  0.3072
 4724TIP3    H135663   1.062   2.380  12.371  1.1841  0.7753 -0.1058
 4724TIP3    H235664   0.953   2.413  12.270  0.3624  2.1375  1.1799
 4725TIP3   OH235665   6.299   6.158  16.698  0.3302  0.0965  0.4028
 4725TIP3    H135666   6.226   6.149  16.636  0.2729 -1.9554  0.7146
 4725TIP3    H235667   6.378   6.153  16.643  0.2667 -0.0665  0.3267
 4726TIP3   OH235668   1.759   1.354  15.742  0.0135  0.1694  0.1492
 4726TIP3    H135669   1.671   1.357  15.780 -0.1959 -3.2528  0.2450
 4726TIP3    H235670   1.744   1.352  15.648  0.1046  0.9868  0.1089
 4727TIP3   OH235671   6.019   4.080   2.955  0.5690 -0.3013  0.2121
 4727TIP3    H135672   5.953   4.022   2.992 -0.4915  1.0688  0.5605
 4727TIP3    H235673   5.999   4.082   2.861  0.0951  0.1081  0.3167
 4728TIP3   OH235674   2.792   5.024   3.553 -0.1038 -0.1673  0.1380
 4728TIP3    H135675   2.701   5.042   3.528  0.1019  0.1061 -0.4229
 4728TIP3    H235676   2.794   4.930   3.572 -0.4568 -0.2113 -0.0440
 4729TIP3   OH235677   2.817   4.026   3.361  0.0749  0.0111 -0.1780
 4729TIP3    H135678   2.844   3.960   3.425  0.9072 -0.2982 -0.8299
 4729TIP3    H235679   2.763   4.087   3.411 -2.2636 -2.1081  0.0468
 4730TIP3   OH235680   5.012   6.705   4.307 -0.4499  0.2780 -0.3133
 4730TIP3    H135681   4.991   6.685   4.399 -0.8972  0.1477 -0.4402
 4730TIP3    H235682   5.094   6.659   4.290  0.8377  2.0661  0.6674
 4731TIP3   OH235683   1.434   1.810  14.889  0.5435 -0.3274  0.3003
 4731TIP3    H135684   1.381   1.873  14.840 -0.4208  0.2598  2.0257
 4731TIP3    H235685   1.383   1.729  14.887 -0.6487  0.3238  2.2303
 4732TIP3   OH235686   4.833   4.243  12.765  0.3388  0.1548 -0.1257
 4732TIP3    H135687   4.921   4.273  12.787  0.8877 -0.7302 -1.0057
 4732TIP3    H235688   4.774   4.305  12.808  1.2889 -1.1889  3.4632
 4733TIP3   OH235689   2.085   5.011   5.814 -0.9569 -0.0831  0.1686
 4733TIP3    H135690   2.118   4.973   5.733 -0.1323 -0.7231  0.7841
 4733TIP3    H235691   2.082   5.105   5.797  1.4285  0.0571  0.1187
 4734TIP3   OH235692   0.145   2.418  12.604 -0.4038 -0.2206  0.2486
 4734TIP3    H135693   0.143   2.499  12.655  0.5025 -0.4574  0.6778
 4734TIP3    H235694   0.103   2.442  12.521 -0.1773  0.6854  0.3759
 4735TIP3   OH235695   5.451   2.363   0.409  0.4007 -0.2934  0.3825
 4735TIP3    H135696   5.487   2.275   0.413  1.6007  0.1677  0.1179
 4735TIP3    H235697   5.520   2.419   0.446  0.5296  0.7797 -1.3702
 4736TIP3   OH235698   3.441   5.377   3.833  0.0638  0.0852  0.5979
 4736TIP3    H135699   3.420   5.470   3.838 -0.0374  0.5665 -4.2810
 4736TIP3    H235700   3.523   5.368   3.882 -1.4508  1.9874  3.7598
 4737TIP3   OH235701   4.293   3.508   0.137  0.3883  0.1000 -0.0973
 4737TIP3    H135702   4.246   3.493   0.220  0.6671 -1.3137 -0.1749
 4737TIP3    H235703   4.363   3.443   0.137  0.8414  0.5711 -1.1231
 4738TIP3   OH235704   5.233   3.991   0.344 -0.5379 -0.4234  0.4515
 4738TIP3    H135705   5.309   4.048   0.353  0.1305 -1.5339  2.6631
 4738TIP3    H235706   5.224   3.977   0.250  3.7236 -2.3725  0.0766
 4739TIP3   OH235707   6.076   3.804  14.937 -0.5228 -0.2151 -0.3053
 4739TIP3    H135708   6.107   3.714  14.940  0.3924  0.0099 -1.6607
 4739TIP3    H235709   6.049   3.817  14.846 -2.1836  0.4072  0.2398
 4740TIP3   OH235710   1.060   0.184   3.050  0.2686 -0.1668 -0.1352
 4740TIP3    H135711   1.105   0.100   3.045 -0.0831 -0.2686 -2.4102
 4740TIP3    H235712   1.012   0.192   2.968  0.2872  2.2656 -0.0044
 4741TIP3   OH235713   5.824   3.341  16.002 -0.2120  0.7905  0.9674
 4741TIP3    H135714   5.880   3.266  15.983 -0.3114  0.9617 -0.0496
 4741TIP3    H235715   5.869   3.416  15.962 -1.9907  0.6698 -1.4922
 4742TIP3   OH235716   6.754   3.581  13.834  0.0496  0.4892  0.0404
 4742TIP3    H135717   6.668   3.548  13.809 -0.0966  0.8023  0.1279
 4742TIP3    H235718   6.748   3.594  13.928  0.0764  0.8523 -0.0076
 4743TIP3   OH235719   2.188   6.391  14.493  0.1363 -0.0417  0.1872
 4743TIP3    H135720   2.141   6.444  14.556 -1.0099 -0.7923 -0.0021
 4743TIP3    H235721   2.240   6.453  14.442  0.6381  0.6250  1.4844
 4744TIP3   OH235722   6.331   5.830   1.640 -0.4294  0.3678 -0.1592
 4744TIP3    H135723   6.285   5.912   1.660 -1.2113  0.3657 -1.8267
 4744TIP3    H235724   6.261   5.769   1.617  0.1795 -0.6666  0.6497
 4745TIP3   OH235725   1.685   5.454   6.637  0.0209  0.6471  0.2997
 4745TIP3    H135726   1.677   5.547   6.613 -0.1179  0.5270 -0.1166
 4745TIP3    H235727   1.642   5.407   6.566  2.8541  0.0740 -1.1842
 4746TIP3   OH235728   2.152   0.355  14.123 -0.1332  0.6262  0.0958
 4746TIP3    H135729   2.122   0.273  14.084 -0.5808  1.6998 -1.9978
 4746TIP3    H235730   2.072   0.405  14.137  0.0664  0.4369  2.1027
 4747TIP3   OH235731   6.700   6.125  15.888 -0.7655  0.7698 -0.0375
 4747TIP3    H135732   6.788   6.159  15.901 -1.0270  0.9574  1.4169
 4747TIP3    H235733   6.709   6.059  15.819  1.0204 -1.0439  1.7996
 4748TIP3   OH235734   1.652   4.904  14.142  0.3004  0.1051  0.1828
 4748TIP3    H135735   1.598   4.835  14.105  0.1419  0.7282 -0.7806
 4748TIP3    H235736   1.640   4.896  14.237 -4.0281  2.1181  0.0470
 4749TIP3   OH235737   1.088   4.803   3.478  0.0075 -0.1649 -0.1681
 4749TIP3    H135738   1.083   4.772   3.569  2.5888  0.7636  0.3860
 4749TIP3    H235739   1.081   4.724   3.425  0.8793 -1.0481  0.9787
 4750TIP3   OH235740   2.962   2.887   3.457 -0.5975 -0.3403  0.1304
 4750TIP3    H135741   2.889   2.932   3.413 -1.0980 -2.1125 -0.9505
 4750TIP3    H235742   3.039   2.941   3.437 -1.2647  0.3944 -0.5429
 4751TIP3   OH235743   0.534   5.779  16.491  0.0565 -0.0621 -0.8166
 4751TIP3    H135744   0.616   5.731  16.480  0.4175  0.5701 -0.9360
 4751TIP3    H235745   0.558   5.871  16.477 -0.0714  0.4900  2.0347
 4752TIP3   OH235746   0.282   3.677   2.531 -0.0783 -0.4289 -0.0142
 4752TIP3    H135747   0.337   3.643   2.601  0.2133  1.8916  0.9467
 4752TIP3    H235748   0.342   3.692   2.458 -0.3647 -2.7311 -0.8336
 4753TIP3   OH235749   3.147   3.995  12.642  0.3031 -0.4024 -1.0047
 4753TIP3    H135750   3.216   4.060  12.631  2.4156 -2.3614 -0.0758
 4753TIP3    H235751   3.111   3.983  12.554  2.4364 -0.6463 -1.8874
 4754TIP3   OH235752   3.590   2.828   2.987 -0.7655 -0.1278 -0.1959
 4754TIP3    H135753   3.624   2.821   2.897 -1.5978 -0.4170 -0.4949
 4754TIP3    H235754   3.593   2.739   3.020 -0.5114 -0.0290  0.0454
 4755TIP3   OH235755   6.593   4.175   0.814  0.4118 -0.6279  0.1618
 4755TIP3    H135756   6.595   4.269   0.795 -1.4931 -0.4381  0.6940
 4755TIP3    H235757   6.570   4.134   0.730 -2.2048 -0.2746  0.6167
 4756TIP3   OH235758   0.579   3.084  10.989  0.0480  0.3237 -0.3800
 4756TIP3    H135759   0.503   3.065  11.046  0.2016 -0.1993 -0.3383
 4756TIP3    H235760   0.542   3.132  10.916 -0.2520  0.4911 -0.1240
 4757TIP3   OH235761   1.338   2.374  14.589  0.1522 -0.0293  0.5602
 4757TIP3    H135762   1.393   2.328  14.526  0.9484 -1.2953  2.1068
 4757TIP3    H235763   1.398   2.397  14.661 -0.7697  1.1515  0.9881
 4758TIP3   OH235764   4.393   1.379   2.948 -0.0304  0.1093 -0.2196
 4758TIP3    H135765   4.483   1.347   2.941  0.2876  0.8621  0.2945
 4758TIP3    H235766   4.352   1.322   3.012 -0.0561 -0.5202 -0.7873
 4759TIP3   OH235767   5.852   1.986  15.637 -0.5590 -0.2355 -0.7415
 4759TIP3    H135768   5.902   2.066  15.657 -1.2445 -0.2618  1.2935
 4759TIP3    H235769   5.815   2.002  15.550 -1.8584  2.3063  0.1811
 4760TIP3   OH235770   4.284   2.130  15.321 -0.8299 -0.0966 -0.1761
 4760TIP3    H135771   4.342   2.063  15.285  1.0791  0.7481  1.1452
 4760TIP3    H235772   4.233   2.084  15.388 -1.8020 -0.8578 -1.3848
 4761TIP3   OH235773   1.484   6.186   0.834 -0.6670  0.2116  0.2644
 4761TIP3    H135774   1.417   6.125   0.864 -0.5403 -0.0794 -0.0377
 4761TIP3    H235775   1.456   6.211   0.746 -0.3936  0.1076  0.1474
 4762TIP3   OH235776   6.461   1.233   3.515 -1.2456 -0.5680 -0.2019
 4762TIP3    H135777   6.376   1.276   3.514 -0.7318  0.4804 -1.7683
 4762TIP3    H235778   6.448   1.154   3.462 -0.9150  0.3370 -1.6875
 4763TIP3   OH235779   2.596   2.961   5.982  0.5347 -0.7813 -0.9280
 4763TIP3    H135780   2.514   3.010   5.975  0.7634 -0.5146 -1.9890
 4763TIP3    H235781   2.572   2.879   6.024 -0.2641 -0.6720 -1.1651
 4764TIP3   OH235782   0.035   5.782   0.673  0.8471  0.4265  0.7967
 4764TIP3    H135783   0.046   5.735   0.591  0.0826  0.3761  0.7169
 4764TIP3    H235784  -0.057   5.767   0.697  0.9537  0.7815  1.4444
 4765TIP3   OH235785   6.637   6.510   3.942 -0.7735  0.2844  0.0008
 4765TIP3    H135786   6.671   6.544   3.859 -1.3684  0.3240 -0.2390
 4765TIP3    H235787   6.700   6.537   4.008 -1.2358  1.8832 -0.1695
 4766TIP3   OH235788   1.319   5.286  14.612 -0.5806  0.1117 -0.4504
 4766TIP3    H135789   1.276   5.260  14.693  0.3761  0.7111  0.2572
 4766TIP3    H235790   1.290   5.221  14.548 -1.2514 -0.4307  0.3875
 4767TIP3   OH235791   2.511   3.172  12.155  0.3783  0.0825 -0.3961
 4767TIP3    H135792   2.497   3.183  12.249 -1.6203 -0.1495 -0.6350
 4767TIP3    H235793   2.591   3.119  12.150 -0.2558 -1.1287  1.2264
 4768TIP3   OH235794   6.139   6.252   0.283 -0.2520  0.0120  0.1767
 4768TIP3    H135795   6.176   6.307   0.351 -1.9940  2.1753 -0.4776
 4768TIP3    H235796   6.175   6.287   0.201  1.7914 -2.5214 -0.1205
 4769TIP3   OH235797   3.877   4.918   5.573  0.0136  0.5274 -0.3441
 4769TIP3    H135798   3.849   4.827   5.581  1.1563  0.2320  0.5540
 4769TIP3    H235799   3.953   4.915   5.515  1.3447  0.5909  1.3092
 4770TIP3   OH235800   0.223   4.333  11.800 -0.1205  0.6172 -0.2171
 4770TIP3    H135801   0.190   4.330  11.710 -2.6736 -1.0563  0.6609
 4770TIP3    H235802   0.276   4.254  11.808 -1.8171 -0.5035  0.3561
 4771TIP3   OH235803   2.801   5.126  17.140  0.4322  0.6524  0.3267
 4771TIP3    H135804   2.801   5.219  17.161  0.3121  0.3016  2.0067
 4771TIP3    H235805   2.708   5.105  17.128  0.4562  0.7323 -0.0145
 4772TIP3   OH235806   6.052   0.976  16.597  0.2726 -0.2311  0.4006
 4772TIP3    H135807   6.127   1.025  16.562 -0.3603 -0.0604 -0.7566
 4772TIP3    H235808   5.983   0.988  16.532 -0.9416  0.0442  1.6914
 4773TIP3   OH235809   3.494   6.524   0.742  0.6002 -0.1587 -0.6620
 4773TIP3    H135810   3.504   6.554   0.652  0.4674  2.5153  0.1340
 4773TIP3    H235811   3.583   6.509   0.773  0.5969 -2.8754 -1.6995
 4774TIP3   OH235812   4.337   5.450   4.458 -0.5258  0.4355  0.1064
 4774TIP3    H135813   4.388   5.397   4.398  0.1123  2.0489 -0.8519
 4774TIP3    H235814   4.256   5.470   4.410 -0.6308  0.5678  0.3352
 4775TIP3   OH235815   0.038   3.379   0.203 -0.3011  0.2160 -0.4063
 4775TIP3    H135816   0.079   3.357   0.286  0.3540  1.9767 -0.2143
 4775TIP3    H235817   0.071   3.314   0.141 -0.8030 -1.1183  0.6842
 4776TIP3   OH235818   4.418   1.829  11.025  0.0848  0.2125 -0.0634
 4776TIP3    H135819   4.394   1.831  10.932  0.7297 -0.0208 -0.2390
 4776TIP3    H235820   4.359   1.764  11.063 -0.2553  0.3854 -0.2869
 4777TIP3   OH235821   2.175   5.269   6.154  0.1109 -0.2514  0.4209
 4777TIP3    H135822   2.255   5.224   6.126 -0.3280 -0.4887 -0.4972
 4777TIP3    H235823   2.141   5.216   6.226  0.8952 -0.0142  0.9864
 4778TIP3   OH235824   1.662   5.904  13.231  0.6327  0.0512  0.2890
 4778TIP3    H135825   1.722   5.833  13.210 -1.3064 -1.2359 -1.2378
 4778TIP3    H235826   1.641   5.891  13.324 -1.1601 -2.6447 -0.3975
 4779TIP3   OH235827   5.845   0.347  11.873  0.9156 -0.2290  0.5776
 4779TIP3    H135828   5.881   0.410  11.811  0.7556  0.0426  0.7629
 4779TIP3    H235829   5.916   0.329  11.934  0.7915  0.1768  0.8419
 4780TIP3   OH235830   1.673   1.202   2.816 -0.4104  0.0245  0.4036
 4780TIP3    H135831   1.603   1.228   2.755  0.7642 -1.8125 -1.9170
 4780TIP3    H235832   1.687   1.109   2.796  3.2601  0.5136  0.1012
 4781TIP3   OH235833   0.091   0.549  14.177 -0.2345  0.4395  0.3111
 4781TIP3    H135834   0.071   0.533  14.085 -0.2765 -2.0614  0.6829
 4781TIP3    H235835   0.172   0.500  14.193  0.2597  1.5504  1.4187
 4782TIP3   OH235836   3.099   2.513   5.061  0.7236  0.4448  0.4657
 4782TIP3    H135837   3.075   2.463   4.983  0.3501  1.4570 -0.0816
 4782TIP3    H235838   3.016   2.544   5.096  0.9803  1.1516  0.4722
 4783TIP3   OH235839   6.777   6.084   1.636  0.0257 -0.2208 -0.2064
 4783TIP3    H135840   6.793   5.994   1.608 -0.4636 -0.2436 -0.4077
 4783TIP3    H235841   6.708   6.077   1.702 -1.3870  0.1837 -1.5831
 4784TIP3   OH235842   0.848   4.098   5.438  0.1217 -0.3488  0.1874
 4784TIP3    H135843   0.780   4.031   5.428  0.6616 -0.9662  0.5739
 4784TIP3    H235844   0.930   4.050   5.426  0.5212  0.2081  0.6593
 4785TIP3   OH235845   4.258   0.094   1.550  0.2777  0.7946  0.4352
 4785TIP3    H135846   4.170   0.056   1.554  0.4585  0.4024  0.9376
 4785TIP3    H235847   4.264   0.132   1.463 -0.5369  1.1896  0.5341
 4786TIP3   OH235848   1.896   2.376  16.098 -0.1079  0.0254 -0.1716
 4786TIP3    H135849   1.826   2.323  16.061 -0.4609 -0.0579  0.5933
 4786TIP3    H235850   1.883   2.370  16.193  0.4610  0.6485 -0.0463
 4787TIP3   OH235851   3.880   2.703   0.778 -0.9474 -0.0201 -0.6870
 4787TIP3    H135852   3.933   2.727   0.702 -0.4992 -1.1294 -0.7537
 4787TIP3    H235853   3.792   2.733   0.756 -0.6674  0.3639 -1.3050
 4788TIP3   OH235854   0.102   3.760  14.017 -0.2685  0.0007 -0.2260
 4788TIP3    H135855   0.126   3.781  14.108 -0.7091  0.6304 -0.2481
 4788TIP3    H235856   0.014   3.725  14.024  0.2333 -1.3011 -0.2624
 4789TIP3   OH235857   1.654   4.257   6.223 -0.0269  0.2291 -0.0995
 4789TIP3    H135858   1.706   4.217   6.153 -0.2767  0.0139 -0.1601
 4789TIP3    H235859   1.692   4.224   6.304 -0.4543 -0.4027 -0.1553
 4790TIP3   OH235860   0.989   6.837   0.598  0.4577  0.4645  0.0190
 4790TIP3    H135861   1.063   6.777   0.603  0.1937  0.2090  1.2889
 4790TIP3    H235862   0.941   6.809   0.520  1.4446  0.3432 -0.5549
 4791TIP3   OH235863   3.541   0.925   2.360  0.3512 -0.0868  0.3999
 4791TIP3    H135864   3.537   0.830   2.346 -2.1214  0.0981 -0.6651
 4791TIP3    H235865   3.567   0.960   2.275 -0.0152  0.2718  0.4358
 4792TIP3   OH235866   1.731   6.674   0.209 -0.8569 -0.2348  0.2173
 4792TIP3    H135867   1.772   6.751   0.169 -1.9857 -0.0035 -0.5508
 4792TIP3    H235868   1.709   6.702   0.298  0.6824 -0.3941  0.6791
 4793TIP3   OH235869   3.779   5.889   2.009  0.0651 -0.0369 -0.1694
 4793TIP3    H135870   3.712   5.924   2.067 -0.6142  0.9746 -1.4934
 4793TIP3    H235871   3.850   5.953   2.013 -0.7005  0.9788 -1.7108
 4794TIP3   OH235872   3.488   5.467  11.446  0.1457  0.3976 -1.1085
 4794TIP3    H135873   3.490   5.562  11.457  1.2356  0.1744  1.2329
 4794TIP3    H235874   3.578   5.444  11.421 -0.0735 -0.0377 -1.5034
 4795TIP3   OH235875   4.082   2.859  12.751 -0.7057  0.6592 -0.1639
 4795TIP3    H135876   4.075   2.951  12.724  0.3160  1.1778  1.1545
 4795TIP3    H235877   4.004   2.844  12.804  0.6355  1.8443  2.3433
 4796TIP3   OH235878   5.555   1.800   5.006  0.2726  0.2513 -0.3757
 4796TIP3    H135879   5.540   1.764   5.093 -1.8605  0.8907 -0.4297
 4796TIP3    H235880   5.623   1.744   4.968  2.6736  1.0839  2.3219
 4797TIP3   OH235881   0.549   3.559  10.468  0.3950  0.1755 -0.0625
 4797TIP3    H135882   0.530   3.613  10.546  1.0707  0.9772 -0.4437
 4797TIP3    H235883   0.644   3.551  10.467  0.4302  0.5772 -1.0688
 4798TIP3   OH235884   4.778   4.642  16.330  0.0963 -0.2896  0.0409
 4798TIP3    H135885   4.686   4.643  16.357 -0.1960  0.7184 -0.9257
 4798TIP3    H235886   4.817   4.571  16.382 -1.3958 -1.2902 -0.1303
 4799TIP3   OH235887   0.575   5.559  15.577  0.1814 -0.0886 -0.2312
 4799TIP3    H135888   0.651   5.596  15.532 -0.4813  1.3978 -0.2019
 4799TIP3    H235889   0.582   5.465  15.563  1.4530  0.1106 -1.1174
 4800TIP3   OH235890   1.006   0.329   3.995 -0.1514  0.0130 -0.2824
 4800TIP3    H135891   1.099   0.306   3.999 -0.1888 -0.4729 -1.5298
 4800TIP3    H235892   0.981   0.346   4.085  0.3889 -2.9137  0.5271
 4801TIP3   OH235893   4.402   1.877  17.062  0.3838 -0.0059  0.0981
 4801TIP3    H135894   4.429   1.923  16.983 -1.6744  0.5724 -0.3206
 4801TIP3    H235895   4.374   1.790  17.031  0.7000 -0.2026  0.3587
 4802TIP3   OH235896   1.501   0.110   3.834  0.2115 -0.3929  0.3480
 4802TIP3    H135897   1.483   0.200   3.807 -0.8238 -0.9450 -0.9353
 4802TIP3    H235898   1.596   0.102   3.829  0.1843  0.0336 -1.5979
 4803TIP3   OH235899   1.772   1.872   1.856 -0.8415  0.0825  0.0126
 4803TIP3    H135900   1.730   1.786   1.845 -0.9779 -0.0367  1.2639
 4803TIP3    H235901   1.865   1.855   1.841 -0.9461 -0.1513 -0.3887
 4804TIP3   OH235902   4.363   5.013  10.734  0.4024 -0.2266  0.1175
 4804TIP3    H135903   4.270   4.991  10.732 -0.1948  2.0027  0.0519
 4804TIP3    H235904   4.373   5.078  10.663  1.7068  0.5732  0.9925
 4805TIP3   OH235905   0.559   2.642   4.689 -0.1436  0.0172  0.4571
 4805TIP3    H135906   0.650   2.648   4.718 -0.8681  2.4041  2.6204
 4805TIP3    H235907   0.561   2.668   4.596  1.2223  1.9981  0.9733
 4806TIP3   OH235908   1.564   1.714   0.208  0.0453 -0.3398 -0.5483
 4806TIP3    H135909   1.579   1.805   0.180  0.7272  0.0127  0.8951
 4806TIP3    H235910   1.482   1.717   0.257  0.8913 -0.1621  0.9027
 4807TIP3   OH235911   0.295   6.422   5.590 -0.1093  0.2524  0.1281
 4807TIP3    H135912   0.342   6.347   5.555 -0.2523 -0.1282  0.7266
 4807TIP3    H235913   0.323   6.496   5.537 -0.5736 -0.3567 -0.9989
 4808TIP3   OH235914   4.394   6.555  12.312 -0.3682  0.0685 -0.2756
 4808TIP3    H135915   4.326   6.545  12.245 -0.2285  0.0656 -0.4168
 4808TIP3    H235916   4.407   6.467  12.347 -1.4870  0.2945  0.7817
 4809TIP3   OH235917   5.485   1.411  15.532  0.0105 -1.0459 -0.0333
 4809TIP3    H135918   5.457   1.485  15.477  0.8337  1.1388  2.2625
 4809TIP3    H235919   5.404   1.368  15.557 -0.5298 -0.7147 -1.1326
 4810TIP3   OH235920   1.073   0.439   3.197 -0.2765 -0.4216  0.0621
 4810TIP3    H135921   1.067   0.349   3.164 -1.0545 -0.7545  1.0893
 4810TIP3    H235922   0.985   0.461   3.224  0.5188 -0.6417  3.1438
 4811TIP3   OH235923   2.002   2.406   2.903 -0.0361 -0.3905 -0.1504
 4811TIP3    H135924   1.985   2.351   2.826  1.0662 -0.2293 -0.5258
 4811TIP3    H235925   1.952   2.486   2.887  1.4184  0.3085 -1.4991
 4812TIP3   OH235926   4.955   2.693   0.197  0.8001  0.0378 -0.2429
 4812TIP3    H135927   4.963   2.726   0.107  2.2897  0.8975  0.1738
 4812TIP3    H235928   5.045   2.684   0.227  0.3340 -1.0130  0.9057
 4813TIP3   OH235929   5.669   5.805  13.324  0.5868  0.1689  0.9047
 4813TIP3    H135930   5.602   5.771  13.384  0.4856  1.7978  1.7703
 4813TIP3    H235931   5.736   5.843  13.381  1.4427  0.0406  0.0121
 4814TIP3   OH235932   5.915   2.991   0.495  0.0258 -0.1110 -0.9113
 4814TIP3    H135933   5.966   3.002   0.575 -3.3239 -0.2768  1.4391
 4814TIP3    H235934   5.901   3.080   0.463 -0.6709  0.1623  0.1156
 4815TIP3   OH235935   5.034   1.297  16.128  0.1930  0.2350  0.3120
 4815TIP3    H135936   5.073   1.233  16.188  0.1951  0.4580  0.5495
 4815TIP3    H235937   4.948   1.261  16.106  0.4490 -0.1664 -0.0635
 4816TIP3   OH235938   3.749   2.236  11.616  0.4216  0.2095  0.3469
 4816TIP3    H135939   3.828   2.209  11.569 -1.0153 -1.3326 -1.3323
 4816TIP3    H235940   3.782   2.272  11.699  2.8228 -1.3137  0.1677
 4817TIP3   OH235941   2.602   3.788   3.402  0.6287 -0.2961  0.0720
 4817TIP3    H135942   2.572   3.878   3.392  3.0227  0.3635 -2.0895
 4817TIP3    H235943   2.686   3.795   3.448 -0.3759 -1.7267  2.3082
 4818TIP3   OH235944   0.470   1.767  17.068  0.2420  0.1223 -0.2170
 4818TIP3    H135945   0.475   1.792  17.160  2.0992 -0.2650 -0.1831
 4818TIP3    H235946   0.544   1.811  17.027  0.7116 -1.3925 -1.0892
 4819TIP3   OH235947   1.969   2.605  14.227  0.6498  0.4264  0.0426
 4819TIP3    H135948   1.883   2.644  14.207  0.5907  1.2226  1.6378
 4819TIP3    H235949   2.014   2.673  14.278  2.4052  0.1756 -1.1127
 4820TIP3   OH235950   4.464   3.064  10.677  0.3717 -0.5490  0.4649
 4820TIP3    H135951   4.449   2.991  10.617 -1.8077 -0.0590  0.3149
 4820TIP3    H235952   4.427   3.035  10.760  1.0214 -0.2387  0.8679
 4821TIP3   OH235953   5.499   5.122   4.778  0.5588  0.1417  0.3440
 4821TIP3    H135954   5.434   5.168   4.830 -0.7958 -0.5639 -0.6715
 4821TIP3    H235955   5.512   5.176   4.700  0.0739 -0.4464 -0.1508
 4822TIP3   OH235956   1.467   2.644  14.147 -0.0148 -0.2101  0.0238
 4822TIP3    H135957   1.400   2.588  14.108  0.9769 -0.8397 -0.8121
 4822TIP3    H235958   1.434   2.662  14.235 -0.3235 -2.1877  0.3658
 4823TIP3   OH235959   2.609   0.845  12.344  0.0114 -0.4123  0.0732
 4823TIP3    H135960   2.672   0.801  12.400  0.3200 -0.1484 -0.0592
 4823TIP3    H235961   2.538   0.783  12.333 -0.7841  0.1036  2.0220
 4824TIP3   OH235962   5.998   1.355   5.729 -0.4408  0.0905  0.1675
 4824TIP3    H135963   5.949   1.427   5.768 -1.3214  0.5312 -1.6732
 4824TIP3    H235964   5.931   1.290   5.705 -0.0712  0.2638 -1.4667
 4825TIP3   OH235965   6.610   5.277   1.347 -0.0451 -0.3925 -0.1985
 4825TIP3    H135966   6.638   5.326   1.424  2.3193 -0.1105 -1.1532
 4825TIP3    H235967   6.548   5.213   1.381  0.5960 -0.0022  1.8604
 4826TIP3   OH235968   2.103   4.005  16.768 -0.3714  0.3161 -0.1312
 4826TIP3    H135969   2.015   3.983  16.739 -0.0785 -1.0519 -0.0653
 4826TIP3    H235970   2.153   4.017  16.687 -0.5577  0.8543 -0.1682
 4827TIP3   OH235971   5.891   4.110  15.483 -0.4510  1.1944 -0.0479
 4827TIP3    H135972   5.978   4.085  15.452 -0.8018  0.6341 -0.6218
 4827TIP3    H235973   5.878   4.060  15.563 -1.4291 -1.1422 -1.5550
 4828TIP3   OH235974   4.367   6.505   4.417  0.1146  0.2920  0.2900
 4828TIP3    H135975   4.382   6.598   4.430  0.2832  0.4310 -0.7530
 4828TIP3    H235976   4.430   6.480   4.349 -0.2723 -0.4661  0.1957
 4829TIP3   OH235977   0.908   6.482  14.949 -0.4664 -0.0563  0.2356
 4829TIP3    H135978   0.942   6.393  14.945 -1.4902 -0.4716  0.3487
 4829TIP3    H235979   0.931   6.521  14.865 -0.2724 -0.5279  0.0656
 4830TIP3   OH235980   5.581   0.079   5.084  0.0368 -0.3211 -0.0138
 4830TIP3    H135981   5.520   0.148   5.108 -1.3986 -1.1022 -1.2604
 4830TIP3    H235982   5.527   0.011   5.045  1.5256 -1.7377  0.2568
 4831TIP3   OH235983   3.467   1.221   5.846 -0.0416 -0.1658  0.6484
 4831TIP3    H135984   3.560   1.201   5.847  0.3570  1.5301  0.5655
 4831TIP3    H235985   3.463   1.317   5.854 -1.7878 -0.2456  1.1746
 4832TIP3   OH235986   3.359   3.161  16.790  0.0210  0.0550 -0.2095
 4832TIP3    H135987   3.403   3.077  16.791 -0.7211 -0.3528 -0.8971
 4832TIP3    H235988   3.429   3.225  16.804  0.5031 -0.6992  0.9520
 4833TIP3   OH235989   1.098   5.600   0.469 -0.3398 -0.4404  0.3821
 4833TIP3    H135990   1.043   5.522   0.461  1.0089 -1.4669  0.8293
 4833TIP3    H235991   1.156   5.581   0.543  0.5652  0.6404 -0.0259
 4834TIP3   OH235992   0.790   2.352   5.574  0.1529  0.4111  0.0212
 4834TIP3    H135993   0.705   2.313   5.595  0.2246  0.4421  0.3823
 4834TIP3    H235994   0.775   2.446   5.582 -0.1988  0.5069 -1.5237
 4835TIP3   OH235995   1.996   6.094   2.029 -0.0952  0.4977  0.2582
 4835TIP3    H135996   1.913   6.051   2.048  0.9322 -1.5747  0.3355
 4835TIP3    H235997   2.054   6.023   2.002  1.3080  2.0498 -1.0278
 4836TIP3   OH235998   0.470   0.246   0.577  0.3739 -0.1586 -0.2647
 4836TIP3    H135999   0.555   0.287   0.560  0.0086  0.4838 -0.5360
 4836TIP3    H236000   0.484   0.154   0.554  0.9724 -0.0432 -0.3927
 4837TIP3   OH236001   2.357   1.916  11.106  0.0545 -0.4765 -0.2524
 4837TIP3    H136002   2.343   2.010  11.113  0.7075 -0.3471 -0.6234
 4837TIP3    H236003   2.443   1.901  11.147 -0.2387 -0.9717  0.2002
 4838TIP3   OH236004   2.518   4.676  17.043 -0.4074  0.0402 -0.0934
 4838TIP3    H136005   2.464   4.621  16.986  2.7120 -1.3839 -1.9165
 4838TIP3    H236006   2.492   4.766  17.021 -0.4733 -0.5318 -2.5882
 4839TIP3   OH236007   6.140   5.571   2.326  0.0456  0.0826  0.7500
 4839TIP3    H136008   6.059   5.606   2.289 -0.2240 -2.1800 -1.0301
 4839TIP3    H236009   6.171   5.640   2.385 -2.5744  1.4709  0.6636
 4840TIP3   OH236010   0.235   1.035  14.891 -0.2530 -0.2677  0.3522
 4840TIP3    H136011   0.275   0.949  14.882  0.9984  0.3484 -0.2148
 4840TIP3    H236012   0.259   1.063  14.980  1.1111  0.3392 -0.1851
 4841TIP3   OH236013   4.951   6.615  15.681 -0.4433 -0.3950 -0.3750
 4841TIP3    H136014   5.029   6.659  15.714 -0.1257 -1.8360  0.9204
 4841TIP3    H236015   4.983   6.531  15.648 -1.1822 -0.1840 -1.7317
 4842TIP3   OH236016   1.037   3.217  16.814  0.4277  0.2521  0.1507
 4842TIP3    H136017   1.117   3.174  16.845 -1.2124 -1.5988  2.1583
 4842TIP3    H236018   1.050   3.309  16.834  2.5036  0.1718 -0.6524
 4843TIP3   OH236019   3.565   0.899   3.865  0.1632  0.0251  0.6600
 4843TIP3    H136020   3.547   0.983   3.905 -0.2921  0.2607 -0.0130
 4843TIP3    H236021   3.660   0.894   3.858  0.2630 -0.1013  1.9046
 4844TIP3   OH236022   5.955   4.091   0.900  0.0121 -0.4937 -0.4101
 4844TIP3    H136023   5.950   4.158   0.831 -0.2255 -0.3640 -0.2683
 4844TIP3    H236024   6.048   4.069   0.905  0.0784 -0.2422 -0.5248
 4845TIP3   OH236025   3.021   6.192   3.862  0.4865  0.5310 -0.8214
 4845TIP3    H136026   2.988   6.210   3.774 -0.9562 -2.0272 -0.8879
 4845TIP3    H236027   2.970   6.248   3.920  2.0508  2.8990 -1.5871
 4846TIP3   OH236028   4.908   5.158  15.221 -1.2078 -0.1586 -0.1897
 4846TIP3    H136029   4.977   5.127  15.163 -0.2849  0.3102  0.6243
 4846TIP3    H236030   4.953   5.180  15.303 -1.7658  3.2925 -0.6633
 4847TIP3   OH236031   4.087   3.497   0.350  0.1929  0.4427  0.2923
 4847TIP3    H136032   4.064   3.407   0.372  1.0794  0.4132  1.2155
 4847TIP3    H236033   4.003   3.541   0.336 -0.2537 -0.4723  0.0462
 4848TIP3   OH236034   2.575   0.057   0.108  1.0235  0.1463  0.0431
 4848TIP3    H136035   2.628  -0.020   0.125 -0.7386 -0.5199  3.2204
 4848TIP3    H236036   2.629   0.130   0.138  1.0535 -0.2797  1.0367
 4849TIP3   OH236037   4.907   2.581   2.936  0.0297  0.3344  0.0979
 4849TIP3    H136038   4.842   2.607   2.871 -0.2801 -2.2100 -0.7312
 4849TIP3    H236039   4.886   2.633   3.014 -0.9834  1.8299 -1.1238
 4850TIP3   OH236040   4.241   5.515  13.265 -0.2812  0.7489  0.7302
 4850TIP3    H136041   4.245   5.595  13.316 -1.5606  0.7873  0.8126
 4850TIP3    H236042   4.171   5.464  13.307  0.2792 -0.2594  0.4733
 4851TIP3   OH236043   0.503   3.137  11.689 -0.0300 -0.1587 -0.4038
 4851TIP3    H136044   0.436   3.084  11.733 -1.9742  1.6443 -1.0139
 4851TIP3    H236045   0.478   3.228  11.708  0.7694  0.6151 -2.6982
 4852TIP3   OH236046   1.344   4.851  16.116  0.3253  0.4803  0.5778
 4852TIP3    H136047   1.438   4.834  16.118  0.3515 -0.1757 -2.2987
 4852TIP3    H236048   1.317   4.849  16.208  3.0290  0.3031  1.4423
 4853TIP3   OH236049   4.209   0.194   5.236  0.2760  0.1144 -0.1052
 4853TIP3    H136050   4.189   0.212   5.328  0.2307 -1.2763  0.1828
 4853TIP3    H236051   4.302   0.215   5.227  0.2721  0.2979  0.2510
 4854TIP3   OH236052   6.225   3.543  13.822 -0.2163  0.6353 -0.1982
 4854TIP3    H136053   6.270   3.536  13.738 -1.3204  0.7380 -0.8098
 4854TIP3    H236054   6.185   3.457  13.835 -1.1815  1.0371 -0.4450
 4855TIP3   OH236055   2.119   4.824  13.402 -0.1749 -0.1343 -0.2199
 4855TIP3    H136056   2.162   4.750  13.360  1.3344 -0.0237  1.0471
 4855TIP3    H236057   2.189   4.887  13.420 -1.1426  0.8421  0.3123
 4856TIP3   OH236058   0.150   5.913  11.134 -0.2421 -0.6748  1.2577
 4856TIP3    H136059   0.083   5.857  11.094 -0.7505  0.3754  0.6010
 4856TIP3    H236060   0.232   5.865  11.122  0.1656  0.7083 -3.6787
 4857TIP3   OH236061   1.289   2.435  13.624  0.0005  0.5485 -0.1376
 4857TIP3    H136062   1.300   2.350  13.582  1.3858  1.3723 -1.5451
 4857TIP3    H236063   1.213   2.473  13.581 -1.2249 -0.3207  1.1718
 4858TIP3   OH236064   1.987   2.280  12.301  0.0772  0.2104  0.2184
 4858TIP3    H136065   1.960   2.280  12.209  0.9944 -0.7549 -0.0716
 4858TIP3    H236066   1.982   2.371  12.328 -2.2872  0.2461 -0.1496
 4859TIP3   OH236067   0.365   5.123  16.209 -0.4384 -0.2149  0.1108
 4859TIP3    H136068   0.410   5.064  16.269  0.6958 -1.0825 -1.5257
 4859TIP3    H236069   0.434   5.160  16.155 -1.2661  1.7632  0.3240
 4860TIP3   OH236070   6.023   2.809   5.882  0.0845 -0.8367  0.4036
 4860TIP3    H136071   6.016   2.724   5.926 -1.7046 -1.0181 -0.1446
 4860TIP3    H236072   6.018   2.873   5.952 -1.7202 -1.1504  0.6266
 4861TIP3   OH236073   2.597   0.551  15.731  0.0257  0.1325 -0.1725
 4861TIP3    H136074   2.577   0.613  15.802  0.0427  1.1921 -1.0608
 4861TIP3    H236075   2.514   0.509  15.711 -0.2966  0.9036 -0.4997
 4862TIP3   OH236076   0.334   5.023  13.274  0.0052  0.3327 -0.0522
 4862TIP3    H136077   0.308   4.936  13.304  1.6225 -0.6562 -1.3422
 4862TIP3    H236078   0.339   5.076  13.354 -1.1896 -0.6959  0.7327
 4863TIP3   OH236079   5.846   1.609  17.163  0.6191  0.0614 -0.0049
 4863TIP3    H136080   5.843   1.531  17.218  0.0145  0.0786 -0.0103
 4863TIP3    H236081   5.817   1.680  17.220  0.6028  0.1848 -0.1664
 4864TIP3   OH236082   2.374   0.264  14.610  0.4314 -0.2483  0.1508
 4864TIP3    H136083   2.299   0.320  14.588  0.4055  0.0097  0.8691
 4864TIP3    H236084   2.343   0.175  14.596  0.6465 -0.0868 -1.5584
 4865TIP3   OH236085   4.709   6.833   5.893  0.6516 -0.0829  0.4553
 4865TIP3    H136086   4.616   6.840   5.909  0.5600 -0.4757  0.1225
 4865TIP3    H236087   4.743   6.782   5.966  0.7801  0.9077  1.1134
 4866TIP3   OH236088   0.548   3.690   6.759 -0.3311 -0.6313 -0.0768
 4866TIP3    H136089   0.485   3.762   6.753  0.0883 -0.2482  0.0253
 4866TIP3    H236090   0.622   3.728   6.807  1.0464 -0.3104 -2.3054
 4867TIP3   OH236091   6.039   6.569   6.712 -0.0479 -0.1640  0.4216
 4867TIP3    H136092   6.103   6.534   6.774  0.5895 -0.2981 -0.2948
 4867TIP3    H236093   6.026   6.498   6.649  1.3562  0.8723 -1.1268
 4868TIP3   OH236094   4.042   6.436  16.709  0.3386 -0.7848 -0.3992
 4868TIP3    H136095   3.957   6.473  16.684  0.3877  0.4511  1.1224
 4868TIP3    H236096   4.022   6.377  16.782  0.7337 -0.7720 -0.2777
 4869TIP3   OH236097   6.588   5.098   5.225  0.1590  0.3331  0.2810
 4869TIP3    H136098   6.510   5.059   5.265  0.6785 -1.1547 -0.0800
 4869TIP3    H236099   6.657   5.086   5.290  0.2183  1.1380  0.3732
 4870TIP3   OH236100   5.962   1.107  14.893  0.0276  0.2990  0.0832
 4870TIP3    H136101   5.924   1.026  14.928  1.6946  0.0361  1.4394
 4870TIP3    H236102   5.980   1.088  14.802 -1.1937 -0.2388 -0.0697
 4871TIP3   OH236103   3.532   3.601   2.371 -0.2002  0.1702  0.3735
 4871TIP3    H136104   3.487   3.651   2.439 -0.3828 -0.7547  0.9462
 4871TIP3    H236105   3.490   3.515   2.371  1.0139 -0.4532  0.3633
 4872TIP3   OH236106   2.669   5.711   5.576  0.0075  0.5975  0.2608
 4872TIP3    H136107   2.694   5.754   5.494 -1.3100  1.2281  0.1700
 4872TIP3    H236108   2.630   5.628   5.549  0.9541  0.1109  0.3457
 4873TIP3   OH236109   3.727   5.624   0.903 -0.2975  0.6846 -0.4944
 4873TIP3    H136110   3.817   5.634   0.935 -0.8763 -0.3938  1.6714
 4873TIP3    H236111   3.673   5.637   0.981 -1.9057 -0.7735 -1.3148
 4874TIP3   OH236112   3.817   2.185  14.627 -0.1041  0.0480  0.0043
 4874TIP3    H136113   3.857   2.142  14.552 -2.3584  1.1785 -2.0150
 4874TIP3    H236114   3.802   2.275  14.597  1.7534  1.5031  3.0033
 4875TIP3   OH236115   3.150   3.442   4.009  0.2000  0.1807  0.1124
 4875TIP3    H136116   3.237   3.414   3.982 -0.0455  0.4389 -0.9814
 4875TIP3    H236117   3.153   3.537   4.008 -0.3429  0.1941 -0.7789
 4876TIP3   OH236118   5.142   0.406   5.453 -0.3332 -0.8817  0.4401
 4876TIP3    H136119   5.054   0.428   5.423 -0.1794 -1.4504 -0.4641
 4876TIP3    H236120   5.184   0.366   5.377  0.5728 -0.9901  0.9839
 4877TIP3   OH236121   2.990   4.796  11.078  0.5219  0.5052  0.1094
 4877TIP3    H136122   2.968   4.738  11.150  2.1148 -1.7893 -1.1073
 4877TIP3    H236123   2.910   4.843  11.059 -0.5563 -0.5145  1.8627
 4878TIP3   OH236124   2.089   0.919   1.684  0.0993  0.2115  0.0789
 4878TIP3    H136125   2.049   0.925   1.597 -1.1771  0.9220  0.6828
 4878TIP3    H236126   2.015   0.922   1.745  0.9312 -0.9072  1.1823
 4879TIP3   OH236127   0.354   3.826   2.825  0.4712  0.4253 -0.1866
 4879TIP3    H136128   0.266   3.827   2.788  0.6516  0.3177 -0.6279
 4879TIP3    H236129   0.379   3.918   2.832  0.1460  0.4736  0.3756
 4880TIP3   OH236130   0.320   6.330   0.714 -0.5898  0.2989 -0.3789
 4880TIP3    H136131   0.285   6.418   0.727 -0.7822  0.1918 -0.1592
 4880TIP3    H236132   0.272   6.297   0.638 -0.8475  0.2165 -0.1834
 4881TIP3   OH236133   0.898   2.743   2.323 -0.1688 -0.0850  0.0629
 4881TIP3    H136134   0.955   2.780   2.390  0.7291  3.0212 -2.2209
 4881TIP3    H236135   0.809   2.765   2.352  0.0103 -0.9640  1.3779
 4882TIP3   OH236136   1.438   4.080  16.473 -0.4840  0.2008  0.3963
 4882TIP3    H136137   1.410   4.148  16.411 -1.4572 -0.5232  0.0119
 4882TIP3    H236138   1.412   3.997  16.430  1.7804 -0.5024  0.2684
 4883TIP3   OH236139   2.062   6.558   5.197  0.2943  0.2916  0.4212
 4883TIP3    H136140   1.982   6.539   5.246 -0.3622  0.9037 -0.3839
 4883TIP3    H236141   2.132   6.557   5.263  0.0403 -2.7316  0.7774
 4884TIP3   OH236142   0.666   4.832   3.029 -0.1258  0.2175 -0.3811
 4884TIP3    H136143   0.641   4.817   2.937 -0.4279 -0.4639 -0.1924
 4884TIP3    H236144   0.694   4.746   3.060 -1.4928  0.1126  0.6098
 4885TIP3   OH236145   6.625   2.746   5.260  0.7086 -0.2207 -0.2322
 4885TIP3    H136146   6.571   2.724   5.335  0.5412  1.7905  0.3056
 4885TIP3    H236147   6.566   2.741   5.185  0.4117 -0.4620  0.0171
 4886TIP3   OH236148   6.481   2.256  16.249 -0.2646 -0.2213 -0.2830
 4886TIP3    H136149   6.508   2.237  16.160 -0.3296 -2.3032  0.0830
 4886TIP3    H236150   6.386   2.240  16.249 -0.9042  2.8331 -0.5228
 4887TIP3   OH236151   3.335   0.347  16.017 -0.1010  0.3475  0.2312
 4887TIP3    H136152   3.428   0.365  16.028  0.7553 -2.8236 -0.5962
 4887TIP3    H236153   3.322   0.263  16.060 -2.0380 -0.3561 -1.5537
 4888TIP3   OH236154   4.957   3.573   1.988  0.2314  0.1490  0.5847
 4888TIP3    H136155   5.047   3.552   1.962  0.1320  0.9638 -0.4614
 4888TIP3    H236156   4.952   3.544   2.079  0.5273 -2.9734 -0.2711
 4889TIP3   OH236157   4.277   0.642  11.808  0.2474  0.0861  0.6423
 4889TIP3    H136158   4.224   0.634  11.730 -0.5489  0.3916  1.1402
 4889TIP3    H236159   4.258   0.729  11.842  2.2712  0.8491 -0.0186
 4890TIP3   OH236160   1.894   4.107  11.396  0.5720  0.0334 -0.4496
 4890TIP3    H136161   1.833   4.068  11.458  1.0987  0.9213  0.6541
 4890TIP3    H236162   1.950   4.034  11.369 -0.4844 -0.6316 -0.9121
 4891TIP3   OH236163   1.896   5.283   0.143 -0.0560  0.0439 -0.1696
 4891TIP3    H136164   1.984   5.295   0.180  0.7989 -2.5020 -1.1552
 4891TIP3    H236165   1.901   5.325   0.057  0.5694 -0.8863 -0.6179
 4892TIP3   OH236166   2.953   5.263   4.666 -0.4558  1.1730 -0.1270
 4892TIP3    H136167   3.019   5.265   4.596 -0.6061  0.8666 -0.2833
 4892TIP3    H236168   2.954   5.351   4.702  0.2330  1.0996  0.0560
 4893TIP3   OH236169   1.623   5.880   2.695 -0.7989  0.0745 -0.4582
 4893TIP3    H136170   1.608   5.894   2.602 -0.4806  1.0098 -0.3784
 4893TIP3    H236171   1.541   5.842   2.728 -0.1651 -2.4606 -1.5268
 4894TIP3   OH236172   1.659   4.765  13.436 -0.1769 -0.0608  0.4847
 4894TIP3    H136173   1.572   4.741  13.406  0.1418  0.2153 -0.7392
 4894TIP3    H236174   1.652   4.772  13.531 -1.1283 -1.4588  0.5333
 4895TIP3   OH236175   1.905   0.685   1.090  0.0447  0.5714 -0.0545
 4895TIP3    H136176   1.820   0.674   1.134  0.4782  0.3295  0.7404
 4895TIP3    H236177   1.929   0.597   1.061 -1.0947  0.9679 -2.4689
 4896TIP3   OH236178   4.265   2.096   4.659  0.1336  0.1473 -0.6343
 4896TIP3    H136179   4.359   2.114   4.655  1.0884 -3.4905  0.8476
 4896TIP3    H236180   4.239   2.119   4.748  0.2013 -0.9039 -0.3276
 4897TIP3   OH236181   5.435   1.643   3.101 -0.1693  1.1050 -0.0932
 4897TIP3    H136182   5.486   1.594   3.036 -1.4105 -0.3937  0.0049
 4897TIP3    H236183   5.432   1.732   3.067 -0.7766  0.3696 -2.1190
 4898TIP3   OH236184   2.400   6.406   0.450  0.5807 -0.2320  0.4945
 4898TIP3    H136185   2.407   6.340   0.381  0.5026  0.3867 -0.1175
 4898TIP3    H236186   2.306   6.424   0.456  0.7216  1.0067 -0.5065
 4899TIP3   OH236187   2.712   6.728  16.611 -0.5877  0.2594  0.6611
 4899TIP3    H136188   2.757   6.739  16.694  0.3788 -0.3097  0.2217
 4899TIP3    H236189   2.640   6.791  16.615  0.3441  1.3260  1.2950
 4900TIP3   OH236190   5.521   5.399  15.840 -0.4005  0.0289 -0.5828
 4900TIP3    H136191   5.542   5.392  15.933  1.8773  0.8486 -0.9673
 4900TIP3    H236192   5.463   5.475  15.835  1.8937  1.9549 -0.0716
 4901TIP3   OH236193   0.188   6.743   2.726 -0.3282  0.2591 -0.1827
 4901TIP3    H136194   0.163   6.652   2.716  1.4848 -0.3127 -0.0085
 4901TIP3    H236195   0.144   6.789   2.655 -0.8997 -0.8307 -0.5511
 4902TIP3   OH236196   1.223   4.003  13.618  0.3612 -0.3779 -0.7605
 4902TIP3    H136197   1.130   3.998  13.596  0.8455  0.1383 -3.1451
 4902TIP3    H236198   1.240   4.096  13.632  0.6734 -0.3935 -1.0304
 4903TIP3   OH236199   0.502   0.124   2.036  0.5468 -0.5510 -0.0948
 4903TIP3    H136200   0.493   0.191   1.968 -1.6890 -0.3341  0.3407
 4903TIP3    H236201   0.414   0.114   2.072  1.5152 -1.1889  2.2980
 4904TIP3   OH236202   4.492   1.655  16.361  0.0501 -0.3784  0.0559
 4904TIP3    H136203   4.493   1.726  16.426  1.3402  0.1254 -0.4800
 4904TIP3    H236204   4.473   1.577  16.412 -1.0429  0.2944  0.7212
 4905TIP3   OH236205   6.789   5.103   3.609 -0.2816 -0.1390  0.2272
 4905TIP3    H136206   6.766   5.119   3.701  0.4865 -1.4558  0.6767
 4905TIP3    H236207   6.877   5.067   3.613 -0.1499  0.0097 -1.0651
 4906TIP3   OH236208   1.799   5.973  15.193 -0.1008  0.4224 -0.0041
 4906TIP3    H136209   1.816   5.956  15.285  0.7144  1.5532  0.0735
 4906TIP3    H236210   1.876   6.021  15.163  0.5367 -1.5175 -1.7616
 4907TIP3   OH236211   1.788   1.994   0.961  0.5105  0.2545 -0.2532
 4907TIP3    H136212   1.855   1.927   0.951 -0.9655 -0.9868 -2.9634
 4907TIP3    H236213   1.751   1.979   1.048  1.6874 -0.9694  0.0649
 4908TIP3   OH236214   6.081   6.566   5.041 -0.0456 -0.4672 -0.2071
 4908TIP3    H136215   6.004   6.560   5.097  0.5155 -0.6633  0.5735
 4908TIP3    H236216   6.058   6.516   4.963 -0.3563 -1.3885  0.4492
 4909TIP3   OH236217   3.178   5.548   5.991  0.2961 -0.2360  0.0158
 4909TIP3    H136218   3.226   5.499   6.058 -0.2848 -1.6345 -0.5468
 4909TIP3    H236219   3.244   5.603   5.949  0.5111  1.4228  2.3350
 4910TIP3   OH236220   4.692   3.308   5.147 -0.0045 -0.2294  0.3251
 4910TIP3    H136221   4.685   3.300   5.242  2.2297  1.1644  0.6887
 4910TIP3    H236222   4.649   3.391   5.127 -2.2805 -1.4779 -0.2114
 4911TIP3   OH236223   3.236   5.085  16.365 -0.5997  0.6960 -0.0880
 4911TIP3    H136224   3.302   5.020  16.389 -0.4804  0.9243  0.2014
 4911TIP3    H236225   3.175   5.037  16.309 -1.5737 -0.1931  1.6236
 4912TIP3   OH236226   6.195   6.765  15.285 -0.8049 -0.3115 -0.2140
 4912TIP3    H136227   6.141   6.843  15.273 -1.6961 -1.2136 -2.8976
 4912TIP3    H236228   6.253   6.764  15.208  1.1669 -0.8369  1.2063
 4913TIP3   OH236229   5.084   2.587   4.254  0.0944 -0.2588  0.7105
 4913TIP3    H136230   5.158   2.541   4.215 -0.4910 -0.8403  0.2719
 4913TIP3    H236231   5.098   2.679   4.231  0.9903 -0.2750  1.1471
 4914TIP3   OH236232   0.390   6.728  14.191  0.2023 -0.1208 -0.3152
 4914TIP3    H136233   0.455   6.775  14.243 -1.3184  0.1317  1.4439
 4914TIP3    H236234   0.346   6.796  14.141 -1.0069  0.1949  1.1222
 4915TIP3   OH236235   6.063   5.594   3.745 -0.3123 -0.5719 -0.1107
 4915TIP3    H136236   5.978   5.555   3.725 -0.6711 -0.4058  1.0592
 4915TIP3    H236237   6.069   5.592   3.840  0.8909 -0.3467 -0.1701
 4916TIP3   OH236238   6.532   4.967  11.304 -0.9812 -0.4884  0.1501
 4916TIP3    H136239   6.586   4.931  11.374  2.6502  2.1990 -0.9581
 4916TIP3    H236240   6.472   5.027  11.348 -0.0677 -0.2920  1.1714
 4917TIP3   OH236241   4.733   1.370   1.559 -0.8444 -0.2900 -0.3909
 4917TIP3    H136242   4.655   1.361   1.505 -0.1796  0.7460 -1.5771
 4917TIP3    H236243   4.729   1.458   1.595 -1.0849 -0.8341  0.9920
 4918TIP3   OH236244   6.559   1.648  15.670  0.0836  0.4348  0.1281
 4918TIP3    H136245   6.648   1.615  15.662 -0.0849  0.2091 -0.9145
 4918TIP3    H236246   6.557   1.691  15.756  1.6055  1.6796 -0.4118
 4919TIP3   OH236247   0.136   5.111   3.822 -0.6214  0.2505 -0.0330
 4919TIP3    H136248   0.132   5.207   3.822  1.4294  0.4025  1.0182
 4919TIP3    H236249   0.208   5.090   3.762  1.1061 -0.4031  2.1453
 4920TIP3   OH236250   1.457   5.623  13.585 -0.0232  0.2641  0.2482
 4920TIP3    H136251   1.407   5.595  13.509 -1.3109  2.9241  0.0023
 4920TIP3    H236252   1.479   5.715  13.567 -0.8020  1.1502  3.2510
 4921TIP3   OH236253   4.960   0.744  16.713 -0.0942  0.4322  0.0615
 4921TIP3    H136254   5.012   0.705  16.642 -2.0853 -0.1351 -1.1607
 4921TIP3    H236255   4.985   0.695  16.791  1.6713  0.6239 -0.3359
 4922TIP3   OH236256   2.995   0.025  12.138  0.0597  0.0918  0.2734
 4922TIP3    H136257   2.981  -0.041  12.069 -0.5561 -1.0617  1.4451
 4922TIP3    H236258   3.090   0.037  12.141  0.2967 -1.6236  0.7734
 4923TIP3   OH236259   5.281   0.728   3.209 -0.7067  0.2929  0.4917
 4923TIP3    H136260   5.294   0.808   3.157 -0.3351 -0.8764 -1.2807
 4923TIP3    H236261   5.210   0.751   3.270 -0.4647  2.0279  0.1907
 4924TIP3   OH236262   1.880   0.404   3.121  0.7723  0.1380  0.1245
 4924TIP3    H136263   1.953   0.417   3.061  1.2211  2.1275  1.0203
 4924TIP3    H236264   1.804   0.390   3.063  1.3686  0.9945 -0.9124
 4925TIP3   OH236265   1.580   3.988   0.595 -0.1200 -0.1568  0.3160
 4925TIP3    H136266   1.612   4.077   0.612 -1.9012  0.6403 -0.2885
 4925TIP3    H236267   1.641   3.931   0.642  2.0098  1.2739 -0.5854
 4926TIP3   OH236268   4.138   2.863  15.070  0.0668  0.7817  0.0462
 4926TIP3    H136269   4.216   2.871  15.017  0.6419 -2.1984  0.2640
 4926TIP3    H236270   4.163   2.898  15.156  1.1881 -0.1014  0.0995
 4927TIP3   OH236271   4.902   0.207   1.344 -0.1232  0.0727 -0.1536
 4927TIP3    H136272   4.820   0.162   1.328 -0.8050  1.3609 -0.4321
 4927TIP3    H236273   4.925   0.247   1.260  0.4121  0.3175  0.0959
 4928TIP3   OH236274   4.367   4.518  14.035  0.0866 -0.6967  0.1452
 4928TIP3    H136275   4.279   4.515  13.998  0.2557  2.3984 -0.8337
 4928TIP3    H236276   4.359   4.572  14.113  1.1522  0.1094 -0.2701
 4929TIP3   OH236277   0.505   4.624   0.274  0.2450 -0.0385 -0.2740
 4929TIP3    H136278   0.578   4.578   0.231  1.6371  0.8146  1.0473
 4929TIP3    H236279   0.426   4.586   0.236  1.3652 -1.8519 -0.9211
 4930TIP3   OH236280   1.740   4.422   6.652 -0.6519 -0.4418 -0.1249
 4930TIP3    H136281   1.669   4.395   6.711  0.4085  2.4060  2.7394
 4930TIP3    H236282   1.714   4.510   6.624  0.7537 -0.1964 -0.6971
 4931TIP3   OH236283   3.184   1.588  15.874 -0.5554  0.2213  1.3304
 4931TIP3    H136284   3.222   1.612  15.958  1.6061  0.5388  0.3223
 4931TIP3    H236285   3.254   1.601  15.811 -1.9602 -0.4862 -0.4769
 4932TIP3   OH236286   1.699   3.785   0.244 -0.3945 -0.0353  0.2181
 4932TIP3    H136287   1.622   3.835   0.270 -0.5980  0.6336 -1.5504
 4932TIP3    H236288   1.664   3.709   0.198 -0.0175  0.3278 -0.6871
 4933TIP3   OH236289   4.892   3.093   5.365  0.0251  0.0418 -0.0519
 4933TIP3    H136290   4.799   3.074   5.381 -0.7391  0.2071 -3.5606
 4933TIP3    H236291   4.899   3.188   5.375 -0.8524  0.3891 -2.1892
 4934TIP3   OH236292   0.722   3.480   0.689 -0.3481  0.8087  0.7494
 4934TIP3    H136293   0.640   3.433   0.703 -0.0576  0.3009  0.7600
 4934TIP3    H236294   0.737   3.475   0.594  0.0647  0.2245  0.8387
 4935TIP3   OH236295   4.902   5.187   4.457  0.0931  0.8873  0.6826
 4935TIP3    H136296   4.876   5.239   4.533 -1.5052  0.8295  0.2117
 4935TIP3    H236297   4.850   5.223   4.385 -1.2960 -1.5032  0.3915
 4936TIP3   OH236298   2.341   3.063   0.710  0.2066 -0.0731 -0.1686
 4936TIP3    H136299   2.279   3.025   0.772 -0.1129 -0.8335 -0.9262
 4936TIP3    H236300   2.420   3.009   0.719  0.9982  1.2215  1.1817
 4937TIP3   OH236301   1.860   1.995   5.220  0.4751 -0.3134 -0.0404
 4937TIP3    H136302   1.857   2.090   5.229  0.1321 -0.4789  2.0278
 4937TIP3    H236303   1.953   1.972   5.231  0.2885 -0.3577  1.7104
 4938TIP3   OH236304   4.696   4.483   1.186 -0.2641 -0.4789 -0.1675
 4938TIP3    H136305   4.706   4.505   1.278  1.6589 -1.9937  0.0410
 4938TIP3    H236306   4.660   4.395   1.186  0.5062 -0.8046 -0.8347
 4939TIP3   OH236307   2.330   2.379  11.022 -0.4862  0.1588 -0.1725
 4939TIP3    H136308   2.399   2.313  11.008 -0.5199  0.2229 -0.6543
 4939TIP3    H236309   2.257   2.349  10.968 -0.3349  0.8365 -0.7598
 4940TIP3   OH236310   3.402   3.976  17.075 -0.3475 -0.8674  0.0045
 4940TIP3    H136311   3.412   3.883  17.096  1.1501 -0.4517  1.3868
 4940TIP3    H236312   3.484   3.999  17.030 -0.5764 -0.1635 -0.0674
 4941TIP3   OH236313   3.169   3.141  13.370  0.1338 -0.1594  0.2909
 4941TIP3    H136314   3.113   3.177  13.301 -0.3193 -2.4122 -0.6065
 4941TIP3    H236315   3.241   3.204  13.377 -0.4040  0.7282 -1.4173
 4942TIP3   OH236316   0.895   3.246  14.966  0.8897  0.3645  0.5525
 4942TIP3    H136317   0.907   3.274  14.875 -2.1850  1.7267  0.4358
 4942TIP3    H236318   0.889   3.151  14.961 -0.2926  0.4716 -0.9060
 4943TIP3   OH236319   1.797   2.985  13.089 -0.0463 -0.2723  0.3882
 4943TIP3    H136320   1.814   3.066  13.135  1.2766 -0.4787  0.3055
 4943TIP3    H236321   1.833   2.999  13.001 -1.5148 -0.2839 -0.2398
 4944TIP3   OH236322   2.824   0.720   1.530  0.2777  0.1881  0.6344
 4944TIP3    H136323   2.731   0.744   1.528  0.2547  0.1031 -1.5277
 4944TIP3    H236324   2.832   0.662   1.605 -0.9851  1.7703  2.0748
 4945TIP3   OH236325   5.125   4.130  14.168  0.0326  0.4292  0.2639
 4945TIP3    H136326   5.197   4.089  14.217 -1.3038 -2.1589  0.2251
 4945TIP3    H236327   5.062   4.155  14.235 -0.0518  0.5716  0.1313
 4946TIP3   OH236328   6.481   1.493  17.097  0.2563  0.2069  0.0643
 4946TIP3    H136329   6.441   1.504  17.183  1.1838 -0.6746  0.6378
 4946TIP3    H236330   6.443   1.562  17.043 -0.2256  0.8698  1.2238
 4947TIP3   OH236331   0.194   0.129  11.607 -0.0526 -0.2167  0.1303
 4947TIP3    H136332   0.238   0.100  11.528 -0.4762  0.2995 -0.3020
 4947TIP3    H236333   0.220   0.065  11.674  0.1187 -0.7943 -0.4756
 4948TIP3   OH236334   2.399   2.479  11.744 -0.0123  0.1900 -0.2611
 4948TIP3    H136335   2.380   2.433  11.826 -1.8252  0.2013 -0.6217
 4948TIP3    H236336   2.419   2.569  11.770  0.6605 -0.0993  0.2409
 4949TIP3   OH236337   5.791   6.702  15.178 -0.3513  0.0733  0.2701
 4949TIP3    H136338   5.726   6.655  15.230  0.4773  1.6373  2.9344
 4949TIP3    H236339   5.872   6.652  15.191 -0.1779  0.3623  0.2948
 4950TIP3   OH236340   0.611   3.961  14.752 -0.3744 -0.2673 -0.1407
 4950TIP3    H136341   0.627   3.892  14.688 -0.1468 -0.9486  0.6345
 4950TIP3    H236342   0.516   3.969  14.755 -0.3833 -0.1046 -0.6817
 4951TIP3   OH236343   2.717   3.872   2.650  0.6289  0.4796  0.0434
 4951TIP3    H136344   2.713   3.807   2.580 -0.3356  0.7194 -0.1423
 4951TIP3    H236345   2.755   3.950   2.608  2.2117 -0.0796  0.3792
 4952TIP3   OH236346   6.102   0.754   1.474  0.1705 -0.1261 -0.0378
 4952TIP3    H136347   6.108   0.777   1.382  2.1455  0.3607  0.1490
 4952TIP3    H236348   6.164   0.682   1.485 -0.7832 -0.8512  0.7287
 4953TIP3   OH236349   6.491   4.319  15.335 -0.0840 -0.3085  0.0805
 4953TIP3    H136350   6.442   4.300  15.255  1.2528 -2.4573 -0.2906
 4953TIP3    H236351   6.559   4.381  15.307  0.0573 -0.6476 -0.3347
 4954TIP3   OH236352   6.273   4.678   3.222  0.0627  0.0950 -0.5348
 4954TIP3    H136353   6.235   4.689   3.309 -1.6036 -1.6892 -0.9447
 4954TIP3    H236354   6.273   4.765   3.184 -3.8948  0.2909 -0.5171
 4955TIP3   OH236355   4.695   4.718  12.221 -0.2806  1.1624 -0.2261
 4955TIP3    H136356   4.706   4.798  12.171  0.9081  0.2428 -1.5138
 4955TIP3    H236357   4.777   4.706  12.267 -0.2526  0.4392 -0.4419
 4956TIP3   OH236358   3.798   6.388   1.270  0.0826 -0.1729 -0.7455
 4956TIP3    H136359   3.858   6.356   1.203  0.3050 -0.2313 -0.5220
 4956TIP3    H236360   3.797   6.319   1.336  0.7596  0.3788 -0.1396
 4957TIP3   OH236361   4.889   3.650  13.228 -0.0335 -0.0505 -0.1364
 4957TIP3    H136362   4.883   3.558  13.253 -2.5303  0.2443  0.5913
 4957TIP3    H236363   4.849   3.654  13.141  1.5200  0.1508 -0.8805
 4958TIP3   OH236364   1.609   5.960   5.275 -0.2231 -0.3763 -0.2509
 4958TIP3    H136365   1.558   5.899   5.327 -1.8855  0.1505 -1.1704
 4958TIP3    H236366   1.552   6.037   5.266 -0.3768 -0.7260 -3.4059
 4959TIP3   OH236367   5.015   1.895  12.395 -0.3297  0.4723  0.0702
 4959TIP3    H136368   4.973   1.821  12.352 -1.5212  0.5002  1.1479
 4959TIP3    H236369   5.086   1.856  12.447 -0.3727  0.1936 -0.0784
 4960TIP3   OH236370   1.667   5.742   5.113 -0.2933 -0.1434  0.0308
 4960TIP3    H136371   1.642   5.833   5.131  0.3385  0.1345 -0.4370
 4960TIP3    H236372   1.726   5.719   5.185  3.0644  1.3118 -2.0218
 4961TIP3   OH236373   3.581   0.788  10.599 -0.1909  0.4845  0.4516
 4961TIP3    H136374   3.665   0.744  10.611  0.8454  2.5538  1.2840
 4961TIP3    H236375   3.527   0.724  10.554  2.0376 -0.7018 -0.7221
 4962TIP3   OH236376   6.555   3.570   5.752  0.1700 -0.2776 -0.0254
 4962TIP3    H136377   6.553   3.598   5.660  0.4807 -1.0047 -0.2605
 4962TIP3    H236378   6.469   3.531   5.768  1.1427 -3.0634 -0.9711
 4963TIP3   OH236379   1.692   6.177   1.050 -0.1857  0.5455 -0.6179
 4963TIP3    H136380   1.621   6.183   0.986 -0.3674  1.4254 -0.3475
 4963TIP3    H236381   1.649   6.153   1.132  0.1910 -1.8124 -1.0522
 4964TIP3   OH236382   0.185   3.446   1.808 -0.3037 -0.0992 -0.0027
 4964TIP3    H136383   0.276   3.434   1.779 -0.1769  0.8284 -0.0075
 4964TIP3    H236384   0.137   3.470   1.729 -1.0708 -2.9457 -0.5025
 4965TIP3   OH236385   4.273   2.949   3.532 -0.2756 -0.1564  0.5810
 4965TIP3    H136386   4.357   2.979   3.499  0.1017 -1.1882  0.5732
 4965TIP3    H236387   4.294   2.898   3.610 -0.7330 -1.6032 -0.1951
 4966TIP3   OH236388   0.306   5.076   5.919  0.0468  0.2102  0.6779
 4966TIP3    H136389   0.349   4.991   5.912 -0.0178  0.1908  0.5030
 4966TIP3    H236390   0.281   5.083   6.011 -1.0776 -0.5180  0.4517
 4967TIP3   OH236391   1.166   0.377  15.914  0.0630  0.2901  0.5473
 4967TIP3    H136392   1.240   0.408  15.966  1.2606  0.2487 -1.0322
 4967TIP3    H236393   1.122   0.313  15.970  0.0839  1.6886  2.2336
 4968TIP3   OH236394   2.089   2.181  13.352 -0.4445 -0.0011  0.0243
 4968TIP3    H136395   2.180   2.166  13.326 -0.4380 -0.3989  0.2820
 4968TIP3    H236396   2.038   2.155  13.275 -0.5031 -2.3478  0.7964
 4969TIP3   OH236397   2.843   4.968  12.328  0.5803  0.3818  0.1093
 4969TIP3    H136398   2.907   5.033  12.358  0.7060  0.4807 -0.3734
 4969TIP3    H236399   2.758   5.008  12.348  0.6637  0.2896  0.6667
 4970TIP3   OH236400   1.576   2.460   3.961  0.0759  0.1739  0.3708
 4970TIP3    H136401   1.517   2.420   3.897  1.8531 -0.3087 -1.0405
 4970TIP3    H236402   1.523   2.467   4.040 -1.4376 -1.5926 -0.3888
 4971TIP3   OH236403   4.802   4.496   5.337 -0.6623 -0.1279  0.3029
 4971TIP3    H136404   4.769   4.573   5.291  1.7753  0.4718 -0.5995
 4971TIP3    H236405   4.778   4.422   5.281 -1.8140  0.0816  0.4878
 4972TIP3   OH236406   1.780   1.913  14.404  0.1187 -0.5832 -0.5042
 4972TIP3    H136407   1.829   1.884  14.480 -0.8426  0.3925  0.5136
 4972TIP3    H236408   1.803   2.005  14.394 -0.4369 -0.4745 -0.8500
 4973TIP3   OH236409   0.217   1.643  15.387 -0.1879 -0.2809  0.6376
 4973TIP3    H136410   0.127   1.612  15.372  0.3089 -1.3983 -0.1508
 4973TIP3    H236411   0.261   1.632  15.303  0.4915  1.0460  0.7879
 4974TIP3   OH236412   1.084   3.857   4.539  0.1024 -0.7694  0.2742
 4974TIP3    H136413   1.094   3.951   4.555 -0.9120 -0.5854 -0.1077
 4974TIP3    H236414   1.089   3.848   4.444  2.3712 -1.3925  0.4083
 4975TIP3   OH236415   6.164   3.389   4.904 -0.2897  0.4424 -0.2020
 4975TIP3    H136416   6.103   3.378   4.831 -3.2040 -1.4939  2.3260
 4975TIP3    H236417   6.109   3.401   4.981  2.5824  0.1649  2.0759
 4976TIP3   OH236418   4.377   3.155   3.775  0.1174 -0.7665 -0.3485
 4976TIP3    H136419   4.338   3.227   3.725 -0.1600  0.0593  1.0122
 4976TIP3    H236420   4.309   3.087   3.775 -0.8758  0.1849  0.9587
 4977TIP3   OH236421   6.446   1.998   5.487 -0.0121 -0.1151 -0.6937
 4977TIP3    H136422   6.411   1.928   5.432 -0.0850 -1.6216  1.1730
 4977TIP3    H236423   6.374   2.021   5.545  1.1577 -1.3037  1.3370
 4978TIP3   OH236424   4.806   1.996   1.796 -0.4572 -0.5712 -0.0342
 4978TIP3    H136425   4.754   1.928   1.839 -2.0470  0.2395 -0.6197
 4978TIP3    H236426   4.842   2.048   1.867 -0.5216 -1.0857  0.3765
 4979TIP3   OH236427   2.570   5.701   6.454 -0.1757 -0.3556  0.1549
 4979TIP3    H136428   2.642   5.701   6.516  0.1033 -1.6644 -0.1351
 4979TIP3    H236429   2.548   5.609   6.443 -1.7828  0.0000  0.1089
 4980TIP3   OH236430   3.770   6.818  12.163  0.1434 -0.4382 -0.6813
 4980TIP3    H136431   3.680   6.789  12.171 -0.4037  0.9840 -1.3150
 4980TIP3    H236432   3.803   6.819  12.253 -0.9431  0.3805 -0.2720
 4981TIP3   OH236433   2.813   6.690  13.284 -0.3131  0.4855  0.1272
 4981TIP3    H136434   2.809   6.637  13.204  0.9943  1.7818 -0.8385
 4981TIP3    H236435   2.767   6.637  13.349  0.4209 -1.5796 -0.9263
 4982TIP3   OH236436   0.048   1.607  13.585  0.1436 -0.0960  0.5817
 4982TIP3    H136437  -0.033   1.575  13.625 -0.0649 -0.0856  0.1802
 4982TIP3    H236438   0.078   1.678  13.642 -0.4167  0.2531  0.4483
 4983TIP3   OH236439   1.955   5.836   5.505  0.5100  0.4766 -0.1451
 4983TIP3    H136440   2.030   5.888   5.534  0.2723  1.3599 -1.0552
 4983TIP3    H236441   1.939   5.864   5.415  2.2070 -3.2770 -1.8298
 4984TIP3   OH236442   1.706   3.048   0.527  0.5762  0.8375  0.0996
 4984TIP3    H136443   1.739   2.959   0.516  0.2059  0.6611  0.4009
 4984TIP3    H236444   1.625   3.051   0.477  0.3978  0.8952  0.3900
 4985TIP3   OH236445   0.117   3.578   1.309 -0.2423  0.2410  0.0520
 4985TIP3    H136446   0.068   3.572   1.391  0.6339  0.9988  0.6595
 4985TIP3    H236447   0.127   3.672   1.294  0.4834  0.1053 -0.3729
 4986TIP3   OH236448   0.368   2.257   4.991 -0.0256  0.7595  0.2468
 4986TIP3    H136449   0.458   2.290   4.987  0.2804 -0.1564 -2.0008
 4986TIP3    H236450   0.331   2.280   4.906 -0.5688 -2.3976 -0.5151
 4987TIP3   OH236451   3.726   3.818   4.518  0.0947  0.0581  0.0565
 4987TIP3    H136452   3.771   3.885   4.468  1.5103  2.2786  3.8624
 4987TIP3    H236453   3.780   3.739   4.506 -0.3659  0.0687 -2.7313
 4988TIP3   OH236454   4.773   6.351  16.492  0.2350 -0.2322 -0.4481
 4988TIP3    H136455   4.764   6.328  16.584 -2.3940  0.7636 -0.3779
 4988TIP3    H236456   4.721   6.284  16.446 -1.4025  1.2208 -0.8355
 4989TIP3   OH236457   0.340   2.230  16.481 -0.7906  0.2910 -0.5150
 4989TIP3    H136458   0.357   2.235  16.575  2.0239  1.4143 -0.9799
 4989TIP3    H236459   0.297   2.313  16.460 -0.5550  0.4594 -0.3441
 4990TIP3   OH236460   3.114   4.094   4.616 -0.1739  0.0700 -0.3762
 4990TIP3    H136461   3.027   4.082   4.656 -0.4201 -1.6236 -1.3146
 4990TIP3    H236462   3.165   4.019   4.648  0.2601 -0.1521 -1.5505
 4991TIP3   OH236463   2.945   1.702   4.148  0.4543 -0.4583  0.0913
 4991TIP3    H136464   2.921   1.610   4.135 -1.0810 -0.3171  1.5859
 4991TIP3    H236465   2.906   1.748   4.073 -1.3573 -0.6683  0.8533
 4992TIP3   OH236466   2.453   0.601  10.732  0.2174 -0.1205  0.0507
 4992TIP3    H136467   2.484   0.680  10.776 -1.2448  0.8818 -0.6351
 4992TIP3    H236468   2.368   0.626  10.695  0.3724 -1.6024 -1.4031
 4993TIP3   OH236469   4.994   0.160   4.425  0.2035 -0.3286  0.2487
 4993TIP3    H136470   5.036   0.108   4.357 -2.1494 -0.0683 -1.5055
 4993TIP3    H236471   4.946   0.096   4.478 -1.9889 -0.1710 -1.3969
 4994TIP3   OH236472   0.808   4.771  17.169  0.0342  0.2775 -0.4346
 4994TIP3    H136473   0.875   4.810  17.225 -1.9382 -0.3003  2.5890
 4994TIP3    H236474   0.837   4.680  17.157  0.2617  0.2806  0.0752
 4995TIP3   OH236475   5.472   1.347   2.416 -0.1388  0.3374  0.0667
 4995TIP3    H136476   5.506   1.303   2.338 -0.8756 -1.4088  0.6680
 4995TIP3    H236477   5.405   1.406   2.383 -2.2474 -2.2096 -0.5125
 4996TIP3   OH236478   3.438   6.414  14.080  0.6300  0.1153 -0.0911
 4996TIP3    H136479   3.412   6.506  14.069  0.9765  0.2628  0.2782
 4996TIP3    H236480   3.431   6.399  14.174 -1.0948 -0.7490 -0.3231
 4997TIP3   OH236481   4.676   3.801   5.959 -0.4809 -0.6026 -0.2253
 4997TIP3    H136482   4.690   3.884   6.005 -0.5546 -0.3729 -0.6167
 4997TIP3    H236483   4.693   3.734   6.026  1.2616 -0.3223 -0.3322
 4998TIP3   OH236484   5.052   6.352  16.762 -0.1215  0.5254  0.1148
 4998TIP3    H136485   4.994   6.277  16.773  0.5003  0.1043  0.6278
 4998TIP3    H236486   5.057   6.365  16.667 -0.4964  0.1241  0.0386
 4999TIP3   OH236487   5.977   3.222   6.238 -0.0564  0.6455  0.1273
 4999TIP3    H136488   5.982   3.216   6.334  0.2300 -0.0443  0.0737
 4999TIP3    H236489   5.892   3.183   6.217  0.5003 -0.5460  0.0031
 5000TIP3   OH236490   0.573   3.647  16.444  0.3290  0.2633 -0.4348
 5000TIP3    H136491   0.593   3.740  16.453  0.1478  0.3120 -0.5463
 5000TIP3    H236492   0.478   3.643  16.436 -0.1430 -0.1974  3.5530
 5001TIP3   OH236493   4.280   4.701  14.202  0.2131  0.2318 -0.5692
 5001TIP3    H136494   4.219   4.689  14.274  1.6115  1.1881  0.8519
 5001TIP3    H236495   4.227   4.733  14.130 -1.1701 -0.4182  0.1240
 5002TIP3   OH236496   1.457   0.836   3.756  0.1435  0.1556 -0.4732
 5002TIP3    H136497   1.452   0.820   3.850  0.1615  0.1575 -0.4720
 5002TIP3    H236498   1.435   0.929   3.746 -0.7318 -0.0536 -0.5496
 5003TIP3   OH236499   0.557   3.639  16.118 -0.2717  0.0073  0.1522
 5003TIP3    H136500   0.481   3.695  16.134 -0.2465 -0.3396  1.7091
 5003TIP3    H236501   0.519   3.557  16.085 -0.6723 -0.3907  1.5096
 5004TIP3   OH236502   4.365   2.820   2.736  0.3024 -0.7373  0.1282
 5004TIP3    H136503   4.305   2.793   2.806 -0.8321 -0.9515 -0.8841
 5004TIP3    H236504   4.422   2.885   2.777  0.0676 -1.3007  1.4021
 5005TIP3   OH236505   5.729   3.118   2.301 -0.0912 -0.0787  0.1748
 5005TIP3    H136506   5.809   3.124   2.355 -0.8529 -0.6322  1.4037
 5005TIP3    H236507   5.660   3.094   2.363 -1.4092  1.2817 -0.6887
 5006TIP3   OH236508   3.854   3.998   0.291  0.2752 -0.2998  0.6332
 5006TIP3    H136509   3.821   4.051   0.364 -2.0479 -2.1405  1.0485
 5006TIP3    H236510   3.936   3.961   0.323  0.6379  0.9866  1.2734
 5007TIP3   OH236511   6.028   2.623  10.149  0.4738 -0.1972 -0.3711
 5007TIP3    H136512   5.940   2.588  10.137  0.5266 -0.8773  1.0963
 5007TIP3    H236513   6.086   2.552  10.122  0.5899  0.3125 -1.5053
 5008TIP3   OH236514   3.811   4.079  14.857  0.6828 -0.2185 -0.2651
 5008TIP3    H136515   3.876   4.010  14.846 -1.3193 -2.2246 -0.3420
 5008TIP3    H236516   3.832   4.119  14.941  3.0386  0.4433 -1.1009
 5009TIP3   OH236517   2.218   6.019  16.954 -0.3821  0.5034 -0.4302
 5009TIP3    H136518   2.161   6.080  17.000  0.4045  0.6089  0.4163
 5009TIP3    H236519   2.304   6.030  16.994 -0.1098 -0.7922 -0.6058
 5010TIP3   OH236520   0.507   0.893   3.444 -0.5626 -0.4558  0.1420
 5010TIP3    H136521   0.549   0.870   3.362 -0.0119 -2.4088  0.9046
 5010TIP3    H236522   0.579   0.917   3.502 -0.7856 -0.6821  0.5164
 5011TIP3   OH236523   2.080   5.198   0.368  0.0506 -0.3631  0.0942
 5011TIP3    H136524   2.144   5.166   0.431 -1.9587  0.6639  2.8821
 5011TIP3    H236525   2.025   5.122   0.350  0.5618 -0.6309 -0.3632
 5012TIP3   OH236526   4.074   3.902   5.969  1.1118  0.7784 -0.5167
 5012TIP3    H136527   3.997   3.885   6.022  0.0857  3.7858 -0.8748
 5012TIP3    H236528   4.054   3.863   5.884 -0.2287  1.8964 -0.7345
 5013TIP3   OH236529   4.650   2.440  11.174 -0.6061 -0.2879  0.0991
 5013TIP3    H136530   4.605   2.504  11.119  1.0428  0.5916 -0.2616
 5013TIP3    H236531   4.582   2.376  11.195 -1.1499 -1.2080 -3.7147
 5014TIP3   OH236532   6.762   3.315   2.342 -0.0940  0.4753 -0.2753
 5014TIP3    H136533   6.829   3.323   2.410  0.2580 -2.9111 -0.0442
 5014TIP3    H236534   6.810   3.285   2.265 -1.1952 -1.7178 -0.1958
 5015TIP3   OH236535   6.495   4.607   1.798 -0.2109 -0.5404  0.5831
 5015TIP3    H136536   6.454   4.543   1.741 -1.0436  0.5398 -0.0803
 5015TIP3    H236537   6.580   4.625   1.758 -0.8407  0.3113 -0.4477
 5016TIP3   OH236538   1.054   4.133   4.607  0.3868  0.1592 -0.2852
 5016TIP3    H136539   1.079   4.155   4.697  1.1424 -0.7928 -0.2445
 5016TIP3    H236540   0.975   4.184   4.591  0.5463  0.7579  0.7285
 5017TIP3   OH236541   5.833   1.603  13.639 -0.0317 -0.0794 -0.4611
 5017TIP3    H136542   5.768   1.540  13.671  1.1261 -1.2715 -0.3844
 5017TIP3    H236543   5.891   1.618  13.713  0.0387  0.6787 -0.6542
 5018TIP3   OH236544   6.553   6.280  16.405 -0.1243  0.2401  0.3365
 5018TIP3    H136545   6.499   6.358  16.408 -1.1149 -0.4142 -0.1064
 5018TIP3    H236546   6.492   6.208  16.393  0.8140 -0.5585  0.1572
 5019TIP3   OH236547   0.811   5.201   4.299 -0.4694 -0.4431 -0.1899
 5019TIP3    H136548   0.826   5.292   4.325 -0.8746 -0.6011  0.6190
 5019TIP3    H236549   0.716   5.192   4.297 -0.4491 -1.3393  1.5461
 5020TIP3   OH236550   3.462   2.990  12.107 -0.0862  0.1359 -0.4409
 5020TIP3    H136551   3.520   3.007  12.181  0.4346 -1.2727 -0.5023
 5020TIP3    H236552   3.375   2.980  12.146  0.1683 -0.4847 -0.0325
 5021TIP3   OH236553   6.416   5.550  15.525 -0.1832  0.3985  0.3736
 5021TIP3    H136554   6.510   5.566  15.533  0.4067 -2.6671  0.8267
 5021TIP3    H236555   6.391   5.593  15.443  1.5673  1.3487  0.2960
 5022TIP3   OH236556   1.615   1.346   4.148 -0.0381  0.5278 -0.0992
 5022TIP3    H136557   1.610   1.252   4.128 -1.4795  1.2946 -4.2881
 5022TIP3    H236558   1.534   1.364   4.197 -1.8904  0.1363 -2.8068
 5023TIP3   OH236559   5.951   4.169  13.667 -0.3381  0.7597 -0.1479
 5023TIP3    H136560   6.038   4.183  13.630  0.6699 -1.1666  1.3399
 5023TIP3    H236561   5.966   4.117  13.746 -2.8171  0.7435  0.3970
 5024TIP3   OH236562   3.753   0.031  13.900 -0.4162  0.1389 -0.5731
 5024TIP3    H136563   3.843   0.062  13.892 -0.1888  0.6841  2.6473
 5024TIP3    H236564   3.760  -0.065  13.897  0.2452  0.1844 -0.4575
 5025TIP3   OH236565   2.795   5.128   0.494 -0.0633 -0.2982  0.8650
 5025TIP3    H136566   2.764   5.172   0.415  0.7079  1.6328  1.5809
 5025TIP3    H236567   2.715   5.105   0.541 -0.5130 -0.9196 -0.1656
 5026TIP3   OH236568   6.378   2.951   0.952  0.6348  0.5785  0.0152
 5026TIP3    H136569   6.301   2.912   0.911  1.0972 -0.8148  0.4095
 5026TIP3    H236570   6.397   3.029   0.899  0.5660 -0.5525 -1.7441
 5027TIP3   OH236571   4.485   4.869  14.145 -0.3718 -0.0488  0.2673
 5027TIP3    H136572   4.421   4.935  14.116 -1.4882 -0.5292  1.5397
 5027TIP3    H236573   4.432   4.794  14.171  0.5421  0.1022  2.8896
 5028TIP3   OH236574   5.539   6.795  12.125 -0.2252  0.5521  0.3930
 5028TIP3    H136575   5.563   6.703  12.133 -1.4662  0.1964  0.2233
 5028TIP3    H236576   5.552   6.832  12.212 -2.1707 -0.4064  1.1224
 5029TIP3   OH236577   1.727   3.427  12.036 -0.4150 -0.7347  0.4332
 5029TIP3    H136578   1.677   3.429  11.955 -0.9338 -0.9597  0.7438
 5029TIP3    H236579   1.662   3.446  12.105  0.5945  3.1286  0.5335
 5030TIP3   OH236580   1.543   2.326   0.279 -0.1814  0.8275  0.1350
 5030TIP3    H136581   1.565   2.322   0.186 -1.3432  2.3990 -0.2382
 5030TIP3    H236582   1.539   2.419   0.300 -1.9780  0.5574  1.2320
 5031TIP3   OH236583   2.009   4.461   1.486  0.0185 -0.4154  0.1329
 5031TIP3    H136584   1.929   4.459   1.433  0.2256  0.5593 -0.2262
 5031TIP3    H236585   1.978   4.463   1.577 -0.3615 -0.2945  0.0009
 5032TIP3   OH236586   0.317   2.119  10.080  0.1205 -0.5723  0.2012
 5032TIP3    H136587   0.394   2.065  10.094  0.0609 -0.9152 -0.7251
 5032TIP3    H236588   0.342   2.206  10.113  1.5075 -0.2460 -1.5807
 5033TIP3   OH236589   3.564   3.913   2.879 -0.5429 -0.0666 -0.3067
 5033TIP3    H136590   3.479   3.871   2.893  0.2912 -1.8004 -0.1250
 5033TIP3    H236591   3.544   4.006   2.872 -2.4984 -0.4761 -0.7472
 5034TIP3   OH236592   0.360   5.712   3.995 -0.0733 -0.2276 -0.3044
 5034TIP3    H136593   0.298   5.670   3.936 -1.5146  1.5120 -0.0925
 5034TIP3    H236594   0.406   5.775   3.939  0.8666 -0.8306 -0.2410
 5035TIP3   OH236595   6.471   3.823   4.299 -0.0425 -0.3439 -0.1911
 5035TIP3    H136596   6.545   3.767   4.277  0.6631  0.3612  0.3270
 5035TIP3    H236597   6.398   3.763   4.311  1.1371 -1.4337  2.4076
 5036TIP3   OH236598   1.741   2.490  11.835  0.3453  0.0759 -0.0196
 5036TIP3    H136599   1.799   2.464  11.764  3.6417  1.2702  2.0086
 5036TIP3    H236600   1.748   2.586  11.838 -1.5774  0.2411  0.4844
 5037TIP3   OH236601   3.228   0.923  11.030  0.1483 -0.1386  0.0107
 5037TIP3    H136602   3.134   0.905  11.023  0.3787 -1.2185 -0.5173
 5037TIP3    H236603   3.243   0.938  11.123 -0.6610  0.7102  0.0101
 5038TIP3   OH236604   2.067   3.117  16.547  0.0397 -0.0820  0.2325
 5038TIP3    H136605   2.126   3.129  16.621 -0.1834 -0.4461  0.4674
 5038TIP3    H236606   2.054   3.206  16.513 -0.5147  0.1979  1.1407
 5039TIP3   OH236607   2.007   2.191  15.735  0.3916 -0.3483  0.6523
 5039TIP3    H136608   1.996   2.126  15.806 -0.4946 -0.9771 -0.0330
 5039TIP3    H236609   1.919   2.201  15.699  0.4694  1.4166  0.8645
 5040TIP3   OH236610   1.340   2.645   0.456  0.5781  0.1223  0.0564
 5040TIP3    H136611   1.420   2.623   0.407 -0.1027 -0.3555 -0.8817
 5040TIP3    H236612   1.370   2.659   0.546  1.4630 -2.0193  0.1564
 5041TIP3   OH236613   1.326   6.839  16.880 -0.0519 -0.1811 -0.4177
 5041TIP3    H136614   1.387   6.814  16.950 -0.2167  0.9898  0.1721
 5041TIP3    H236615   1.379   6.890  16.819 -0.1800 -0.1868 -0.5333
 5042TIP3   OH236616   5.974   1.146   3.685 -0.0135 -0.6311 -0.2112
 5042TIP3    H136617   5.915   1.153   3.611  0.2145  1.7936 -0.2594
 5042TIP3    H236618   6.062   1.149   3.647  0.1128 -0.5764  0.0764
 5043TIP3   OH236619   0.513   4.644   5.636  0.2508 -0.0649 -0.3825
 5043TIP3    H136620   0.472   4.707   5.577 -1.4833 -0.4701  0.3138
 5043TIP3    H236621   0.451   4.570   5.639  0.7271 -0.4382  1.2156
 5044TIP3   OH236622   2.737   3.549   0.542  0.2278 -0.1630 -0.4030
 5044TIP3    H136623   2.694   3.464   0.534 -0.9094  0.4571 -1.2210
 5044TIP3    H236624   2.808   3.547   0.479  0.5705 -0.7071 -0.0075
 5045TIP3   OH236625   4.420   6.804  14.690 -0.1182  0.2681 -0.0922
 5045TIP3    H136626   4.455   6.728  14.643 -0.1785 -0.8946  1.6513
 5045TIP3    H236627   4.481   6.818  14.763 -0.0025  2.0451 -0.4700
 5046TIP3   OH236628   1.325   6.447   3.629 -0.3149  0.7084 -0.3445
 5046TIP3    H136629   1.333   6.352   3.624 -0.0845  0.6073  1.4831
 5046TIP3    H236630   1.231   6.463   3.641 -0.3546  0.7211 -0.6594
 5047TIP3   OH236631   2.018   2.355  11.357 -0.0172 -0.1220  0.1017
 5047TIP3    H136632   1.934   2.398  11.371 -0.6671 -1.2143 -0.2815
 5047TIP3    H236633   2.070   2.419  11.308 -0.9885  0.1976 -0.5478
 5048TIP3   OH236634   5.683   3.479   1.881 -0.4395 -0.7986 -0.2822
 5048TIP3    H136635   5.659   3.536   1.807 -1.3733 -1.0346 -0.1762
 5048TIP3    H236636   5.659   3.391   1.852  0.3738 -1.0647 -0.1819
 5049TIP3   OH236637   5.422   3.558  12.922 -0.4582 -0.8851 -0.1219
 5049TIP3    H136638   5.385   3.585  13.006  0.2665 -0.9112  0.2118
 5049TIP3    H236639   5.508   3.599  12.919 -1.4454  1.2046 -1.9947
 5050TIP3   OH236640   2.421   3.830   5.079  0.1055  0.3214  0.8605
 5050TIP3    H136641   2.508   3.870   5.086 -0.8311  2.2534  2.8620
 5050TIP3    H236642   2.383   3.870   5.001  0.4915  0.5935  0.8061
 5051TIP3   OH236643   2.132   1.721  16.497  0.1338 -0.8918 -0.0312
 5051TIP3    H136644   2.133   1.700  16.591 -0.8206 -1.3877 -0.1208
 5051TIP3    H236645   2.215   1.687  16.464  0.5788 -0.5228  0.6704
 5052TIP3   OH236646   5.924   1.422  12.809 -1.0427  0.0495 -0.4619
 5052TIP3    H136647   5.892   1.501  12.766  0.2538  0.6180 -0.4423
 5052TIP3    H236648   5.969   1.455  12.888 -2.2257 -0.8679  0.6283
 5053TIP3   OH236649   5.553   2.340   1.295 -0.3264 -0.0113  0.1608
 5053TIP3    H136650   5.581   2.365   1.207 -0.1432  0.8616  0.4580
 5053TIP3    H236651   5.523   2.249   1.286 -1.0410  0.3227 -0.9542
 5054TIP3   OH236652   3.615   3.482   1.145 -0.0082 -0.1864  0.3229
 5054TIP3    H136653   3.520   3.478   1.155 -0.2197 -0.1182 -1.3251
 5054TIP3    H236654   3.632   3.569   1.108  0.8352  0.2792  1.7419
 5055TIP3   OH236655   0.992   5.763  13.949 -0.2105  0.8391 -0.3441
 5055TIP3    H136656   1.023   5.833  14.006  0.9549  0.3776 -0.3932
 5055TIP3    H236657   0.897   5.776  13.946 -0.1989  1.4219  0.9587
 5056TIP3   OH236658   3.212   6.298  11.503 -0.6521  0.0526  0.1092
 5056TIP3    H136659   3.238   6.379  11.460 -0.8916  0.2985  0.4163
 5056TIP3    H236660   3.285   6.277  11.561  0.5403 -1.3134 -1.7618
 5057TIP3   OH236661   0.023   1.353   0.663 -0.1134  0.3003  0.6378
 5057TIP3    H136662   0.090   1.324   0.725 -1.2232 -0.9465  1.3099
 5057TIP3    H236663   0.046   1.311   0.580  1.4368  2.0569  0.1041
 5058TIP3   OH236664   2.644   5.876  14.492  0.1150  0.3845 -0.4876
 5058TIP3    H136665   2.625   5.964  14.526  0.9009  0.7426 -0.9425
 5058TIP3    H236666   2.740   5.870  14.495  0.0626 -0.4437 -0.4916
 5059TIP3   OH236667   0.237   0.669   4.716  0.1448  0.0663  0.2209
 5059TIP3    H136668   0.288   0.652   4.796  2.1787  0.4123 -0.9256
 5059TIP3    H236669   0.275   0.750   4.681  0.3698 -0.8960 -1.8959
 5060TIP3   OH236670   1.989   3.847   0.213 -0.1176 -0.2836 -0.5406
 5060TIP3    H136671   2.046   3.854   0.291  1.0604  0.8689 -1.4563
 5060TIP3    H236672   1.904   3.819   0.248 -0.6133  3.3239  1.6427
 5061TIP3   OH236673   4.114   3.054   3.784 -0.7136  0.1596  0.0011
 5061TIP3    H136674   4.087   2.988   3.848  0.2090  2.1198  2.6044
 5061TIP3    H236675   4.041   3.117   3.783  0.2701  1.3512  0.9660
 5062TIP3   OH236676   3.260   1.219  11.569 -0.0237 -0.1061  0.4389
 5062TIP3    H136677   3.263   1.268  11.651  0.3490 -0.0707  0.4083
 5062TIP3    H236678   3.167   1.214  11.547 -0.0388  1.1454  0.1071
 5063TIP3   OH236679   5.189   4.357  13.774 -0.3153  0.5988  0.2752
 5063TIP3    H136680   5.273   4.333  13.813 -0.5143 -0.2644  0.1937
 5063TIP3    H236681   5.136   4.390  13.847  0.4275  2.1321  0.1607
 5064TIP3   OH236682   2.803   6.749  15.676 -0.5638  0.0821 -0.3488
 5064TIP3    H136683   2.806   6.682  15.744 -1.1746  0.5672  0.1692
 5064TIP3    H236684   2.795   6.832  15.724 -1.0742  0.4256 -1.0020
 5065TIP3   OH236685   3.956   5.337   2.697  0.0948  0.0348 -0.8601
 5065TIP3    H136686   3.955   5.311   2.789  0.6975 -1.4702 -1.2546
 5065TIP3    H236687   3.887   5.403   2.690  1.3667  1.7056  1.0792
 5066TIP3   OH236688   5.353   6.064   2.113  0.6887  0.7402 -0.3000
 5066TIP3    H136689   5.267   6.076   2.071  0.6535 -0.3909 -0.5993
 5066TIP3    H236690   5.369   6.147   2.159 -0.4718  1.0494 -0.4008
 5067TIP3   OH236691   6.617   4.611  15.432 -0.2913 -0.0394  0.1881
 5067TIP3    H136692   6.527   4.638  15.415  0.0236  0.4031 -0.8289
 5067TIP3    H236693   6.647   4.572  15.350  0.1079 -1.1585  0.8426
 5068TIP3   OH236694   0.307   4.752  15.534 -0.3417 -0.7851 -0.1075
 5068TIP3    H136695   0.306   4.847  15.542  1.1145 -0.6635 -1.0653
 5068TIP3    H236696   0.272   4.721  15.618  1.2911  0.5825  1.1574
 5069TIP3   OH236697   1.031   3.896  13.826  0.4286 -0.0275  0.1760
 5069TIP3    H136698   1.104   3.957  13.811  0.3076  0.4131  1.2767
 5069TIP3    H236699   0.985   3.893  13.742  1.2093  0.3593 -0.2833
 5070TIP3   OH236700   1.972   5.347  13.603  0.2571 -0.7931  0.0613
 5070TIP3    H136701   1.975   5.253  13.589  0.1257 -0.6320 -1.1503
 5070TIP3    H236702   2.059   5.369  13.637  1.2179 -1.0073 -2.0993
 5071TIP3   OH236703   2.254   6.117   3.203 -0.4401  0.3845  0.5588
 5071TIP3    H136704   2.313   6.178   3.247 -0.0022 -0.4886  1.2110
 5071TIP3    H236705   2.174   6.167   3.188 -0.0100  1.1807  0.8713
 5072TIP3   OH236706   5.960   4.286   4.289 -0.1527  0.1655  0.4749
 5072TIP3    H136707   5.888   4.231   4.319 -1.8106  0.8631 -1.9797
 5072TIP3    H236708   6.038   4.232   4.302 -1.4819 -1.9822  0.0396
 5073TIP3   OH236709   4.128   6.197  12.953 -0.1445  0.1205 -0.7080
 5073TIP3    H136710   4.166   6.276  12.914 -0.3726 -0.5678 -2.3962
 5073TIP3    H236711   4.167   6.193  13.041 -0.2915  2.2121 -0.4909
 5074TIP3   OH236712   1.488   0.997   0.657 -0.1046 -0.2964  0.2624
 5074TIP3    H136713   1.553   1.053   0.614 -1.2299  2.2481  1.6558
 5074TIP3    H236714   1.412   1.053   0.669 -1.8868 -2.5974  0.4829
 5075TIP3   OH236715   2.854   1.881  11.335  0.2419  0.5122  0.4995
 5075TIP3    H136716   2.918   1.945  11.302 -0.1296  0.8208  0.3658
 5075TIP3    H236717   2.807   1.852  11.257  0.0639  0.4599  0.6257
 5076TIP3   OH236718   2.283   0.828   0.363  0.0307  0.1119  0.0558
 5076TIP3    H136719   2.242   0.843   0.448  0.8110 -0.9028  0.6269
 5076TIP3    H236720   2.228   0.763   0.321  1.0992 -1.4082  0.9075
 5077TIP3   OH236721   0.546   0.817  10.767  0.0320  0.4230  0.0404
 5077TIP3    H136722   0.606   0.776  10.705 -1.2969 -3.5816  1.0427
 5077TIP3    H236723   0.600   0.836  10.844  0.7902  0.9909 -0.6164
 5078TIP3   OH236724   4.734   3.889  13.619  0.5199  0.2820  0.3879
 5078TIP3    H136725   4.686   3.878  13.537  1.8151 -2.7271 -0.1377
 5078TIP3    H236726   4.667   3.905  13.684 -0.9343 -0.7358 -0.7726
 5079TIP3   OH236727   3.138   4.779   0.654 -0.0068 -0.0324  0.0040
 5079TIP3    H136728   3.074   4.718   0.689 -1.3318  2.1571  1.7282
 5079TIP3    H236729   3.089   4.833   0.592  0.7975  0.0862 -0.5401
 5080TIP3   OH236730   0.630   6.008   6.240  0.4199 -0.3820  0.1908
 5080TIP3    H136731   0.577   6.043   6.168  0.4336 -0.3449  0.1989
 5080TIP3    H236732   0.719   6.006   6.206  0.2226 -1.7373 -0.3211
 5081TIP3   OH236733   0.083   0.811  11.306  0.0602 -0.4581  0.0924
 5081TIP3    H136734   0.050   0.722  11.318 -0.5043 -0.3629 -0.6643
 5081TIP3    H236735   0.177   0.801  11.297  0.1477 -0.8471  1.2688
 5082TIP3   OH236736   2.585   3.276   6.212 -0.3628  0.3515 -0.4266
 5082TIP3    H136737   2.557   3.242   6.297 -1.1237 -0.6889 -1.0661
 5082TIP3    H236738   2.503   3.293   6.166  0.0435  0.0062 -1.2933
 5083TIP3   OH236739   6.045   2.635   3.771  0.1784 -0.3187  0.0288
 5083TIP3    H136740   5.997   2.672   3.697 -0.7844 -2.4223 -0.4726
 5083TIP3    H236741   6.137   2.633   3.743 -0.2016 -1.2468 -1.2192
 5084TIP3   OH236742   2.044   6.623  14.063 -0.3132  0.7248  0.0087
 5084TIP3    H136743   2.048   6.550  14.125 -0.3667  0.8528  0.1627
 5084TIP3    H236744   2.012   6.697  14.115  0.0792  0.9480 -0.0643
 5085TIP3   OH236745   3.910   6.287   3.039 -0.0118  0.6920  0.4736
 5085TIP3    H136746   3.846   6.249   3.099  0.0831 -2.4888 -1.2388
 5085TIP3    H236747   3.991   6.290   3.090 -0.1305 -1.1066  0.8488
 5086TIP3   OH236748   5.684   2.080   2.410  0.3686 -0.5769  0.1733
 5086TIP3    H136749   5.622   2.027   2.461  1.0624  0.3273  2.0743
 5086TIP3    H236750   5.768   2.034   2.420  0.5694 -0.2230  0.1409
 5087TIP3   OH236751   3.937   3.561   4.031  0.4161  0.2506 -0.1874
 5087TIP3    H136752   3.966   3.584   4.119 -1.6933  1.1799  0.3316
 5087TIP3    H236753   3.866   3.498   4.045  0.1343  0.3221 -1.2107
 5088TIP3   OH236754   6.614   3.451   1.093 -0.6153  0.0804  0.0836
 5088TIP3    H136755   6.613   3.363   1.131 -1.4831 -0.8665 -1.9735
 5088TIP3    H236756   6.703   3.462   1.059 -0.0523  0.6505  1.6259
 5089TIP3   OH236757   1.101   3.792   0.557 -0.0066  0.4419 -0.5106
 5089TIP3    H136758   1.117   3.708   0.514 -0.3745 -0.3556  0.8585
 5089TIP3    H236759   1.186   3.816   0.594 -0.0983  0.2505 -0.1763
 5090TIP3   OH236760   6.618   2.214  14.720  0.5369  0.8149  0.5013
 5090TIP3    H136761   6.711   2.230  14.709  0.8668  0.0518  1.9612
 5090TIP3    H236762   6.603   2.130  14.676  0.2533  1.5302 -0.8321
 5091TIP3   OH236763   6.484   0.943   3.413 -0.2240 -0.5201 -0.1508
 5091TIP3    H136764   6.536   0.876   3.456  1.2295  1.3716  1.1821
 5091TIP3    H236765   6.542   0.980   3.347  1.0130  2.8452  2.5330
 5092TIP3   OH236766   2.138   2.336  14.694  0.7456 -0.4304  0.2462
 5092TIP3    H136767   2.047   2.307  14.699  0.2694  0.6548 -1.4945
 5092TIP3    H236768   2.186   2.258  14.665  0.3357 -0.8860  0.7437
 5093TIP3   OH236769   2.814   0.536  10.782 -0.5146 -0.3026 -0.1294
 5093TIP3    H136770   2.863   0.545  10.864 -0.4080 -0.4659 -0.1717
 5093TIP3    H236771   2.865   0.585  10.718  0.0733 -1.1901 -0.3658
 5094TIP3   OH236772   3.663   0.020  11.023  0.0509  0.1179 -0.6698
 5094TIP3    H136773   3.737  -0.035  11.050  0.0628  0.6917  0.5323
 5094TIP3    H236774   3.701   0.084  10.963 -0.0088 -1.3075 -2.2958
 5095TIP3   OH236775   0.250   1.808   0.757 -0.0484 -0.2444  0.1207
 5095TIP3    H136776   0.181   1.788   0.819  1.3876 -2.5173  1.1297
 5095TIP3    H236777   0.205   1.816   0.673 -1.8581  1.5280  1.1775
 5096TIP3   OH236778   1.484   5.654   2.029  0.4432  0.1073 -0.0576
 5096TIP3    H136779   1.561   5.708   2.047 -0.2842  0.2443  3.2060
 5096TIP3    H236780   1.517   5.582   1.976  2.9440 -0.0659  1.5595
 5097TIP3   OH236781   2.931   0.971   2.630  0.1169  0.0957  0.5033
 5097TIP3    H136782   2.900   0.889   2.590 -0.3403  0.9176 -0.9152
 5097TIP3    H236783   2.855   1.006   2.676  0.3668 -0.3604  1.2755
 5098TIP3   OH236784   1.669   4.990  11.937  0.0932 -0.0349 -0.2268
 5098TIP3    H136785   1.698   4.924  12.001 -1.0908 -0.8801 -0.5243
 5098TIP3    H236786   1.747   5.010  11.886  0.2201 -2.2192 -0.9913
 5099TIP3   OH236787   1.615   2.936   2.541  0.1539 -0.4486 -0.6637
 5099TIP3    H136788   1.622   2.841   2.544  0.6018 -0.3889  1.1598
 5099TIP3    H236789   1.618   2.964   2.632 -1.0037  1.2632 -1.0961
 5100TIP3   OH236790   3.898   5.727   5.712  0.2706  0.4183 -0.1866
 5100TIP3    H136791   3.871   5.705   5.623 -3.0842  1.3120  0.4817
 5100TIP3    H236792   3.829   5.693   5.768  2.9474 -1.3664  2.3435
 5101TIP3   OH236793   0.463   6.314   5.854  0.0940  0.2835  0.0139
 5101TIP3    H136794   0.526   6.242   5.859 -0.0486  0.0411 -1.2590
 5101TIP3    H236795   0.400   6.286   5.787 -1.6735  0.2978  1.6018
 5102TIP3   OH236796   2.908   4.150   2.201 -0.0088 -0.0589 -0.2335
 5102TIP3    H136797   2.824   4.135   2.156 -0.4575 -0.2165  0.6381
 5102TIP3    H236798   2.912   4.082   2.268  1.4783 -0.9227 -1.1431
 5103TIP3   OH236799   6.552   0.430   1.699  0.1618  0.5988 -0.4394
 5103TIP3    H136800   6.602   0.364   1.747  1.8360  0.5820 -2.0764
 5103TIP3    H236801   6.489   0.464   1.763  0.6514 -1.0944  1.0291
 5104TIP3   OH236802   4.100   6.717  12.310 -0.0554 -0.0567 -0.2556
 5104TIP3    H136803   4.093   6.633  12.264  1.2984 -0.0927 -0.4212
 5104TIP3    H236804   4.117   6.693  12.401  1.6031  0.0068 -0.5165
 5105TIP3   OH236805   4.565   1.178  12.059 -0.5039  0.0592 -0.2865
 5105TIP3    H136806   4.513   1.179  11.979 -1.6141 -0.3171  0.4095
 5105TIP3    H236807   4.639   1.237  12.041 -1.9528  1.8115 -0.7937
 5106TIP3   OH236808   4.019   6.220  11.342 -0.7893  0.0493  0.5142
 5106TIP3    H136809   4.048   6.167  11.416 -1.0757  1.5814  1.7783
 5106TIP3    H236810   4.065   6.183  11.266  0.4897 -0.7693  1.6462
 5107TIP3   OH236811   6.062   2.209   3.785  0.1802 -0.1575 -0.6565
 5107TIP3    H136812   6.063   2.133   3.726 -1.9498  0.0244 -1.0055
 5107TIP3    H236813   6.018   2.278   3.735  0.7920  0.8665  0.1762
 5108TIP3   OH236814   0.457   4.504   4.834  0.6786 -0.3835  0.1306
 5108TIP3    H136815   0.377   4.468   4.796  1.8907 -1.6815 -1.2975
 5108TIP3    H236816   0.426   4.559   4.906 -1.6632  1.2331 -1.9422
 5109TIP3   OH236817   3.981   3.332  16.918  0.1942 -0.2709  0.6267
 5109TIP3    H136818   4.059   3.283  16.947  0.0661 -1.1503 -0.4169
 5109TIP3    H236819   3.921   3.328  16.992  1.4389  1.1246  1.7580
 5110TIP3   OH236820   4.257   0.929  13.631 -0.3512 -0.0096  0.4982
 5110TIP3    H136821   4.165   0.904  13.627 -0.8781  1.8447  0.0464
 5110TIP3    H236822   4.277   0.958  13.542  0.4456  0.3222  0.7778
 5111TIP3   OH236823   4.800   2.130   1.021  0.3106 -0.0251  0.4019
 5111TIP3    H136824   4.774   2.093   1.106  2.0674  0.0689  1.0334
 5111TIP3    H236825   4.844   2.058   0.976  3.5486  1.0253  1.5473
 5112TIP3   OH236826   2.949   5.345  11.975  0.1570  0.7668  0.2752
 5112TIP3    H136827   2.866   5.389  11.954 -0.0400  0.0187 -0.5950
 5112TIP3    H236828   2.935   5.254  11.948  1.8061  0.9601 -1.4150
 5113TIP3   OH236829   4.827   3.734   3.382  0.1071 -0.0797 -0.6061
 5113TIP3    H136830   4.919   3.759   3.391 -0.3554  1.2021  1.1639
 5113TIP3    H236831   4.812   3.732   3.288  1.3171  2.3107 -0.9481
 5114TIP3   OH236832   1.808   3.015  15.855 -0.1983 -0.2277 -0.0992
 5114TIP3    H136833   1.733   3.011  15.795 -0.5053 -0.8188  0.3121
 5114TIP3    H236834   1.860   2.938  15.833  0.4968  0.3750 -0.6316
 5115TIP3   OH236835   2.906   4.741   7.945 -0.5264 -0.0430 -0.7920
 5115TIP3    H136836   2.893   4.653   7.981 -4.0015  1.1521  1.2774
 5115TIP3    H236837   2.839   4.750   7.878  1.5349  0.2250 -2.9735
 5116TIP3   OH236838   6.472   5.663  11.448  0.8825 -0.0445  0.1047
 5116TIP3    H136839   6.552   5.698  11.488 -0.5233  2.2313  1.1306
 5116TIP3    H236840   6.501   5.626  11.364  2.9239  1.2167  0.1904
 5117TIP3   OH236841   5.547   5.497  16.103 -0.0635  0.2898 -0.1532
 5117TIP3    H136842   5.483   5.510  16.173 -1.6120 -0.0909 -1.4378
 5117TIP3    H236843   5.579   5.585  16.083  1.6506  0.2601  2.0766
 5118TIP3   OH236844   4.537   5.743  16.198 -0.1178  0.1707  0.4775
 5118TIP3    H136845   4.557   5.732  16.291 -1.2487  0.9609  0.8448
 5118TIP3    H236846   4.443   5.726  16.192  0.1761 -1.1863 -0.7708
 5119TIP3   OH236847   2.343   1.657  10.936  0.3316  0.0510 -0.0142
 5119TIP3    H136848   2.331   1.748  10.965  1.2015  0.0683  0.3241
 5119TIP3    H236849   2.259   1.633  10.898  0.7911  1.7938 -2.3376
 5120TIP3   OH236850   1.407   1.935   4.980  0.1641  0.1081  0.5115
 5120TIP3    H136851   1.408   1.893   4.894  0.6945 -2.8453  1.8178
 5120TIP3    H236852   1.498   1.958   4.997  0.1324  0.2755  0.4498
 5121TIP3   OH236853   3.329   0.358  16.341  0.5195 -0.1165 -0.0522
 5121TIP3    H136854   3.304   0.294  16.408  2.0684 -2.3024 -1.4594
 5121TIP3    H236855   3.425   0.358  16.342  0.5494  1.2385 -0.9748
 5122TIP3   OH236856   6.414   4.293  15.922 -0.2271  0.4857  0.1172
 5122TIP3    H136857   6.373   4.218  15.879  2.8922 -1.6932  0.6508
 5122TIP3    H236858   6.486   4.317  15.865  0.3018  1.5048  1.1783
 5123TIP3   OH236859   3.802   6.416  11.441  0.1165 -0.1127 -0.0113
 5123TIP3    H136860   3.843   6.501  11.462 -0.0801  0.5933 -2.2543
 5123TIP3    H236861   3.845   6.388  11.360  1.5847 -3.1778  1.6483
 5124TIP3   OH236862   4.543   2.101   3.154 -0.0667 -0.2374  0.1047
 5124TIP3    H136863   4.511   2.176   3.104  0.5400  0.0855  0.1996
 5124TIP3    H236864   4.517   2.120   3.244  0.2396 -0.0562  0.1557
 5125TIP3   OH236865   2.295   4.221   6.395  0.2301 -0.5482  0.4774
 5125TIP3    H136866   2.239   4.292   6.425 -0.6406 -0.3523 -1.4569
 5125TIP3    H236867   2.241   4.142   6.402  0.2477 -0.5973  0.1026
 5126TIP3   OH236868   5.985   2.010   0.087 -0.4794  0.2987 -0.5394
 5126TIP3    H136869   5.937   2.080   0.043  1.0779  0.8417 -1.4669
 5126TIP3    H236870   6.029   1.963   0.016  0.6515  0.0659  0.2758
 5127TIP3   OH236871   0.876   5.913   4.372 -0.1763  0.3350 -0.1231
 5127TIP3    H136872   0.825   5.984   4.332  0.2865  0.5586 -0.3156
 5127TIP3    H236873   0.915   5.952   4.450 -1.0110 -0.0791  0.5154
 5128TIP3   OH236874   3.507   6.004  13.655 -0.0071 -0.2640  0.8398
 5128TIP3    H136875   3.597   6.017  13.684 -0.4946 -0.6459  2.6272
 5128TIP3    H236876   3.454   6.056  13.716 -1.0643 -0.8684  0.4589
 5129TIP3   OH236877   2.397   5.146   0.286 -0.1064 -0.1933  0.1193
 5129TIP3    H136878   2.330   5.126   0.221 -0.1396  0.9585 -0.2239
 5129TIP3    H236879   2.365   5.106   0.367 -1.6999  1.1559  0.1947
 5130TIP3   OH236880   5.434   5.890  16.648  0.0386 -0.1998 -0.5217
 5130TIP3    H136881   5.504   5.827  16.659 -0.0807 -0.2481  0.0052
 5130TIP3    H236882   5.478   5.974  16.639  0.1642 -0.2091 -0.0282
 5131TIP3   OH236883   6.033   1.986   4.975 -0.1367  0.1367  0.3828
 5131TIP3    H136884   6.020   1.926   5.049  1.2194 -1.1922 -0.3958
 5131TIP3    H236885   5.984   1.947   4.903 -1.6748  1.5666  0.5739
 5132TIP3   OH236886   6.167   3.187  15.072 -0.1154 -0.2581  0.4374
 5132TIP3    H136887   6.117   3.169  14.992 -0.3055  0.9008  0.2751
 5132TIP3    H236888   6.108   3.238  15.127  1.4497  2.9927 -0.6168
 5133TIP3   OH236889   5.054   1.792  15.530  0.6130  0.4803  0.3976
 5133TIP3    H136890   5.131   1.842  15.501  2.2609 -1.1207  1.7591
 5133TIP3    H236891   5.073   1.771  15.622 -0.4899 -1.7356  0.1710
 5134TIP3   OH236892   4.513   4.092  17.130 -0.4048  0.4950 -0.2743
 5134TIP3    H136893   4.489   4.004  17.161 -0.7310  0.4347 -0.6980
 5134TIP3    H236894   4.535   4.080  17.038 -0.4224  0.8568 -0.3270
 5135TIP3   OH236895   0.902   6.108   1.792 -0.3343  0.0460 -0.2186
 5135TIP3    H136896   0.824   6.125   1.844  0.6157 -0.6475  1.5326
 5135TIP3    H236897   0.975   6.125   1.852  0.8536  0.1404 -1.6286
 5136TIP3   OH236898   5.687   6.699  11.072 -0.2800  0.3419 -0.3079
 5136TIP3    H136899   5.683   6.614  11.029 -2.1804 -0.5968  1.5409
 5136TIP3    H236900   5.778   6.727  11.063  0.0689 -1.2036 -2.1594
 5137TIP3   OH236901   5.992   0.370   5.756  0.3708  0.6679  0.0586
 5137TIP3    H136902   6.045   0.427   5.812  0.1574  0.5216  0.4182
 5137TIP3    H236903   5.915   0.349   5.809  0.4978 -0.0410 -0.0160
 5138TIP3   OH236904   1.756   2.851  11.997 -0.1684 -0.0704 -0.3233
 5138TIP3    H136905   1.780   2.944  12.004  0.5696 -0.3731  2.6644
 5138TIP3    H236906   1.667   2.852  11.961 -0.2713  1.8237 -0.1255
 5139TIP3   OH236907   5.337   1.509   2.739 -0.1062  0.1311 -0.1877
 5139TIP3    H136908   5.312   1.601   2.743 -1.4169 -0.1748 -0.7358
 5139TIP3    H236909   5.433   1.510   2.738 -0.0364  1.3853  1.8142
 5140TIP3   OH236910   5.666   1.643   2.378 -0.5914  0.4768 -0.0086
 5140TIP3    H136911   5.582   1.685   2.396 -0.9088  0.2806 -0.9774
 5140TIP3    H236912   5.650   1.588   2.301 -0.1117 -1.1851  1.0208
 5141TIP3   OH236913   5.716   5.123   1.563  0.3050 -0.7021  0.0287
 5141TIP3    H136914   5.750   5.210   1.585  0.2911 -1.1698  2.1275
 5141TIP3    H236915   5.707   5.124   1.468  0.2680  1.6029 -0.0056
 5142TIP3   OH236916   2.086   4.293  13.751  0.1901  0.3040 -0.0641
 5142TIP3    H136917   2.077   4.384  13.779  1.2206  0.1132  0.9408
 5142TIP3    H236918   1.998   4.269  13.721 -0.3002  1.3620  0.4615
 5143TIP3   OH236919   4.383   3.058  11.303  0.2400 -0.1681 -0.6778
 5143TIP3    H136920   4.378   2.967  11.332  0.7924 -0.4979 -1.5527
 5143TIP3    H236921   4.466   3.062  11.254 -0.0281  0.6710 -1.0738
 5144TIP3   OH236922   1.936   0.597   0.028  0.0737  0.0541  0.3691
 5144TIP3    H136923   1.915   0.679  -0.017 -0.4146 -0.5136 -0.4740
 5144TIP3    H236924   1.851   0.557   0.046  0.2885 -1.7763 -2.1343
 5145TIP3   OH236925   6.028   3.756   2.417 -0.4591  0.1107  0.8898
 5145TIP3    H136926   6.051   3.671   2.379 -0.6074  0.6313 -0.4087
 5145TIP3    H236927   6.057   3.750   2.508  1.3422 -0.6340  0.3097
 5146TIP3   OH236928   2.790   1.275   0.538 -0.2020  0.6055 -0.6741
 5146TIP3    H136929   2.720   1.262   0.474  0.0799  1.6584 -1.2125
 5146TIP3    H236930   2.746   1.308   0.616 -0.3987  0.4492 -0.7173
 5147TIP3   OH236931   3.350   1.318   5.325 -0.4409 -0.7699 -0.4593
 5147TIP3    H136932   3.287   1.389   5.323 -1.9779 -2.1065 -1.8406
 5147TIP3    H236933   3.313   1.255   5.387 -0.0245 -1.1738 -0.6166
 5148TIP3   OH236934   3.880   0.082  14.892 -0.2552 -0.1256 -0.4426
 5148TIP3    H136935   3.831   0.157  14.926 -0.5256  0.1403 -1.3854
 5148TIP3    H236936   3.820   0.008  14.899 -0.3954 -0.0235 -0.5733
 5149TIP3   OH236937   1.323   2.671  13.838  0.3835 -0.3044  0.1321
 5149TIP3    H136938   1.364   2.593  13.801 -0.8526 -0.6743 -0.5181
 5149TIP3    H236939   1.265   2.637  13.907 -0.9243 -0.0936 -0.8197
 5150TIP3   OH236940   1.324   2.128   6.104 -0.1468 -0.0540 -0.1364
 5150TIP3    H136941   1.241   2.149   6.062 -0.6497 -0.0849  0.8244
 5150TIP3    H236942   1.375   2.209   6.099 -1.4209  0.9493  2.0092
 5151TIP3   OH236943   3.222   1.792  13.878  0.0570  0.0186 -0.2993
 5151TIP3    H136944   3.208   1.697  13.882  0.3549  0.0271  1.7305
 5151TIP3    H236945   3.279   1.804  13.802 -1.7160 -1.1556 -1.9488
 5152TIP3   OH236946   6.705   1.250  15.073 -0.4836  0.1029  0.0980
 5152TIP3    H136947   6.798   1.267  15.060 -0.3055 -0.9655 -0.1104
 5152TIP3    H236948   6.693   1.159  15.046 -1.6828  0.3715 -0.3372
 5153TIP3   OH236949   4.141   2.635   2.267 -0.0263 -0.3225  0.3454
 5153TIP3    H136950   4.148   2.720   2.224 -0.3507 -0.4619  0.0119
 5153TIP3    H236951   4.206   2.580   2.224 -0.7171 -0.6158 -0.3492
 5154TIP3   OH236952   2.005   5.781   2.383  0.7737  0.1849 -0.1130
 5154TIP3    H136953   2.010   5.746   2.472  0.8767  3.5028  1.3256
 5154TIP3    H236954   2.094   5.775   2.350  0.7486 -1.0110 -0.0163
 5155TIP3   OH236955   4.082   1.669  16.125 -0.0103 -0.2819 -0.8233
 5155TIP3    H136956   4.132   1.628  16.195  1.5090 -0.8987 -2.2185
 5155TIP3    H236957   3.998   1.624  16.126  0.3415 -0.9387 -0.0324
 5156TIP3   OH236958   6.605   2.963  17.004 -0.6028  0.1987  0.1259
 5156TIP3    H136959   6.594   2.878  17.046 -2.3952  0.0631 -0.5148
 5156TIP3    H236960   6.580   3.026  17.071 -2.7940  0.0101 -0.4130
 5157TIP3   OH236961   0.547   2.124  13.808 -0.5763  0.2982 -0.0376
 5157TIP3    H136962   0.565   2.067  13.733 -1.3171 -0.5564  0.4037
 5157TIP3    H236963   0.476   2.079  13.855 -0.4428  1.0544  0.9152
 5158TIP3   OH236964   5.653   3.459   1.098  0.6004 -1.0400 -0.0472
 5158TIP3    H136965   5.630   3.381   1.047 -2.1286  0.4023 -1.2325
 5158TIP3    H236966   5.573   3.482   1.144  1.3163  1.0632  0.2632
 5159TIP3   OH236967   5.414   3.522  12.208 -0.3978  0.6983 -0.5099
 5159TIP3    H136968   5.347   3.477  12.156 -0.3024 -0.1661  0.0914
 5159TIP3    H236969   5.497   3.487  12.176 -0.2513  1.4080 -0.9185
 5160TIP3   OH236970   6.323   3.288  10.919  0.2792 -0.3359  0.0861
 5160TIP3    H136971   6.326   3.208  10.866 -1.8976 -0.0857 -0.5295
 5160TIP3    H236972   6.247   3.275  10.976  0.7342  0.7233  0.9667
 5161TIP3   OH236973   6.460   3.984  11.142 -0.4843  0.1960 -0.0579
 5161TIP3    H136974   6.446   3.925  11.068  0.0997 -0.3562  0.2607
 5161TIP3    H236975   6.372   4.005  11.172 -0.7247  0.2626 -0.7791
 5162TIP3   OH236976   5.776   0.919   5.725 -0.0541 -0.0873  0.2865
 5162TIP3    H136977   5.731   0.982   5.669 -1.6667 -2.1275 -0.8759
 5162TIP3    H236978   5.790   0.965   5.807 -0.4849  1.9936 -0.7423
 5163TIP3   OH236979   1.749   0.430   4.884 -0.0218 -0.5698  0.5670
 5163TIP3    H136980   1.832   0.455   4.844 -0.4323 -0.2253 -0.0791
 5163TIP3    H236981   1.774   0.383   4.964  0.7853  1.0936  1.3416
 5164TIP3   OH236982   0.949   2.796  17.054 -0.3100  0.6330 -0.3921
 5164TIP3    H136983   0.907   2.832  16.976  0.8178  2.1118 -0.3748
 5164TIP3    H236984   0.905   2.713  17.069  1.2334 -1.1232 -4.2421
 5165TIP3   OH236985   2.931   2.293   2.347 -0.1662 -0.0460 -0.2599
 5165TIP3    H136986   2.871   2.275   2.274  0.9190 -2.5525 -0.6304
 5165TIP3    H236987   2.994   2.356   2.311 -0.8122  0.3109 -0.8025
 5166TIP3   OH236988   0.378   2.095   3.392 -0.2534  0.1076  0.0932
 5166TIP3    H136989   0.471   2.085   3.375 -0.2231  1.1745 -0.4211
 5166TIP3    H236990   0.336   2.032   3.335 -0.0574  2.4229 -2.8336
 5167TIP3   OH236991   2.771   5.691  15.831 -0.0686 -0.0658 -0.2631
 5167TIP3    H136992   2.713   5.719  15.902  0.1565  1.1266 -0.5227
 5167TIP3    H236993   2.712   5.657  15.763 -0.6389  2.3621 -1.0887
 5168TIP3   OH236994   5.756   3.318  13.235  0.1043 -0.4871 -0.9450
 5168TIP3    H136995   5.813   3.242  13.219  0.5755 -0.0360 -1.4629
 5168TIP3    H236996   5.707   3.329  13.153 -2.3976 -2.2142  0.2005
 5169TIP3   OH236997   6.041   4.206  11.362  0.2469  0.4093 -0.1201
 5169TIP3    H136998   6.058   4.275  11.426 -0.3166  1.9035 -1.5399
 5169TIP3    H236999   5.955   4.226  11.326 -0.7279 -2.0178  0.5984
 5170TIP3   OH237000   3.338   3.114   2.268 -0.7525  0.5151 -0.1784
 5170TIP3    H137001   3.338   3.030   2.223  0.2850  0.4650 -0.1152
 5170TIP3    H237002   3.330   3.092   2.360  1.3850  0.3454  0.0058
 5171TIP3   OH237003   5.525   3.941   5.703  0.0421 -0.4674 -0.3086
 5171TIP3    H137004   5.476   4.003   5.649 -0.0286 -0.9868 -0.8466
 5171TIP3    H237005   5.473   3.861   5.702 -0.3201 -0.2806  1.1181
 5172TIP3   OH237006   2.246   0.334  12.517 -0.7284 -0.7529  0.1872
 5172TIP3    H137007   2.259   0.390  12.440  0.0549 -2.2564 -0.8183
 5172TIP3    H237008   2.292   0.380  12.588  3.0854 -1.7179 -1.3886
 5173TIP3   OH237009   2.161   2.355   1.247 -0.3183  0.2753 -0.2899
 5173TIP3    H137010   2.128   2.440   1.275 -0.7031  0.5485 -1.5497
 5173TIP3    H237011   2.117   2.338   1.164  0.7245 -0.5661 -0.6860
 5174TIP3   OH237012   2.656   0.803   6.079  0.1344  0.2623  0.1303
 5174TIP3    H137013   2.584   0.799   6.143 -0.5499  2.6693 -0.3749
 5174TIP3    H237014   2.726   0.850   6.125 -0.1831  1.5732 -0.6769
 5175TIP3   OH237015   0.488   5.627  15.294  0.2400  0.3398  0.0173
 5175TIP3    H137016   0.399   5.661  15.299  0.2003  0.0982  1.2785
 5175TIP3    H237017   0.491   5.558  15.360  1.4478  0.5563  0.2141
 5176TIP3   OH237018   1.975   2.535  11.686  0.6048 -0.4523  0.3331
 5176TIP3    H137019   2.001   2.617  11.728 -1.2057  0.6333 -0.5349
 5176TIP3    H237020   2.038   2.522  11.616  1.2001 -0.0836  0.7948
 5177TIP3   OH237021   3.661   6.672   1.333  0.4854 -0.2328 -0.1505
 5177TIP3    H137022   3.565   6.664   1.334  0.4730 -0.2621 -1.1581
 5177TIP3    H237023   3.693   6.585   1.311  0.7668 -0.3101  0.5347
 5178TIP3   OH237024   3.182   1.332  13.904  0.1617 -0.3616 -0.0837
 5178TIP3    H137025   3.208   1.398  13.839  0.4254  0.0093  0.3911
 5178TIP3    H237026   3.152   1.383  13.979 -0.1478 -0.7886  0.0829
 5179TIP3   OH237027   1.688   2.404  14.233  0.2468  0.3521 -0.9131
 5179TIP3    H137028   1.733   2.415  14.149  1.7304 -0.4057 -0.2571
 5179TIP3    H237029   1.753   2.362  14.289 -1.0932 -0.1840  0.2859
 5180TIP3   OH237030   5.311   5.575  17.026 -0.1362  0.2991  0.2993
 5180TIP3    H137031   5.343   5.499  16.978  0.4614  0.9925 -0.4301
 5180TIP3    H237032   5.386   5.607  17.075 -0.7089 -0.3153  1.6137
 5181TIP3   OH237033   2.866   3.480   2.856  0.1887 -0.3462  0.1475
 5181TIP3    H137034   2.822   3.471   2.941  0.3921  0.5210  0.3559
 5181TIP3    H237035   2.819   3.421   2.798 -1.4104  0.6968  0.3103
 5182TIP3   OH237036   0.975   1.090  16.827 -0.1384 -0.4389  0.5242
 5182TIP3    H137037   0.889   1.128  16.844 -0.3165 -0.8501  0.5561
 5182TIP3    H237038   0.977   1.010  16.880  0.7117  0.1633  1.4352
 5183TIP3   OH237039   0.895   3.748   4.828  0.5765  0.2994 -0.2089
 5183TIP3    H137040   0.897   3.798   4.910  0.4969  0.6325 -0.4102
 5183TIP3    H237041   0.979   3.765   4.787  0.1074  1.1893 -0.8250
 5184TIP3   OH237042   2.336   6.295   5.089 -0.7149  0.3246  0.2655
 5184TIP3    H137043   2.244   6.294   5.063 -0.8336 -1.4603  0.6010
 5184TIP3    H237044   2.334   6.299   5.185 -0.6098 -2.5100  0.4884
 5185TIP3   OH237045   2.957   2.614   3.462 -0.0396  0.7694 -0.6215
 5185TIP3    H137046   2.947   2.708   3.476  0.1138  0.9218 -1.5018
 5185TIP3    H237047   3.036   2.591   3.511  0.3503  1.2440 -1.0238
 5186TIP3   OH237048   6.522   4.311  13.802  0.1895 -0.0218 -0.1706
 5186TIP3    H137049   6.552   4.388  13.850  2.3093  0.2736 -1.8251
 5186TIP3    H237050   6.433   4.332  13.775  0.3627  1.3866  0.3006
 5187TIP3   OH237051   2.777   1.070  12.210 -0.0366  0.3965  0.5108
 5187TIP3    H137052   2.755   0.995  12.267 -0.0641  1.0757  1.4254
 5187TIP3    H237053   2.856   1.042  12.164 -0.5442 -0.5359  0.1723
 5188TIP3   OH237054   2.668   4.095   1.297  0.8119  0.2327  0.1212
 5188TIP3    H137055   2.643   4.127   1.210  1.3213 -0.2506 -0.2090
 5188TIP3    H237056   2.763   4.085   1.293  0.7259 -0.9026  0.3416
 5189TIP3   OH237057   0.783   0.344   4.366 -0.0624  0.2689  0.0240
 5189TIP3    H137058   0.797   0.407   4.296 -0.5609  2.5520  1.8719
 5189TIP3    H237059   0.866   0.341   4.413  0.4471 -1.6659 -0.8871
 5190TIP3   OH237060   0.428   6.325   1.207  0.2266  0.5724  0.0128
 5190TIP3    H137061   0.504   6.277   1.171  1.5252  1.4396  1.5028
 5190TIP3    H237062   0.411   6.394   1.142  2.0160  1.6078  0.5801
 5191TIP3   OH237063   0.785   2.146  14.284  0.0507  0.0663 -0.8821
 5191TIP3    H137064   0.723   2.213  14.254  0.4811  0.6748 -0.4435
 5191TIP3    H237065   0.871   2.186  14.273  0.2695 -0.0702  0.2082
 5192TIP3   OH237066   0.827   2.314   1.334  0.6337  0.0428 -0.0730
 5192TIP3    H137067   0.818   2.409   1.323 -0.9618 -0.1695 -0.8438
 5192TIP3    H237068   0.752   2.288   1.388  0.9682 -0.8026  0.0067
 5193TIP3   OH237069   3.801   2.489   2.028 -0.2850 -0.3497  0.0942
 5193TIP3    H137070   3.823   2.472   1.936  0.4789 -0.0163  0.2048
 5193TIP3    H237071   3.825   2.581   2.041 -0.2046 -0.4504  0.6776
 5194TIP3   OH237072   1.402   1.912   3.235  0.2619  0.3935  0.0616
 5194TIP3    H137073   1.413   1.976   3.306  0.7678  1.7287 -1.1883
 5194TIP3    H237074   1.375   1.832   3.280 -0.1877  1.4117  1.6969
 5195TIP3   OH237075   1.667   3.665   2.529 -0.0466 -0.5250 -0.1974
 5195TIP3    H137076   1.582   3.672   2.485  0.2994  0.5095 -0.7142
 5195TIP3    H237077   1.719   3.608   2.472 -0.4852 -1.4621  0.3019
 5196TIP3   OH237078   5.080   3.607   4.807  0.5308  0.2755 -0.4389
 5196TIP3    H137079   5.003   3.590   4.752 -0.5448  2.1949  0.4157
 5196TIP3    H237080   5.110   3.694   4.781  1.5282  0.1693  0.2827
 5197TIP3   OH237081   0.649   0.379  16.727  0.2835  0.4751 -0.4991
 5197TIP3    H137082   0.605   0.395  16.811  0.7110 -0.7376 -0.0070
 5197TIP3    H237083   0.603   0.303  16.690  1.6057 -0.5178 -0.1966
 5198TIP3   OH237084   5.972   0.310  14.906 -0.2007  0.3828  0.0200
 5198TIP3    H137085   6.024   0.371  14.957  0.6947  0.6881 -1.2201
 5198TIP3    H237086   5.925   0.364  14.843  0.7265 -0.1892 -1.2013
 5199TIP3   OH237087   1.595   6.608  13.350  0.0791  0.4928  0.2178
 5199TIP3    H137088   1.645   6.530  13.325 -1.2442  0.6904 -3.6736
 5199TIP3    H237089   1.636   6.679  13.301 -2.8360  0.9148 -1.8913
 5200TIP3   OH237090   4.916   1.546   2.581  0.0525  0.5683  0.2422
 5200TIP3    H137091   4.962   1.466   2.556 -0.0732 -0.2087  2.3577
 5200TIP3    H237092   4.867   1.571   2.502  1.3279 -0.5267 -0.9397
 5201TIP3   OH237093   3.048   4.085   5.593  0.2993  0.3613  0.8330
 5201TIP3    H137094   3.103   4.009   5.610  0.6957  0.5659  0.4597
 5201TIP3    H237095   2.982   4.053   5.530  0.1153  0.1774  1.1146
 5202TIP3   OH237096   2.688   5.692   3.514  0.0398  0.1243 -0.1253
 5202TIP3    H137097   2.740   5.768   3.488 -1.4171  0.5078 -2.2181
 5202TIP3    H237098   2.723   5.620   3.462 -0.3931  0.0100 -0.2647
 5203TIP3   OH237099   3.656   2.167  16.114  0.3531  0.1028  0.3326
 5203TIP3    H137100   3.624   2.077  16.126  0.7671 -0.3534 -1.6688
 5203TIP3    H237101   3.699   2.188  16.197  1.4439 -2.0709  0.3906
 5204TIP3   OH237102   5.555   2.591  14.341  0.0137 -0.4562 -0.4173
 5204TIP3    H137103   5.588   2.502  14.353 -1.6128 -0.9515  0.7615
 5204TIP3    H237104   5.600   2.642  14.410  0.7711 -0.3931 -0.9451
 5205TIP3   OH237105   2.143   4.688   4.961  0.1028  0.3226 -0.3660
 5205TIP3    H137106   2.060   4.704   4.915 -0.4308  2.7462  1.2256
 5205TIP3    H237107   2.202   4.756   4.927  0.8996 -0.2852 -0.2189
 5206TIP3   OH237108   1.059   5.079   1.132 -0.1694  0.0818  0.0939
 5206TIP3    H137109   1.010   5.062   1.212 -2.3310  0.4037 -1.0794
 5206TIP3    H237110   1.033   5.167   1.105 -0.8972 -0.6613 -1.8463
 5207TIP3   OH237111   2.598   0.415   5.545  0.3511  0.2609  0.1774
 5207TIP3    H137112   2.510   0.396   5.513 -0.2262  2.1016  0.5849
 5207TIP3    H237113   2.629   0.487   5.491  1.5897 -0.2893  0.1103
 5208TIP3   OH237114   6.499   4.598   4.439 -0.5465 -0.4755 -0.0821
 5208TIP3    H137115   6.469   4.520   4.486  0.2199 -2.3331 -2.4745
 5208TIP3    H237116   6.580   4.623   4.484 -1.8547  0.2541  1.9842
 5209TIP3   OH237117   0.327   1.003   1.859  0.1337 -0.8606 -0.3437
 5209TIP3    H137118   0.313   1.008   1.954  1.1399  1.5837 -0.2507
 5209TIP3    H237119   0.420   1.027   1.848 -0.5229  1.2263 -2.0475
 5210TIP3   OH237120   1.483   1.382  13.019  0.2796 -0.0182 -0.1943
 5210TIP3    H137121   1.423   1.355  12.950 -1.1503  0.4601  0.8113
 5210TIP3    H237122   1.508   1.300  13.062  1.0056 -0.2960 -1.1236
 5211TIP3   OH237123   3.191   1.600  16.705 -0.4264 -0.2009 -0.1150
 5211TIP3    H137124   3.278   1.618  16.668  0.5019 -0.0809  1.9267
 5211TIP3    H237125   3.167   1.681  16.750 -1.1055 -0.5968  0.2489
 5212TIP3   OH237126   5.680   4.008  11.489  0.4053 -0.3619  0.2257
 5212TIP3    H137127   5.649   4.093  11.459 -0.9757 -0.0523  2.3384
 5212TIP3    H237128   5.602   3.953  11.489  0.6994 -0.8081  1.5541
 5213TIP3   OH237129   6.823   2.845   0.566  0.3998 -0.6279  0.2844
 5213TIP3    H137130   6.810   2.902   0.642 -1.2703  0.0353 -0.4404
 5213TIP3    H237131   6.777   2.764   0.589 -0.8861 -0.1027 -0.3253
 5214TIP3   OH237132   1.788   6.799   6.072 -0.1148  0.1334 -0.0869
 5214TIP3    H137133   1.872   6.763   6.041 -0.0888  0.9199 -0.9682
 5214TIP3    H237134   1.743   6.724   6.112  0.3656 -0.6516 -0.9896
 5215TIP3   OH237135   2.887   2.611  15.656 -0.1980  0.7267 -0.2475
 5215TIP3    H137136   2.876   2.597  15.750 -3.6084 -1.2490 -0.7532
 5215TIP3    H237137   2.927   2.530  15.625 -1.0709  0.4710 -0.7297
 5216TIP3   OH237138   6.395   4.449  15.081  0.3444 -0.2198  0.5467
 5216TIP3    H137139   6.390   4.389  15.007 -1.4360  0.9314 -0.3342
 5216TIP3    H237140   6.477   4.496  15.069  0.2521 -0.3081 -0.5064
 5217TIP3   OH237141   5.275   3.915  15.144 -0.1052 -0.1756  0.0864
 5217TIP3    H137142   5.231   3.844  15.097 -0.2242 -2.1271  2.8848
 5217TIP3    H237143   5.203   3.972  15.172 -0.3490 -0.5781  0.3062
 5218TIP3   OH237144   1.610   1.551  15.369  0.1155  0.4840  0.1656
 5218TIP3    H137145   1.679   1.616  15.383  1.0871 -0.3096 -0.7851
 5218TIP3    H237146   1.540   1.577  15.429  0.5077  2.3431 -0.1195
 5219TIP3   OH237147   6.588   5.308   5.410 -0.0456  0.4645  0.0218
 5219TIP3    H137148   6.620   5.315   5.321  0.8503  1.6577  0.4253
 5219TIP3    H237149   6.599   5.215   5.432  1.1158  0.4471 -0.5885
 5220TIP3   OH237150   2.824   0.872   3.455  0.0639 -0.6975  0.8487
 5220TIP3    H137151   2.731   0.869   3.435  0.2702 -1.7862 -0.0716
 5220TIP3    H237152   2.867   0.846   3.373  1.2976  1.8268  0.5767
 5221TIP3   OH237153   2.211   0.334  11.467 -0.3509  0.0046  0.3940
 5221TIP3    H137154   2.224   0.264  11.403  2.7592  0.2670  0.5697
 5221TIP3    H237155   2.212   0.415  11.416 -0.9923  0.0681  0.4781
 5222TIP3   OH237156   4.930   2.169   3.633 -0.0930  0.0715  0.0578
 5222TIP3    H137157   4.858   2.145   3.575  0.1009  0.5685 -0.4011
 5222TIP3    H237158   4.888   2.204   3.711 -0.3640 -1.0469  0.4335
 5223TIP3   OH237159   0.761   0.237  13.175 -0.6622 -0.2876  0.2510
 5223TIP3    H137160   0.678   0.199  13.145 -0.0602 -0.1642 -1.6963
 5223TIP3    H237161   0.827   0.173  13.149 -0.1369 -0.4396  1.8898
 5224TIP3   OH237162   6.593   0.853   6.567  0.3828 -0.0532  0.3613
 5224TIP3    H137163   6.569   0.761   6.562  0.8516 -0.1602 -0.0355
 5224TIP3    H237164   6.547   0.895   6.494  2.1401 -0.4451 -1.0595
 5225TIP3   OH237165   1.644   6.670   6.471 -0.2101  0.3257  0.6687
 5225TIP3    H137166   1.682   6.758   6.474  2.1242 -0.5555 -0.6757
 5225TIP3    H237167   1.719   6.611   6.466 -1.7379 -1.6417 -0.7044
 5226TIP3   OH237168   1.652   2.906   6.586 -0.0586  0.0137  0.3116
 5226TIP3    H137169   1.609   2.838   6.534 -1.9274 -0.2358  2.0535
 5226TIP3    H237170   1.736   2.869   6.610  0.8486  0.0993 -2.3507
 5227TIP3   OH237171   0.949   5.343  15.365 -0.0502 -0.1782  0.6204
 5227TIP3    H137172   0.956   5.370  15.273  0.1718 -0.0149  0.6845
 5227TIP3    H237173   1.001   5.407  15.413 -1.4376  0.6608  1.0545
 5228TIP3   OH237174   0.361   3.797  16.235  0.3786 -0.5535  0.2613
 5228TIP3    H137175   0.328   3.848  16.309 -2.7311 -1.4184 -0.3973
 5228TIP3    H237176   0.286   3.790  16.175  2.4757 -0.7293 -2.5501
 5229TIP3   OH237177   6.752   3.954   2.049 -0.3697  0.0165  0.0289
 5229TIP3    H137178   6.670   3.910   2.028 -0.7545 -0.0466  1.5262
 5229TIP3    H237179   6.806   3.885   2.089  0.7719 -0.1622 -1.7276
 5230TIP3   OH237180   5.729   4.304   2.161  0.4431  0.0951  0.0242
 5230TIP3    H137181   5.684   4.236   2.111 -1.1482  0.2586  1.1477
 5230TIP3    H237182   5.817   4.269   2.175 -0.6268 -2.3029  1.4922
 5231TIP3   OH237183   6.396   6.795   1.800 -0.5029 -0.1048  0.2438
 5231TIP3    H137184   6.486   6.763   1.794 -0.6878 -1.8367  3.9689
 5231TIP3    H237185   6.353   6.759   1.722  1.0099 -3.1444  0.6717
 5232TIP3   OH237186   5.597   4.648   3.856 -0.0436  0.4789 -0.6614
 5232TIP3    H137187   5.661   4.602   3.803 -0.4885 -0.8505 -0.0878
 5232TIP3    H237188   5.638   4.658   3.942 -0.1099  0.7918 -0.6635
 5233TIP3   OH237189   5.048   0.891   5.507  0.3446 -0.0462  0.5701
 5233TIP3    H137190   4.965   0.939   5.503 -0.9080 -2.0943  0.9800
 5233TIP3    H237191   5.055   0.847   5.422  0.7809 -0.2682  0.7161
 5234TIP3   OH237192   5.773   2.198  14.577  0.4154  0.2617  0.3828
 5234TIP3    H137193   5.848   2.233  14.626  1.3897  0.1450 -0.9645
 5234TIP3    H237194   5.786   2.103  14.578 -0.3122  0.1522  1.0264
 5235TIP3   OH237195   3.929   2.477  14.927 -0.1108 -0.0161 -0.8302
 5235TIP3    H137196   3.875   2.530  14.869 -0.1046 -1.0782 -1.8443
 5235TIP3    H237197   4.005   2.532  14.946 -1.0118  1.0734 -0.2645
 5236TIP3   OH237198   5.918   3.674  16.501 -0.4864 -0.3018 -0.4701
 5236TIP3    H137199   5.871   3.662  16.583 -1.6067  1.9735 -0.6863
 5236TIP3    H237200   5.850   3.699  16.438  0.3406 -1.9843 -2.1316
 5237TIP3   OH237201   3.592   2.953   1.042 -0.1392  0.0170 -0.2273
 5237TIP3    H137202   3.507   2.993   1.028 -0.2932  1.2430  3.2305
 5237TIP3    H237203   3.640   2.970   0.961 -2.5922  0.7313 -1.6452
 5238TIP3   OH237204   0.917   4.441   6.208  0.2642  0.3879 -0.0042
 5238TIP3    H137205   0.900   4.509   6.141  3.3289 -0.0037 -1.3535
 5238TIP3    H237206   0.959   4.489   6.279 -0.1519  0.3087  0.2987
 5239TIP3   OH237207   6.724   6.326   3.033  0.1283 -0.1197 -0.0594
 5239TIP3    H137208   6.688   6.347   3.120  2.0230  2.3137  0.2599
 5239TIP3    H237209   6.651   6.285   2.986 -2.0542  1.6294  1.5525
 5240TIP3   OH237210   0.979   3.380  10.714  0.1302 -0.4073 -0.0379
 5240TIP3    H137211   0.907   3.328  10.679  2.6355 -2.7445 -2.0979
 5240TIP3    H237212   0.986   3.455  10.655 -1.1523  0.3674  0.7514
 5241TIP3   OH237213   4.383   2.589  13.887  0.0857  0.0973  0.9443
 5241TIP3    H137214   4.349   2.509  13.845  2.5705 -0.6343  0.1342
 5241TIP3    H237215   4.442   2.557  13.955  1.7307  1.1741  0.1003
 5242TIP3   OH237216   1.921   3.522  12.418  0.0912  0.2248 -0.0558
 5242TIP3    H137217   1.967   3.520  12.334 -0.7013  0.6388 -0.5049
 5242TIP3    H237218   1.836   3.559  12.398 -0.6145 -0.9259  0.6946
 5243TIP3   OH237219   3.599   0.442   2.779 -0.5464  0.0298 -0.3068
 5243TIP3    H137220   3.637   0.354   2.769 -1.0183 -0.3555  1.0010
 5243TIP3    H237221   3.674   0.501   2.781 -0.1497 -0.4740 -0.1016
 5244TIP3   OH237222   4.413   5.005   6.614  0.3891 -0.6379  0.4814
 5244TIP3    H137223   4.471   4.931   6.633  1.6739  0.4750  1.0549
 5244TIP3    H237224   4.472   5.080   6.604 -0.7587  0.0781 -1.4858
 5245TIP3   OH237225   4.629   5.784   4.656  0.2621 -0.5061  0.3820
 5245TIP3    H137226   4.647   5.808   4.748  0.0655 -0.1153  0.3220
 5245TIP3    H237227   4.630   5.868   4.610  0.2759 -0.6950  0.0386
 5246TIP3   OH237228   4.805   4.836   3.513 -0.0216  1.0551 -0.7144
 5246TIP3    H137229   4.866   4.902   3.482  0.7966  0.4186 -0.4890
 5246TIP3    H237230   4.807   4.844   3.608 -0.0028  0.7828 -0.6910
 5247TIP3   OH237231   0.067   2.902   0.318 -0.2242  0.0916 -0.7706
 5247TIP3    H137232   0.153   2.865   0.296 -0.9851 -2.1137 -0.3510
 5247TIP3    H237233   0.053   2.878   0.409 -0.3879  2.3995 -0.1225
 5248TIP3   OH237234   4.947   6.820  16.135  0.4806 -0.0992 -0.0806
 5248TIP3    H137235   4.999   6.824  16.216 -1.8649 -1.4819  1.6200
 5248TIP3    H237236   4.898   6.902  16.134 -0.3263 -0.5649  0.5328
 5249TIP3   OH237237   4.248   0.847  14.691  0.3232 -0.0995  0.1856
 5249TIP3    H137238   4.249   0.766  14.640  0.1083 -0.2201  0.3757
 5249TIP3    H237239   4.160   0.881  14.680  1.0705  1.4144 -1.9513
 5250TIP3   OH237240   4.831   2.266  12.958  0.3300 -0.0312 -0.0471
 5250TIP3    H137241   4.808   2.331  12.893  0.6591  0.4731  0.3352
 5250TIP3    H237242   4.835   2.183  12.909  0.8827  0.3872 -0.7263
 5251TIP3   OH237243   2.159   3.132  16.842  0.0888 -0.2535  0.6816
 5251TIP3    H137244   2.189   3.222  16.835 -0.5233 -0.1265 -0.5739
 5251TIP3    H237245   2.174   3.109  16.934  4.0811 -0.2874  0.1912
 5252TIP3   OH237246   0.492   2.026   1.535 -0.2962  0.1402  0.3396
 5252TIP3    H137247   0.509   2.044   1.628 -1.8240  0.3529  0.6064
 5252TIP3    H237248   0.559   1.962   1.511  1.7688  1.9942  0.8481
 5253TIP3   OH237249   1.835   5.482   3.041 -0.0855 -0.2974  0.0962
 5253TIP3    H137250   1.916   5.531   3.029 -0.1523  0.0654  1.0686
 5253TIP3    H237251   1.791   5.525   3.114 -1.2133 -0.4241 -0.4914
 5254TIP3   OH237252   4.633   3.598   3.873 -0.9366 -0.2990 -0.4372
 5254TIP3    H137253   4.699   3.569   3.810 -0.3300 -0.6201  0.3216
 5254TIP3    H237254   4.578   3.521   3.886 -1.3280 -0.1015 -0.8934
 5255TIP3   OH237255   2.281   2.817   2.454 -0.3042  0.4925 -0.3265
 5255TIP3    H137256   2.301   2.725   2.443 -1.3222  0.3258 -0.8267
 5255TIP3    H237257   2.361   2.855   2.491 -0.1578 -0.7323  0.6538
 5256TIP3   OH237258   1.776   3.479  11.487 -0.4742  0.0446  0.2604
 5256TIP3    H137259   1.862   3.499  11.522 -0.2555  1.2024 -0.8805
 5256TIP3    H237260   1.733   3.564  11.477 -1.3623 -0.4323 -0.1195
 5257TIP3   OH237261   0.613   3.975   5.544 -0.1992 -0.1765  0.1891
 5257TIP3    H137262   0.528   3.939   5.568 -0.2313 -0.3170 -0.1320
 5257TIP3    H237263   0.618   4.058   5.592 -0.6226 -0.0485  0.0190
 5258TIP3   OH237264   4.529   3.376   3.598  0.8459  0.2335  0.3371
 5258TIP3    H137265   4.546   3.445   3.533 -0.8702  1.7995  1.4358
 5258TIP3    H237266   4.434   3.364   3.595  0.8564 -0.4380  1.7884
 5259TIP3   OH237267   2.073   2.682  11.005 -0.3082  0.4234 -0.4311
 5259TIP3    H137268   2.130   2.684  10.929  0.8089  2.0913  0.4017
 5259TIP3    H237269   2.090   2.764  11.051  0.9300 -1.4997  2.9606
 5260TIP3   OH237270   3.178   0.321  11.321  0.0966  0.1308  0.2090
 5260TIP3    H137271   3.140   0.259  11.259 -3.0050  0.1974  1.8409
 5260TIP3    H237272   3.208   0.266  11.393  0.9255  0.2614 -0.0355
 5261TIP3   OH237273   4.558   0.543   2.634  0.1118 -0.2131 -0.4447
 5261TIP3    H137274   4.600   0.488   2.568  1.5555  0.4741 -0.1337
 5261TIP3    H237275   4.624   0.555   2.702 -0.9533  0.0523  0.5840
 5262TIP3   OH237276   3.490   6.650   3.998  0.3359 -0.4374  0.0265
 5262TIP3    H137277   3.584   6.665   4.009  0.2219  0.4256 -0.1183
 5262TIP3    H237278   3.484   6.588   3.925  0.8229 -1.2654  0.6650
 5263TIP3   OH237279   5.454   0.722  16.940 -1.0155 -0.5754  0.5955
 5263TIP3    H137280   5.451   0.706  16.846 -1.0111  2.5323 -0.0565
 5263TIP3    H237281   5.362   0.737  16.965 -0.7944  1.1967  0.4765
 5264TIP3   OH237282   6.036   6.434   3.648  0.0358  0.5036 -0.3668
 5264TIP3    H137283   5.960   6.476   3.688  0.5963  0.6566  0.5445
 5264TIP3    H237284   6.109   6.457   3.704  0.1662 -2.9929  1.1447
 5265TIP3   OH237285   2.012   5.987   5.755 -0.6047 -0.5978 -0.0050
 5265TIP3    H137286   2.083   6.049   5.738 -0.3465 -1.1257 -0.9108
 5265TIP3    H237287   1.998   5.992   5.849  0.9762 -0.8449  0.2759
 5266TIP3   OH237288   6.554   3.367  12.595 -0.4286  0.7593  0.5641
 5266TIP3    H137289   6.593   3.455  12.596  1.0223  0.1960 -0.9631
 5266TIP3    H237290   6.510   3.361  12.510  0.1495 -0.2269  0.3109
 5267TIP3   OH237291   2.655   1.860  15.592 -0.0216 -0.1072  0.3615
 5267TIP3    H137292   2.643   1.908  15.510 -1.6238 -2.1175 -0.6587
 5267TIP3    H237293   2.736   1.810  15.579  0.8438  1.0957  0.8621
 5268TIP3   OH237294   3.977   4.334  15.707 -0.1143 -0.0662  0.3502
 5268TIP3    H137295   3.929   4.387  15.643  0.5457  0.8850  0.6176
 5268TIP3    H237296   3.966   4.244  15.676 -0.9494  0.2522 -0.3286
 5269TIP3   OH237297   3.165   0.193   5.502  0.1473  0.5019  0.3661
 5269TIP3    H137298   3.085   0.218   5.548 -0.0473 -0.4350  0.5638
 5269TIP3    H237299   3.200   0.119   5.552  0.3047 -0.0957 -0.5830
 5270TIP3   OH237300   6.717   4.749   4.575 -0.1286  0.4678 -0.0879
 5270TIP3    H137301   6.753   4.837   4.581 -1.5531  1.0433  0.5511
 5270TIP3    H237302   6.673   4.735   4.660  0.3812 -0.9956 -0.0393
 5271TIP3   OH237303   6.704   3.979   5.548 -0.0133 -0.1133  0.6194
 5271TIP3    H137304   6.635   3.913   5.547 -0.7966  0.6683  1.4765
 5271TIP3    H237305   6.763   3.951   5.618  0.1422 -0.3877  0.3787
 5272TIP3   OH237306   3.539   6.790   2.338  0.4758  0.3286 -0.7116
 5272TIP3    H137307   3.601   6.718   2.330  0.5641  0.3615 -0.3340
 5272TIP3    H237308   3.454   6.747   2.350  0.7828  0.2610  1.5697
 5273TIP3   OH237309   0.399   0.969   2.703 -0.4294 -0.5244  0.4760
 5273TIP3    H137310   0.357   1.031   2.761  0.0310  1.0348 -0.7692
 5273TIP3    H237311   0.358   0.983   2.618  2.4619  1.0912 -0.8070
 5274TIP3   OH237312   3.604   3.014  14.053  0.3338  0.2768 -0.2943
 5274TIP3    H137313   3.614   3.088  14.113 -2.6026 -0.3716  1.1741
 5274TIP3    H237314   3.618   2.937  14.107 -1.6572 -0.3077 -0.5393
 5275TIP3   OH237315   1.679   5.334  14.851 -0.7367 -0.1453 -0.0280
 5275TIP3    H137316   1.773   5.351  14.859 -0.8576  0.8886 -0.6416
 5275TIP3    H237317   1.656   5.288  14.932  0.7132 -2.4806 -0.8621
 5276TIP3   OH237318   5.871   2.239  16.787  0.0662  0.0199  0.1474
 5276TIP3    H137319   5.941   2.273  16.843  1.2133 -3.2701  0.9676
 5276TIP3    H237320   5.870   2.145  16.805 -1.6202 -0.7416 -3.1298
 5277TIP3   OH237321   1.260   1.926   2.787  1.0840  0.0792 -0.3793
 5277TIP3    H137322   1.208   1.850   2.760  1.1807 -1.3197  2.8733
 5277TIP3    H237323   1.195   1.994   2.806  0.8865  0.2869 -1.7187
 5278TIP3   OH237324   3.253   4.851   1.535  0.2758 -0.4220  0.1002
 5278TIP3    H137325   3.271   4.943   1.514 -0.0188 -0.6953 -1.4543
 5278TIP3    H237326   3.250   4.849   1.631 -1.9954  1.6682  0.1782
 5279TIP3   OH237327   2.433   3.884  13.316 -0.3565  0.3971  0.3202
 5279TIP3    H137328   2.498   3.814  13.322 -0.9491 -0.3984 -1.5989
 5279TIP3    H237329   2.363   3.847  13.262 -1.8439  1.6485  1.3047
 5280TIP3   OH237330   0.180   2.236  13.883  0.0802 -0.1641  0.2013
 5280TIP3    H137331   0.089   2.206  13.877  0.6281 -1.9377  0.2771
 5280TIP3    H237332   0.187   2.303  13.816 -1.8490  1.6233  1.6290
 5281TIP3   OH237333   6.275   6.110   3.531 -0.2617  0.0884  0.1390
 5281TIP3    H137334   6.222   6.048   3.581 -0.7362  1.0516  0.8539
 5281TIP3    H237335   6.327   6.055   3.472 -1.1097 -0.9485  0.3311
 5282TIP3   OH237336   4.802   1.707  14.682  0.7135 -0.2016 -0.4772
 5282TIP3    H137337   4.832   1.787  14.725  0.4596  1.6175 -3.4097
 5282TIP3    H237338   4.725   1.733  14.632  1.2687 -1.9693 -2.4257
 5283TIP3   OH237339   2.973   3.241  16.354  0.0120 -0.0504  0.4527
 5283TIP3    H137340   3.068   3.253  16.359  0.2861  0.2187 -3.0407
 5283TIP3    H237341   2.937   3.316  16.401  1.6077  1.8605 -1.1954
 5284TIP3   OH237342   5.101   2.990   4.931  0.1315 -0.4723  0.3937
 5284TIP3    H137343   5.026   3.049   4.942  0.5136 -0.0227  0.6275
 5284TIP3    H237344   5.132   2.976   5.020  1.2440  0.5496  0.1865
 5285TIP3   OH237345   5.156   1.830   5.175  0.9153 -0.3175 -0.3564
 5285TIP3    H137346   5.162   1.919   5.208  2.5105  0.1141 -1.6615
 5285TIP3    H237347   5.112   1.839   5.090 -0.1689 -0.9833  0.1036
 5286TIP3   OH237348   4.368   0.750   4.587  0.0329  0.3940 -0.2639
 5286TIP3    H137349   4.371   0.674   4.529  3.1931 -0.4519  0.7888
 5286TIP3    H237350   4.288   0.796   4.563 -0.2623 -1.4432 -3.2475
 5287TIP3   OH237351   2.748   0.286   1.573 -0.1757 -0.5069 -0.0810
 5287TIP3    H137352   2.782   0.368   1.609  0.3857 -0.7320 -0.0778
 5287TIP3    H237353   2.667   0.311   1.529 -0.0348  0.0455 -0.0424
 5288TIP3   OH237354   2.249   1.395   1.268 -0.7658 -0.6002  0.1327
 5288TIP3    H137355   2.220   1.441   1.189 -1.0068 -0.9637  0.0055
 5288TIP3    H237356   2.323   1.447   1.301 -1.7228  0.4838  0.6188
 5289TIP3   OH237357   2.866   1.224   1.277 -0.0677  0.0730 -0.7232
 5289TIP3    H137358   2.946   1.226   1.330  0.0101  0.9585 -0.8630
 5289TIP3    H237359   2.797   1.203   1.340  0.0941  0.6225 -0.3566
 5290TIP3   OH237360   0.182   1.043   3.136  0.3202 -0.4538 -0.1749
 5290TIP3    H137361   0.115   1.103   3.169 -0.5714 -1.5865  0.1301
 5290TIP3    H237362   0.216   1.000   3.215  2.5786  1.2142 -0.1264
 5291TIP3   OH237363   1.027   5.542   5.838  0.2877 -0.4932 -0.3439
 5291TIP3    H137364   1.010   5.495   5.920  0.4652  1.4922  0.9105
 5291TIP3    H237365   1.112   5.583   5.852  0.0648  0.3270 -1.3036
 5292TIP3   OH237366   4.257   2.867  15.683  0.5478  0.4079  0.6788
 5292TIP3    H137367   4.175   2.823  15.662  0.7702 -0.5888  1.7787
 5292TIP3    H237368   4.297   2.813  15.752  0.1797  3.0084  3.1256
 5293TIP3   OH237369   3.801   1.659  13.238  0.2390 -0.2053 -0.8345
 5293TIP3    H137370   3.878   1.602  13.242  0.5181  0.1977 -0.3431
 5293TIP3    H237371   3.824   1.734  13.292 -0.9227 -0.5712  0.2065
 5294TIP3   OH237372   0.790   5.160   1.607 -0.3925 -0.1670  0.5225
 5294TIP3    H137373   0.699   5.173   1.632 -0.4676  0.2746  0.0407
 5294TIP3    H237374   0.809   5.068   1.627 -1.1652 -0.4650 -0.0787
 5295TIP3   OH237375   1.009   4.276  14.349  0.2601  0.1108  0.1811
 5295TIP3    H137376   0.928   4.283  14.298  0.4718 -0.9404 -0.3298
 5295TIP3    H237377   1.052   4.197  14.315  1.4455  0.5915  0.5248
 5296TIP3   OH237378   5.248   0.930   3.022 -0.0743  0.3714 -0.6010
 5296TIP3    H137379   5.192   0.878   2.964 -1.1435  1.3074 -0.4389
 5296TIP3    H237380   5.217   1.020   3.011 -0.3975  0.5624  1.4883
 5297TIP3   OH237381   3.768   5.630   5.484  0.2196 -0.3143  0.5989
 5297TIP3    H137382   3.790   5.647   5.393 -0.3266  0.1868  0.5556
 5297TIP3    H237383   3.724   5.545   5.483  0.8212 -0.6287  0.4931
 5298TIP3   OH237384   0.502   0.401  12.105 -0.4893 -0.1135  0.1832
 5298TIP3    H137385   0.427   0.388  12.047 -1.4823 -1.8123  1.7544
 5298TIP3    H237386   0.467   0.390  12.193  1.8749 -2.6898  0.9548
 5299TIP3   OH237387   0.838   4.074  15.972  0.7599 -0.2467 -0.3052
 5299TIP3    H137388   0.814   4.049  15.882 -0.3896 -0.9962  0.1783
 5299TIP3    H237389   0.849   3.990  16.017  1.9522  0.1208  0.1173
 5300TIP3   OH237390   2.765   1.711  15.994 -0.4360  0.2390 -0.3497
 5300TIP3    H137391   2.677   1.680  15.970 -0.9599  1.2202  0.2425
 5300TIP3    H237392   2.820   1.633  15.986 -1.5838 -0.6919  0.4491
 5301TIP3   OH237393   6.651   1.664   0.040  0.0960 -0.8349  0.5922
 5301TIP3    H137394   6.703   1.692  -0.035  1.8082 -0.8369  1.7050
 5301TIP3    H237395   6.628   1.573   0.021 -3.2861  0.3475 -1.8617
 5302TIP3   OH237396   2.890   3.294  15.705  0.8502 -0.1292  0.0496
 5302TIP3    H137397   2.959   3.264  15.646  0.5024 -0.3967 -0.2304
 5302TIP3    H237398   2.856   3.213  15.745 -0.2583 -0.1589 -0.8885
 5303TIP3   OH237399   5.187   1.039  14.188 -0.0106  0.2795 -0.5880
 5303TIP3    H137400   5.254   1.106  14.173  0.0032  0.4783  0.3193
 5303TIP3    H237401   5.227   0.958  14.157  0.2650  0.5616 -0.9845
 5304TIP3   OH237402   1.724   4.580  12.531  0.1964 -0.1771  0.1200
 5304TIP3    H137403   1.779   4.582  12.609 -0.4727 -0.9530  0.6304
 5304TIP3    H237404   1.722   4.671  12.500  2.3264 -0.2291 -0.3372
 5305TIP3   OH237405   3.815   3.376  15.412 -0.2554  0.1063 -0.2462
 5305TIP3    H137406   3.903   3.377  15.373 -0.3783 -0.5900 -0.5531
 5305TIP3    H237407   3.829   3.345  15.501 -0.2578 -0.6110 -0.4895
 5306TIP3   OH237408   4.232   1.028  10.904  0.4995  0.0371 -1.4123
 5306TIP3    H137409   4.197   1.087  10.971 -0.0221 -1.4535 -0.3233
 5306TIP3    H237410   4.188   1.055  10.824 -0.4234  0.5313 -0.7628
 5307TIP3   OH237411   3.209   5.415   3.294 -0.0176 -0.4490  0.0499
 5307TIP3    H137412   3.301   5.412   3.323 -0.5413  1.1133  2.0926
 5307TIP3    H237413   3.175   5.328   3.316  0.7359 -0.7432  0.0975
 5308TIP3   OH237414   6.624   0.329   0.066 -0.5215 -0.5420 -0.1582
 5308TIP3    H137415   6.574   0.280   0.132  1.3527 -2.0492  0.2230
 5308TIP3    H237416   6.715   0.302   0.080  0.3803  1.7903 -1.1014
 5309TIP3   OH237417   1.789   3.123   3.139  0.2714  0.2209 -0.0058
 5309TIP3    H137418   1.870   3.080   3.111 -0.5901 -1.8058  0.3998
 5309TIP3    H237419   1.723   3.089   3.079 -0.3281  1.7126 -0.2159
 5310TIP3   OH237420   3.808   4.484  15.239  0.1897 -0.2359  0.6085
 5310TIP3    H137421   3.854   4.428  15.302 -0.1845 -0.7136  0.4576
 5310TIP3    H237422   3.756   4.544  15.293  0.4511 -0.1441  0.7636
 5311TIP3   OH237423   5.036   2.488  13.297 -0.4337  0.2338 -0.3746
 5311TIP3    H137424   4.960   2.429  13.300 -0.5999  0.3396 -1.7876
 5311TIP3    H237425   5.009   2.558  13.238  0.0315  1.3854  0.7205
 5312TIP3   OH237426   0.788   1.055  16.323  0.1805 -0.0759  0.1183
 5312TIP3    H137427   0.768   0.974  16.276 -1.5962 -0.7367  1.8466
 5312TIP3    H237428   0.851   1.028  16.390 -0.9514 -0.2572  1.1579
 5313TIP3   OH237429   4.267   4.015  10.396 -0.1558 -0.1525 -0.0740
 5313TIP3    H137430   4.309   4.051  10.474  0.2307  1.0092 -0.7945
 5313TIP3    H237431   4.188   3.972  10.430  0.0652  0.2220  0.9716
 5314TIP3   OH237432   3.915   5.783   5.281 -0.0388  0.2828 -0.0255
 5314TIP3    H137433   3.967   5.816   5.355  0.8484  1.5823 -1.1651
 5314TIP3    H237434   3.904   5.860   5.225  0.0432 -0.8565 -1.6513
 5315TIP3   OH237435   5.739   0.927   4.323  0.1130  0.0185 -0.2506
 5315TIP3    H137436   5.724   1.018   4.347 -0.3018  0.0050 -0.4596
 5315TIP3    H237437   5.655   0.884   4.335  0.8862 -0.9402  2.4459
 5316TIP3   OH237438   2.233   0.957  12.621  0.5186  0.1048  0.3955
 5316TIP3    H137439   2.291   0.896  12.667 -0.5123 -1.1847  0.0189
 5316TIP3    H237440   2.147   0.916  12.624  0.2123  0.4740 -1.8140
 5317TIP3   OH237441   0.512   1.703  13.767  0.1044 -0.0300  0.6944
 5317TIP3    H137442   0.544   1.619  13.734  1.0602  1.0906 -1.4543
 5317TIP3    H237443   0.564   1.768  13.721  0.0117  1.7784  2.9380
 5318TIP3   OH237444   6.128   4.610   0.837 -0.4647 -0.2743  0.1821
 5318TIP3    H137445   6.072   4.570   0.902  0.0610  2.4657  2.5178
 5318TIP3    H237446   6.070   4.667   0.786 -0.1656  1.4528  1.6624
 5319TIP3   OH237447   3.673   3.748   4.070 -0.2465  0.2205  0.4384
 5319TIP3    H137448   3.712   3.834   4.082 -0.9859  0.6762 -0.3445
 5319TIP3    H237449   3.678   3.707   4.157 -0.1872  1.1693  0.8903
 5320TIP3   OH237450   5.189   3.188   5.207 -0.1945  0.5408  0.2219
 5320TIP3    H137451   5.178   3.093   5.220 -0.4705  0.5695  0.1876
 5320TIP3    H237452   5.101   3.224   5.218 -0.2946  0.6664 -0.8904
 5321TIP3   OH237453   6.376   6.394   4.844 -0.0032 -0.1555  0.2056
 5321TIP3    H137454   6.351   6.376   4.934 -0.1475  2.4865  0.7682
 5321TIP3    H237455   6.308   6.454   4.812  0.7156 -0.0811 -1.2638
 5322TIP3   OH237456   6.749   4.842  16.876 -0.0549 -0.8323 -0.3492
 5322TIP3    H137457   6.682   4.815  16.813 -1.2965  3.7159 -1.4196
 5322TIP3    H237458   6.702   4.853  16.958  0.4983 -2.1490  0.1609
 5323TIP3   OH237459   2.118   6.137   6.269  0.1051  0.0178  0.4133
 5323TIP3    H137460   2.077   6.055   6.294 -1.7615  0.5632 -0.6086
 5323TIP3    H237461   2.067   6.205   6.314  0.7967  0.6745  0.2394
 5324TIP3   OH237462   4.762   4.806  10.519  0.3802  0.0360 -0.1577
 5324TIP3    H137463   4.813   4.858  10.582 -1.2810  0.8910  0.5496
 5324TIP3    H237464   4.722   4.871  10.461  2.2206 -0.7560 -2.4658
 5325TIP3   OH237465   1.123   0.251  12.563 -0.0734 -0.1554  0.0786
 5325TIP3    H137466   1.209   0.210  12.576 -0.5187 -1.0994  0.0711
 5325TIP3    H237467   1.068   0.213  12.631 -1.1106 -1.3627 -1.3635
 5326TIP3   OH237468   5.116   6.829  16.356 -0.0923 -0.5459 -0.3464
 5326TIP3    H137469   5.073   6.801  16.437  0.4185 -1.3068 -0.3269
 5326TIP3    H237470   5.146   6.918  16.374  0.6734 -0.9709  0.5681
 5327TIP3   OH237471   0.241   5.024   0.112  0.5796  0.0492  0.7386
 5327TIP3    H137472   0.220   5.095   0.051 -0.1086 -0.1650  0.7146
 5327TIP3    H237473   0.330   5.043   0.142  1.3620 -0.4122 -1.1227
 5328TIP3   OH237474   2.550   6.439   2.362  0.1413  0.0360 -0.2772
 5328TIP3    H137475   2.638   6.475   2.371  0.6250 -1.0747 -0.4983
 5328TIP3    H237476   2.563   6.353   2.324 -0.8761 -0.9782  1.5282
 5329TIP3   OH237477   2.502   6.655   0.562  0.5381 -0.7721 -0.1150
 5329TIP3    H137478   2.497   6.679   0.469  1.2182 -0.7781 -0.1526
 5329TIP3    H237479   2.480   6.562   0.563  1.4618 -1.0003 -0.3843
 5330TIP3   OH237480   1.021   0.508   4.448 -0.1949  0.1429  0.4610
 5330TIP3    H137481   1.085   0.450   4.490  0.6625  0.5723 -0.2183
 5330TIP3    H237482   1.044   0.505   4.355 -1.5354 -0.1363  0.1228
 5331TIP3   OH237483   1.298   0.316   5.678 -0.8830  0.0292 -0.1799
 5331TIP3    H137484   1.337   0.383   5.621 -0.5810 -0.6246 -0.7531
 5331TIP3    H237485   1.227   0.278   5.626 -1.2332  0.0959  0.2493
 5332TIP3   OH237486   4.184   4.029  12.892 -0.1049  0.0586 -0.5294
 5332TIP3    H137487   4.215   3.959  12.950 -1.9888  0.6057  1.2461
 5332TIP3    H237488   4.235   4.106  12.917 -1.4370  0.4876  1.0462
 5333TIP3   OH237489   5.982   5.256  11.756 -0.0214 -0.1568 -0.1449
 5333TIP3    H137490   6.023   5.313  11.691 -2.1554  0.9856 -0.5770
 5333TIP3    H237491   5.888   5.258  11.735 -0.3940 -2.3647  0.9945
 5334TIP3   OH237492   3.264   2.212   1.221 -0.6624  0.4013  0.0451
 5334TIP3    H137493   3.203   2.202   1.294  0.2771  0.1002  0.8173
 5334TIP3    H237494   3.220   2.172   1.146 -0.5058 -1.9057  1.0982
 5335TIP3   OH237495   0.354   5.065   3.637  0.2798 -0.3457 -0.0231
 5335TIP3    H137496   0.360   5.064   3.542  0.7339  0.1418 -0.0010
 5335TIP3    H237497   0.429   5.117   3.666  0.2003 -0.5652  0.6055
 5336TIP3   OH237498   3.972   5.338  15.296  0.5842  0.4881  0.4191
 5336TIP3    H137499   4.026   5.343  15.376  1.6676 -0.7470 -0.2022
 5336TIP3    H237500   3.984   5.249  15.264 -0.0803  0.8697 -0.9718
 5337TIP3   OH237501   1.722   6.667   1.445  0.0796  0.1617 -0.2142
 5337TIP3    H137502   1.686   6.594   1.396 -1.1062 -0.0914  0.9611
 5337TIP3    H237503   1.813   6.644   1.461 -0.0336 -0.6151 -0.6733
 5338TIP3   OH237504   5.794   4.782  11.453 -0.0438 -0.2396 -0.3076
 5338TIP3    H137505   5.872   4.777  11.398 -0.2378  1.1382 -0.7655
 5338TIP3    H237506   5.722   4.759  11.395 -0.2270  1.0251 -0.6288
 5339TIP3   OH237507   2.504   3.562   3.254 -0.2230  0.4470 -0.0071
 5339TIP3    H137508   2.570   3.496   3.234 -0.8402 -0.5732  1.1581
 5339TIP3    H237509   2.553   3.641   3.276  0.5307  0.3748 -1.3586
 5340TIP3   OH237510   4.753   2.802  15.077  0.0263 -0.4873  0.1755
 5340TIP3    H137511   4.717   2.872  15.130  1.5145  1.6924 -1.5172
 5340TIP3    H237512   4.689   2.791  15.006  0.7726  0.7330 -0.7346
 5341TIP3   OH237513   4.105   6.631  15.296 -0.3545  0.1406 -0.4831
 5341TIP3    H137514   4.062   6.606  15.214 -0.9670  1.0768 -0.4651
 5341TIP3    H237515   4.081   6.561  15.357 -0.2173 -0.3618 -1.0006
 5342TIP3   OH237516   0.819   0.378  12.324  0.2294 -0.1474 -0.1791
 5342TIP3    H137517   0.898   0.368  12.271  0.8037 -1.3916  0.8752
 5342TIP3    H237518   0.776   0.455  12.287  1.0123 -0.4861 -1.9261
 5343TIP3   OH237519   1.112   6.064  11.037 -0.3345 -0.1480 -0.2505
 5343TIP3    H137520   1.193   6.113  11.019 -0.8329  0.6546 -0.3352
 5343TIP3    H237521   1.120   5.985  10.985  0.8905 -0.6021  0.5724
 5344TIP3   OH237522   6.045   5.570   4.013  0.0942  0.2769 -0.1785
 5344TIP3    H137523   6.072   5.636   4.077  1.7171  0.0005 -0.5386
 5344TIP3    H237524   5.957   5.545   4.041  0.0447  1.4922  0.8503
 5345TIP3   OH237525   3.161   6.443   0.647 -0.0974  0.0342  0.3509
 5345TIP3    H137526   3.128   6.474   0.563 -0.8712  1.2522  1.0660
 5345TIP3    H237527   3.223   6.374   0.625 -0.8471 -0.1857 -1.1753
 5346TIP3   OH237528   5.455   1.320  11.838  0.6469  0.2776  0.3161
 5346TIP3    H137529   5.527   1.339  11.898  4.0701 -2.0181 -2.5915
 5346TIP3    H237530   5.413   1.243  11.874 -0.9111  1.9550  2.3337
 5347TIP3   OH237531   0.300   0.241   6.223 -0.0454  0.5969  0.5918
 5347TIP3    H137532   0.360   0.292   6.168 -0.5047  1.4788  0.8931
 5347TIP3    H237533   0.348   0.161   6.243  0.1924  0.3137 -0.9715
 5348TIP3   OH237534   4.151   6.478  13.817 -0.1495  0.2533 -0.2270
 5348TIP3    H137535   4.068   6.439  13.843 -0.6185  1.4759  0.1827
 5348TIP3    H237536   4.178   6.530  13.893  0.1043  1.2638 -0.9947
 5349TIP3   OH237537   3.275   3.255   3.037  0.4133  0.2793  0.0715
 5349TIP3    H137538   3.263   3.291   3.124 -0.1653  0.4260 -0.0632
 5349TIP3    H237539   3.329   3.320   2.991 -1.4004  1.4867 -0.4639
 5350TIP3   OH237540   6.353   4.617  15.296 -0.4347  0.1171 -0.6226
 5350TIP3    H137541   6.307   4.535  15.313 -0.7568  0.1796 -1.1935
 5350TIP3    H237542   6.405   4.600  15.218  0.6588 -0.0071  0.1165
 5351TIP3   OH237543   0.912   2.234   3.635  0.0385  0.0716  0.1443
 5351TIP3    H137544   0.901   2.298   3.706  0.3005 -2.0630  2.2532
 5351TIP3    H237545   0.831   2.184   3.635  0.2099 -0.2304 -0.8108
 5352TIP3   OH237546   4.373   0.072   4.774 -0.0096 -0.0678 -0.4123
 5352TIP3    H137547   4.332   0.052   4.859  2.4374  3.3122  1.8683
 5352TIP3    H237548   4.327   0.151   4.745  0.6532  0.0758 -1.0771
 5353TIP3   OH237549   2.707   0.319  14.921  0.2358 -0.1621 -0.1547
 5353TIP3    H137550   2.668   0.235  14.946 -0.4452  0.1397 -0.1636
 5353TIP3    H237551   2.797   0.297  14.896  1.1263 -0.4354  2.9130
 5354TIP3   OH237552   6.631   1.546   5.057  0.2333  0.0838 -0.3154
 5354TIP3    H137553   6.700   1.512   5.115  1.8193  0.4180 -1.9143
 5354TIP3    H237554   6.584   1.467   5.028  3.6835 -1.0323 -3.7526
 5355TIP3   OH237555   0.716   3.835   4.135 -0.1586 -0.0041  0.7118
 5355TIP3    H137556   0.786   3.888   4.096  0.2515 -0.5976  0.6298
 5355TIP3    H237557   0.723   3.852   4.229  0.6798 -0.7368  0.7956
 5356TIP3   OH237558   3.350   6.407   5.476  0.2226  0.2820 -0.1095
 5356TIP3    H137559   3.288   6.479   5.490  0.1393  0.5023 -1.4723
 5356TIP3    H237560   3.432   6.451   5.450  0.6430 -0.0585  0.5959
 5357TIP3   OH237561   3.955   1.289  12.020  0.0143  0.3176 -0.1425
 5357TIP3    H137562   3.920   1.224  12.081  1.5745 -0.5325 -0.1065
 5357TIP3    H237563   3.934   1.255  11.933 -2.7000  1.7995 -0.1815
 5358TIP3   OH237564   2.241   0.723   2.604  0.0309 -0.3686  0.3010
 5358TIP3    H137565   2.181   0.654   2.578 -0.5395 -0.0326  0.6973
 5358TIP3    H237566   2.189   0.804   2.599  0.6430  0.0143 -0.0190
 5359TIP3   OH237567   0.887   6.454   2.984 -0.3403 -0.3454  0.1328
 5359TIP3    H137568   0.818   6.391   3.006  0.2683 -1.5672 -1.2324
 5359TIP3    H237569   0.891   6.451   2.888  0.4719  0.9664  0.1064
 5360TIP3   OH237570   4.794   5.001   3.195  0.0224 -0.0665  0.0314
 5360TIP3    H137571   4.702   4.978   3.200  0.3338 -1.6800 -0.7514
 5360TIP3    H237572   4.836   4.923   3.158  1.3227  1.5317 -2.1280
 5361TIP3   OH237573   1.871   5.446   6.859  0.1466 -0.5011  0.8045
 5361TIP3    H137574   1.792   5.401   6.830  0.2099 -0.2284  0.1919
 5361TIP3    H237575   1.854   5.538   6.841 -0.0754 -0.2267  2.2618
 5362TIP3   OH237576   5.847   0.036  14.792 -0.2841  0.0800 -0.3720
 5362TIP3    H137577   5.862  -0.001  14.705 -1.5294 -0.5851 -0.3241
 5362TIP3    H237578   5.844   0.130  14.778  2.3984  0.2181 -0.5806
 5363TIP3   OH237579   4.168   3.390  11.478 -0.7290  0.0128  0.1973
 5363TIP3    H137580   4.086   3.429  11.510 -0.0532  0.8577  0.9803
 5363TIP3    H237581   4.204   3.456  11.419 -0.8567 -0.5864 -0.5699
 5364TIP3   OH237582   3.331   6.010   0.657  0.1747 -0.5092  0.0891
 5364TIP3    H137583   3.344   6.077   0.590  0.5833  1.4577  2.0250
 5364TIP3    H237584   3.419   5.982   0.681  0.0013 -2.9133 -1.7003
 5365TIP3   OH237585   1.092   1.155  13.435  0.3954  0.3537 -0.9229
 5365TIP3    H137586   1.116   1.236  13.480  0.0889 -0.3800  0.6247
 5365TIP3    H237587   1.016   1.179  13.381 -0.2834  0.9188  0.2417
 5366TIP3   OH237588   4.875   0.762   2.954 -0.3092 -0.3650 -0.1928
 5366TIP3    H137589   4.876   0.824   3.027  2.8278 -0.1005 -0.3202
 5366TIP3    H237590   4.816   0.692   2.982  0.7265 -0.2231  2.5841
 5367TIP3   OH237591   6.563   0.986  11.318  0.2596 -0.1437  0.8451
 5367TIP3    H137592   6.615   0.997  11.398  0.8560 -2.4586  0.8470
 5367TIP3    H237593   6.612   1.034  11.251 -0.7641  2.7025  1.9524
 5368TIP3   OH237594   3.920   0.893   0.707 -0.1603 -0.5017  0.0209
 5368TIP3    H137595   3.827   0.874   0.696 -0.7282  1.6914  0.4692
 5368TIP3    H237596   3.926   0.939   0.791  0.8825  1.6895 -1.1473
 5369TIP3   OH237597   2.009   2.510  12.739  0.1108  0.5648 -0.0127
 5369TIP3    H137598   1.930   2.510  12.686  0.6328 -1.8800 -0.9307
 5369TIP3    H237599   1.994   2.441  12.804  0.8534  1.1801  0.8449
 5370TIP3   OH237600   1.919   0.866  15.595 -0.1170 -0.3231 -0.1498
 5370TIP3    H137601   1.896   0.859  15.503 -0.9209 -1.4960  0.1193
 5370TIP3    H237602   1.933   0.960  15.609  2.2468 -0.3332 -1.9409
 5371TIP3   OH237603   3.452   0.817  14.998  0.0067 -0.2289  0.1666
 5371TIP3    H137604   3.459   0.770  15.082  0.6682  1.7388  1.2712
 5371TIP3    H237605   3.516   0.888  15.006 -2.4893  2.2116 -0.4986
 5372TIP3   OH237606   3.977   6.332   1.047  0.5798  0.2948 -0.5394
 5372TIP3    H137607   3.913   6.294   0.986  0.9630 -0.7569 -0.3179
 5372TIP3    H237608   4.043   6.372   0.991  0.8330 -0.5016 -0.8323
 5373TIP3   OH237609   5.055   3.625  17.013 -0.2735 -0.2068 -0.3632
 5373TIP3    H137610   4.969   3.591  16.986  0.2793 -1.8079 -0.2057
 5373TIP3    H237611   5.054   3.619  17.109 -0.1288  0.1242 -0.3416
 5374TIP3   OH237612   2.343   6.263  16.845 -0.1568 -0.2538  0.4093
 5374TIP3    H137613   2.381   6.273  16.758  0.5306 -1.1217  0.5852
 5374TIP3    H237614   2.260   6.218  16.831 -0.4195  0.3170  0.1387
 5375TIP3   OH237615   3.574   5.315   4.830  0.5695  0.2225  0.1824
 5375TIP3    H137616   3.591   5.408   4.846  2.0690  0.1793 -0.9512
 5375TIP3    H237617   3.658   5.272   4.842  0.0102 -0.9236  0.1689
 5376TIP3   OH237618   4.281   4.112  13.408  0.3118 -0.3360  0.1236
 5376TIP3    H137619   4.201   4.138  13.454  0.0789 -0.8666  0.0375
 5376TIP3    H237620   4.343   4.091  13.478  0.4285  0.2342  0.1911
 5377TIP3   OH237621   5.583   5.315  15.583  1.0125  0.2836  0.0593
 5377TIP3    H137622   5.568   5.310  15.677 -2.1355 -0.9616 -0.3684
 5377TIP3    H237623   5.611   5.226  15.559  1.5179  0.5172 -0.2253
 5378TIP3   OH237624   0.645   2.152   3.380  0.2020  0.2498 -0.4453
 5378TIP3    H137625   0.682   2.098   3.450  0.7844  0.0119 -0.9269
 5378TIP3    H237626   0.677   2.111   3.299 -0.5257  0.4706 -0.8530
 5379TIP3   OH237627   3.959   5.339  11.934 -0.0152  0.1902  0.0704
 5379TIP3    H137628   3.916   5.289  12.004  1.0081  1.0684  1.3808
 5379TIP3    H237629   3.967   5.277  11.862  1.1755 -1.5841  1.6269
 5380TIP3   OH237630   2.653   3.344   1.388 -0.2615 -0.4340  0.0955
 5380TIP3    H137631   2.725   3.374   1.333 -0.0601  0.1477  0.6650
 5380TIP3    H237632   2.675   3.374   1.476 -0.9545 -0.6878  0.3670
 5381TIP3   OH237633   3.706   3.423   1.414 -0.0366  0.5800  0.1007
 5381TIP3    H137634   3.650   3.443   1.339 -0.3737 -1.5996 -0.2991
 5381TIP3    H237635   3.793   3.409   1.376 -0.3007 -0.9709  0.0093
 5382TIP3   OH237636   4.646   2.548   1.746  0.0691 -0.4141 -0.2080
 5382TIP3    H137637   4.671   2.499   1.667 -1.0171 -2.8844  0.8766
 5382TIP3    H237638   4.673   2.492   1.818 -1.4360  0.5056  1.1270
 5383TIP3   OH237639   1.339   1.711   6.016  0.6670 -0.1858  0.4210
 5383TIP3    H137640   1.365   1.638   6.073  0.4372 -0.4191  0.2288
 5383TIP3    H237641   1.363   1.683   5.928  0.6740  0.0168  0.3575
 5384TIP3   OH237642   5.154   2.260  12.056  0.5942  0.1232  0.0723
 5384TIP3    H137643   5.082   2.289  12.112 -0.0211  0.0594 -0.6788
 5384TIP3    H237644   5.191   2.184  12.102  0.4700  0.4119  0.6700
 5385TIP3   OH237645   0.962   5.020   3.609 -0.5968 -0.6489  0.7729
 5385TIP3    H137646   1.006   4.956   3.553 -1.4195 -0.4154 -0.1768
 5385TIP3    H237647   0.955   4.977   3.694 -0.4194 -1.5103  0.3647
 5386TIP3   OH237648   2.245   5.112   0.562 -0.1676  0.1321 -0.3132
 5386TIP3    H137649   2.262   5.029   0.606 -1.6947  0.1023  0.3040
 5386TIP3    H237650   2.196   5.163   0.627  0.7478  1.5346 -0.6765
 5387TIP3   OH237651   0.170   4.530  15.397  0.2877 -0.1335  0.1917
 5387TIP3    H137652   0.137   4.582  15.470 -1.0603  0.0017 -0.4866
 5387TIP3    H237653   0.264   4.546  15.397  0.1960  0.4975  1.4029
 5388TIP3   OH237654   4.487   6.788   0.198  0.4657  0.4762 -0.6621
 5388TIP3    H137655   4.414   6.794   0.259 -0.4434  1.9881 -1.8193
 5388TIP3    H237656   4.466   6.714   0.141 -0.1243  0.8537 -0.9359
 5389TIP3   OH237657   3.106   6.567   2.033  0.1317 -0.0591 -0.4055
 5389TIP3    H137658   3.033   6.574   2.094 -0.5580  0.0684 -1.2232
 5389TIP3    H237659   3.136   6.477   2.041 -0.1812 -0.1401 -0.1388
 5390TIP3   OH237660   3.605   5.354  17.121  1.0348 -0.4470  0.1470
 5390TIP3    H137661   3.520   5.342  17.078  0.4858  0.8093  0.8258
 5390TIP3    H237662   3.594   5.314  17.207  0.2241  1.9154  1.2259
 5391TIP3   OH237663   2.333   0.216  14.997 -0.0928 -0.1570  0.2579
 5391TIP3    H137664   2.330   0.309  14.975 -0.4473 -0.2578 -0.1311
 5391TIP3    H237665   2.254   0.179  14.957 -0.0013 -0.6096  0.4842
 5392TIP3   OH237666   2.541   6.098   1.949  0.0243  0.0346  0.3824
 5392TIP3    H137667   2.496   6.156   2.011  1.3467  2.9075 -1.1793
 5392TIP3    H237668   2.547   6.149   1.868  3.1400 -1.4619 -0.4788
 5393TIP3   OH237669   5.487   0.194   5.343 -1.2092  0.1518 -0.0558
 5393TIP3    H137670   5.498   0.240   5.426 -2.4980  0.4907 -0.0403
 5393TIP3    H237671   5.501   0.261   5.276  1.0449 -0.3818 -0.1930
 5394TIP3   OH237672   2.833   2.815   5.203  0.0735  0.5012  0.4280
 5394TIP3    H137673   2.911   2.845   5.250  0.6604  1.1183 -0.8792
 5394TIP3    H237674   2.852   2.723   5.181 -0.5851 -0.0767  2.1075
 5395TIP3   OH237675   5.619   6.524   5.889  0.4257  0.2643 -0.5664
 5395TIP3    H137676   5.682   6.574   5.941 -1.0160  0.7206  0.8001
 5395TIP3    H237677   5.553   6.588   5.863  0.5118 -0.1909 -2.0457
 5396TIP3   OH237678   4.262   1.685  11.205  0.2306 -0.0856  0.6968
 5396TIP3    H137679   4.189   1.728  11.249  0.4038  2.3521 -1.1842
 5396TIP3    H237680   4.291   1.617  11.266 -1.5787  0.9710  2.8404
 5397TIP3   OH237681   0.712   6.289  13.606 -0.2276 -0.8143 -0.5702
 5397TIP3    H137682   0.795   6.250  13.633  0.0317  0.5922  0.8091
 5397TIP3    H237683   0.737   6.369  13.559 -0.7751  0.4785  1.2436
 5398TIP3   OH237684   0.415   6.805  16.585  0.0402  0.1468  0.2596
 5398TIP3    H137685   0.404   6.761  16.669 -1.7946 -1.5182 -0.7787
 5398TIP3    H237686   0.392   6.739  16.520 -0.3573  1.9147 -1.4917
 5399TIP3   OH237687   5.589   5.965   1.098  0.0999  0.4393 -0.1409
 5399TIP3    H137688   5.612   5.989   1.188 -1.9178  1.3975  0.1773
 5399TIP3    H237689   5.563   5.873   1.104  1.1373  0.1448  0.0029
 5400TIP3   OH237690   6.054   4.064   3.844  0.0665 -0.1298 -1.0456
 5400TIP3    H137691   6.051   4.151   3.882  0.5744 -1.0885  1.3899
 5400TIP3    H237692   6.130   4.066   3.785  0.3153  0.9383 -0.7058
 5401TIP3   OH237693   4.613   5.929  12.484 -0.1166  0.2673  0.4950
 5401TIP3    H137694   4.545   5.925  12.551 -1.2758  0.0698 -0.6449
 5401TIP3    H237695   4.620   5.839  12.451  1.0398  0.1920  0.9085
 5402TIP3   OH237696   2.167   5.981  13.721  0.1947 -0.1153  0.3493
 5402TIP3    H137697   2.120   6.056  13.758  1.3593  0.1746  1.2830
 5402TIP3    H237698   2.233   5.959  13.787 -0.8358 -2.6951  0.6331
 5403TIP3   OH237699   1.328   6.750   3.589 -0.3327  0.0839 -0.6859
 5403TIP3    H137700   1.315   6.657   3.609 -3.2357  0.9251  2.0896
 5403TIP3    H237701   1.390   6.781   3.655  0.5808  0.1726 -1.5643
 5404TIP3   OH237702   0.045   6.164  16.210  0.0664  0.0315 -0.1913
 5404TIP3    H137703   0.035   6.077  16.248  1.8500 -0.3709 -0.5566
 5404TIP3    H237704   0.023   6.153  16.118  2.3315 -0.5753 -0.7228
 5405TIP3   OH237705   6.052   1.850  13.615 -1.0268  0.3091 -0.3591
 5405TIP3    H137706   6.072   1.785  13.683 -1.8693  0.0040 -0.3825
 5405TIP3    H237707   6.057   1.801  13.533 -1.9424  0.1904 -0.3544
 5406TIP3   OH237708   0.602   0.243  11.587 -0.8305  0.7067 -0.4344
 5406TIP3    H137709   0.597   0.150  11.561 -2.1456  0.7629 -0.4459
 5406TIP3    H237710   0.572   0.244  11.678 -0.4211  1.0766 -0.3012
 5407TIP3   OH237711   1.156   0.286   1.198  0.0568  0.4012  0.3077
 5407TIP3    H137712   1.233   0.306   1.144  0.5456 -2.7155 -0.3277
 5407TIP3    H237713   1.192   0.250   1.279 -0.7004 -0.6001  0.2183
 5408TIP3   OH237714   6.648   4.024   4.788 -0.3734 -0.5134 -0.6491
 5408TIP3    H137715   6.581   4.092   4.784 -0.0811  0.0416  2.1778
 5408TIP3    H237716   6.726   4.069   4.818  0.6983 -1.5922 -1.6739
 5409TIP3   OH237717   3.740   5.030  12.052  0.1334  0.2123 -0.3996
 5409TIP3    H137718   3.825   5.057  12.087 -0.3715  1.8929 -0.3992
 5409TIP3    H237719   3.695   4.989  12.126  0.7750 -0.3190 -0.2937
 5410TIP3   OH237720   5.752   5.552   1.421  0.1475  0.0689  0.1648
 5410TIP3    H137721   5.743   5.578   1.329  0.6277  1.4747  0.4837
 5410TIP3    H237722   5.681   5.490   1.435 -0.8587  0.9496 -0.7944
 5411TIP3   OH237723   0.644   4.216   1.411  0.3081 -0.0993  0.0328
 5411TIP3    H137724   0.655   4.218   1.316  0.3907  0.2043  0.0496
 5411TIP3    H237725   0.583   4.144   1.427  1.8782 -1.5362 -0.1120
 5412TIP3   OH237726   5.265   5.252  14.781  0.4776  0.5301 -0.0132
 5412TIP3    H137727   5.198   5.232  14.716  2.1091  0.8850 -1.9242
 5412TIP3    H237728   5.290   5.343  14.762  1.5760  0.3681  0.5754
 5413TIP3   OH237729   0.873   2.143  15.957 -0.2202  0.3240  0.9837
 5413TIP3    H137730   0.862   2.136  16.052 -0.9438 -3.7163  0.7778
 5413TIP3    H237731   0.941   2.080  15.935 -0.6252  0.5646 -1.2887
 5414TIP3   OH237732   1.415   2.396   5.701 -0.4102 -0.2758 -0.3533
 5414TIP3    H137733   1.475   2.367   5.770  0.2040  1.3179 -0.1726
 5414TIP3    H237734   1.472   2.413   5.626 -0.7512  0.4069 -0.4586
 5415TIP3   OH237735   5.841   2.048   0.946 -0.5940  1.2022 -0.1803
 5415TIP3    H137736   5.819   2.103   0.870  1.3893  1.3019 -0.7579
 5415TIP3    H237737   5.871   1.965   0.907  0.5691  1.2987  0.4640
 5416TIP3   OH237738   6.820   1.510  15.305  0.0404 -0.1589 -0.0072
 5416TIP3    H137739   6.807   1.465  15.389 -1.2036 -1.4328 -0.8565
 5416TIP3    H237740   6.875   1.450  15.254  0.2354  0.3088 -0.3548
 5417TIP3   OH237741   1.708   2.964   5.279 -0.4315  0.0092 -0.2750
 5417TIP3    H137742   1.671   2.911   5.349  1.3726  1.3872  1.8626
 5417TIP3    H237743   1.775   2.908   5.239 -1.7996 -0.9553 -1.2813
 5418TIP3   OH237744   2.840   3.056  15.891 -0.0349 -0.2024 -0.1478
 5418TIP3    H137745   2.851   3.092  15.978  1.7092  0.5538 -0.6490
 5418TIP3    H237746   2.927   3.025  15.866 -0.6758 -1.1784 -1.3001
 5419TIP3   OH237747   3.200   3.081   2.825  0.0877  0.2631 -0.1652
 5419TIP3    H137748   3.186   2.997   2.869  0.5434  0.3719  0.2035
 5419TIP3    H237749   3.237   3.137   2.893 -0.0820  0.7214 -0.4459
 5420TIP3   OH237750   5.886   6.554  14.604 -0.2819 -0.2328 -0.1274
 5420TIP3    H137751   5.958   6.491  14.601  0.1618  0.3089 -1.0272
 5420TIP3    H237752   5.870   6.567  14.698  0.5142 -0.6595  0.0721
 5421TIP3   OH237753   6.741   0.203   6.314  0.2692 -0.5055  0.1561
 5421TIP3    H137754   6.817   0.147   6.331 -0.8102 -2.6120 -1.5076
 5421TIP3    H237755   6.686   0.152   6.255 -1.4757  1.7953 -0.3577
 5422TIP3   OH237756   5.325   3.219   4.605  0.5790 -0.0244  0.2848
 5422TIP3    H137757   5.342   3.176   4.689 -2.5922 -1.1130  0.4854
 5422TIP3    H237758   5.298   3.308   4.628  2.0377  0.4855  0.1820
 5423TIP3   OH237759   0.952   1.479  12.130  0.2393  0.5308 -0.5312
 5423TIP3    H137760   1.045   1.497  12.140  0.0697  0.7627  0.8153
 5423TIP3    H237761   0.944   1.384  12.145 -0.0719  0.9355  2.5469
 5424TIP3   OH237762   4.587   3.801  10.460  0.2213 -0.3099 -0.1997
 5424TIP3    H137763   4.543   3.808  10.375  0.6603 -1.0693 -0.4991
 5424TIP3    H237764   4.676   3.771  10.439  0.9793  1.3746  0.3754
 5425TIP3   OH237765   5.940   0.824   4.472  0.4045 -0.4487  0.7281
 5425TIP3    H137766   5.876   0.840   4.403  0.6660 -0.3084  0.5162
 5425TIP3    H237767   6.019   0.871   4.443 -0.1496  1.5508  2.1785
 5426TIP3   OH237768   4.385   4.996   0.095  0.0960  0.4175  0.3262
 5426TIP3    H137769   4.393   5.088   0.120 -1.4444  0.4208  0.9229
 5426TIP3    H237770   4.349   4.954   0.173 -1.2154 -0.2894 -0.6343
 5427TIP3   OH237771   3.557   6.717   5.544 -0.1123  0.1235  0.1758
 5427TIP3    H137772   3.560   6.678   5.457  0.2750  0.9674 -0.2051
 5427TIP3    H237773   3.516   6.803   5.530  2.1751  1.3243  0.3776
 5428TIP3   OH237774   0.934   3.497   0.273 -0.0441 -0.2250 -0.0624
 5428TIP3    H137775   0.943   3.406   0.243 -0.2707 -0.1182 -0.4585
 5428TIP3    H237776   0.839   3.513   0.271 -0.0060  0.0115  0.0349
 5429TIP3   OH237777   3.772   4.176  16.869  0.1902 -0.1404 -0.6013
 5429TIP3    H137778   3.706   4.107  16.871  0.2883 -0.2526 -1.0310
 5429TIP3    H237779   3.828   4.153  16.794  0.6253  0.0337 -0.3345
 5430TIP3   OH237780   3.010   6.280  15.345  0.7395  0.4383 -0.6350
 5430TIP3    H137781   2.950   6.221  15.299 -0.5897  1.5097 -0.3571
 5430TIP3    H237782   2.989   6.269  15.437  2.2076 -0.4339 -0.3682
 5431TIP3   OH237783   6.689   3.392  14.268  0.5318 -0.0116 -0.1360
 5431TIP3    H137784   6.755   3.413  14.334 -0.5468  0.9535  0.6620
 5431TIP3    H237785   6.619   3.348  14.316  0.1629 -0.1779 -0.8073
 5432TIP3   OH237786   5.166   1.205   5.043  0.0061  0.5946 -0.1530
 5432TIP3    H137787   5.245   1.245   5.082  1.0384 -0.5351 -1.0209
 5432TIP3    H237788   5.186   1.112   5.039 -1.1588  0.3666 -0.9339
 5433TIP3   OH237789   2.258   5.090   6.359 -0.4038 -0.2501 -0.0352
 5433TIP3    H137790   2.322   5.149   6.399 -0.7697 -0.2497  0.5719
 5433TIP3    H237791   2.226   5.036   6.432 -0.2707 -1.0156 -0.5292
 5434TIP3   OH237792   6.260   2.269   4.584 -0.2747 -0.5591 -0.0834
 5434TIP3    H137793   6.282   2.226   4.501 -1.4575 -1.4061  0.0158
 5434TIP3    H237794   6.192   2.332   4.562  1.6268  1.5241 -0.2683
 5435TIP3   OH237795   2.061   2.739   4.232  0.8185  0.5508  0.7625
 5435TIP3    H137796   1.985   2.686   4.211  0.3777  1.6055 -0.4782
 5435TIP3    H237797   2.112   2.686   4.292 -0.2329 -0.7271  0.5668
 5436TIP3   OH237798   4.278   5.349  13.629  0.3905 -0.0574 -0.0479
 5436TIP3    H137799   4.192   5.341  13.670  0.9564  0.4112  1.3187
 5436TIP3    H237800   4.275   5.433  13.583 -0.6094 -1.0714 -1.9284
 5437TIP3   OH237801   1.314   0.609  15.496 -0.0637  0.5643 -0.1569
 5437TIP3    H137802   1.302   0.569  15.582  0.4278  0.0113 -0.3335
 5437TIP3    H237803   1.226   0.634  15.468 -0.2828  0.3160  0.3008
 5438TIP3   OH237804   2.675   4.651  13.032 -0.1519 -0.3610 -0.1637
 5438TIP3    H137805   2.661   4.619  12.943  0.7199 -0.6282 -0.2092
 5438TIP3    H237806   2.612   4.602  13.085 -1.4571  0.5858 -0.7705
 5439TIP3   OH237807   5.951   2.807   5.375 -0.0523 -0.1348 -0.4951
 5439TIP3    H137808   5.857   2.808   5.391 -0.0726  0.3708 -0.6268
 5439TIP3    H237809   5.962   2.849   5.290  0.2609 -0.5527 -0.6620
 5440TIP3   OH237810   1.303   4.744   2.474  0.2720 -0.1626 -0.3751
 5440TIP3    H137811   1.263   4.790   2.401 -0.1774 -0.8263 -0.5494
 5440TIP3    H237812   1.320   4.656   2.441 -0.6958 -0.7220  0.5643
 5441TIP3   OH237813   1.149   3.888  13.368 -0.3033  0.2335  0.1227
 5441TIP3    H137814   1.199   3.964  13.398 -0.5583  0.5098 -0.1365
 5441TIP3    H237815   1.179   3.816  13.423 -0.3470  0.6070  0.6482
 5442TIP3   OH237816   1.313   3.919  12.364 -0.5741 -0.2808 -0.7886
 5442TIP3    H137817   1.225   3.930  12.400 -0.3212 -0.8548  0.0165
 5442TIP3    H237818   1.365   3.986  12.408 -0.6397  0.2136 -1.4360
 5443TIP3   OH237819   3.493   4.201  15.472 -0.4090 -0.2481 -0.4155
 5443TIP3    H137820   3.413   4.150  15.479 -0.3414 -0.5660 -1.6494
 5443TIP3    H237821   3.478   4.260  15.397 -0.8035  2.1588  1.4224
 5444TIP3   OH237822   0.156   3.701   5.593 -0.4226 -0.1705  0.3606
 5444TIP3    H137823   0.105   3.740   5.664 -1.9856  1.5579 -1.6029
 5444TIP3    H237824   0.119   3.613   5.583 -0.5842 -0.2165  1.2594
 5445TIP3   OH237825   2.267   1.040  12.953 -0.0419 -0.0447  0.0159
 5445TIP3    H137826   2.246   0.955  12.992  1.1191  0.2218  1.3051
 5445TIP3    H237827   2.333   1.020  12.886 -0.1957 -0.2205 -0.0841
 5446TIP3   OH237828   0.360   4.432   4.398  0.2372  0.1589  0.2223
 5446TIP3    H137829   0.436   4.409   4.452  0.2923  0.1461  0.1400
 5446TIP3    H237830   0.298   4.361   4.413 -0.5258  1.0943  1.7462
 5447TIP3   OH237831   3.305   0.390  16.812  0.2390  0.8728 -0.0174
 5447TIP3    H137832   3.212   0.412  16.814  0.2005  0.6853  0.2674
 5447TIP3    H237833   3.342   0.446  16.744 -0.1026  0.8743 -0.1994
 5448TIP3   OH237834   2.620   1.407  16.600  0.1752  0.3611  0.3349
 5448TIP3    H137835   2.701   1.448  16.631  0.0968  0.4978  0.3619
 5448TIP3    H237836   2.614   1.433  16.509  0.3152  0.1039  0.2527
 5449TIP3   OH237837   3.218   3.757  11.307 -0.0849  0.4880 -0.2148
 5449TIP3    H137838   3.251   3.846  11.321  1.6038 -0.0836 -0.3367
 5449TIP3    H237839   3.229   3.714  11.392 -1.0576  0.4323 -0.1100
 5450TIP3   OH237840   6.720   4.484  15.827  0.1204 -0.0231  0.3445
 5450TIP3    H137841   6.769   4.404  15.812 -0.0149  0.2361 -1.8260
 5450TIP3    H237842   6.765   4.550  15.775 -0.1840  1.1696  1.5349
 5451TIP3   OH237843   6.388   0.163  12.476 -0.2745 -0.4217 -0.1306
 5451TIP3    H137844   6.361   0.100  12.410 -3.4007 -0.9189  1.4705
 5451TIP3    H237845   6.364   0.248  12.439 -1.9300 -0.6893  0.2943
 5452TIP3   OH237846   5.039   2.305  14.839 -0.3116  0.1586  0.0292
 5452TIP3    H137847   5.056   2.367  14.910 -0.4470  0.4357 -0.1796
 5452TIP3    H237848   4.944   2.293  14.840 -0.2555 -0.2710  0.2590
 5453TIP3   OH237849   6.554   5.772  13.530 -0.7016 -0.2476 -0.2471
 5453TIP3    H137850   6.638   5.809  13.502 -0.5143 -0.2683  0.2765
 5453TIP3    H237851   6.491   5.804  13.465 -0.4677  0.6263 -0.0581
 5454TIP3   OH237852   0.969   1.071   5.298 -0.1582 -0.2636  0.2808
 5454TIP3    H137853   0.884   1.037   5.324  0.6747 -1.7078  1.2991
 5454TIP3    H237854   0.996   1.015   5.225  0.3881 -0.5538  0.6977
 5455TIP3   OH237855   4.176   6.172  14.895 -0.0332 -0.1345  0.6806
 5455TIP3    H137856   4.096   6.224  14.905 -0.8591 -1.3044  0.3945
 5455TIP3    H237857   4.225   6.217  14.826 -0.0746  1.0082  1.3629
 5456TIP3   OH237858   4.053   0.693  16.387 -0.5101 -0.8664 -0.1105
 5456TIP3    H137859   4.018   0.745  16.315 -0.2819  1.2845  1.2565
 5456TIP3    H237860   4.002   0.720  16.463  0.9306 -1.1808  1.0118
 5457TIP3   OH237861   3.791   0.101  16.225 -0.0836 -0.1265  0.5555
 5457TIP3    H137862   3.853   0.130  16.292  0.0211 -0.4815  0.6139
 5457TIP3    H237863   3.824   0.140  16.144  0.4388 -0.6187  0.5218
 5458TIP3   OH237864   4.645   2.164  12.170 -0.1547  0.4659  0.2294
 5458TIP3    H137865   4.631   2.214  12.089 -0.1482  0.0676 -0.0185
 5458TIP3    H237866   4.598   2.215  12.237 -1.6827 -0.1164 -0.3430
 5459TIP3   OH237867   2.507   1.859   3.629 -0.8981 -0.1517 -0.0373
 5459TIP3    H137868   2.431   1.806   3.603 -1.3740  0.8922 -0.8264
 5459TIP3    H237869   2.575   1.837   3.565 -1.3224  0.6853 -0.7967
 5460TIP3   OH237870   2.212   2.773   3.192 -0.4358 -0.3887 -0.6363
 5460TIP3    H137871   2.187   2.699   3.135  0.0345  0.1999 -1.6309
 5460TIP3    H237872   2.234   2.732   3.275 -0.2333 -1.3776 -1.1539
 5461TIP3   OH237873   0.882   4.731  13.571  0.5652  0.0748 -0.3808
 5461TIP3    H137874   0.909   4.762  13.485  1.4901 -1.4753 -0.6979
 5461TIP3    H237875   0.918   4.795  13.633 -1.0829  1.8314 -1.1478
 5462TIP3   OH237876   0.385   0.238   5.757 -0.5788  0.1190 -0.3192
 5462TIP3    H137877   0.406   0.181   5.831 -1.0686  0.3063 -0.0283
 5462TIP3    H237878   0.354   0.178   5.689 -2.4098  0.1115  0.4526
 5463TIP3   OH237879   2.121   1.817   1.088 -0.0262 -0.1308 -0.3292
 5463TIP3    H137880   2.085   1.833   1.001  0.1835 -0.0752 -0.4065
 5463TIP3    H237881   2.121   1.722   1.097  0.0811 -0.1413 -0.4441
 5464TIP3   OH237882   0.084   2.146  16.935 -0.1679  0.4960  0.4127
 5464TIP3    H137883   0.017   2.161  16.868 -0.5477  0.1565  0.7048
 5464TIP3    H237884   0.140   2.078  16.898 -0.0546  0.6970  0.2148
 5465TIP3   OH237885   5.188   5.614   2.354 -0.6097 -0.4886  0.1483
 5465TIP3    H137886   5.143   5.691   2.387  0.8038  0.7275 -0.6200
 5465TIP3    H237887   5.175   5.616   2.260  1.3586  0.1670 -0.1571
 5466TIP3   OH237888   1.983   6.642  16.347  0.5532  0.0355  0.1047
 5466TIP3    H137889   1.991   6.572  16.283 -2.7263  0.2723 -0.7469
 5466TIP3    H237890   1.941   6.601  16.423 -1.7457  1.0453 -0.5402
 5467TIP3   OH237891   5.475   4.051  14.041 -0.1380  0.3435 -0.4913
 5467TIP3    H137892   5.439   4.139  14.032  1.8039  1.2988  0.4018
 5467TIP3    H237893   5.542   4.059  14.108  0.2372 -1.7993 -0.5162
 5468TIP3   OH237894   3.309   1.272   4.043 -0.1921 -0.0571  0.3266
 5468TIP3    H137895   3.222   1.256   4.079 -0.5462  0.8862 -0.0974
 5468TIP3    H237896   3.309   1.364   4.018  0.4974 -0.3543 -0.8551
 5469TIP3   OH237897   2.005   2.262  17.115  0.0601 -0.4316 -0.3244
 5469TIP3    H137898   1.923   2.262  17.067 -0.5275 -0.8333  0.6474
 5469TIP3    H237899   1.980   2.248  17.206  1.1290  0.4339  0.1294
 5470TIP3   OH237900   2.917   0.721  15.294  0.1599 -0.4007  0.1016
 5470TIP3    H137901   2.952   0.666  15.223  0.0570  0.8266 -0.9436
 5470TIP3    H237902   2.856   0.781  15.250  0.0005  0.3138  1.2548
 5471TIP3   OH237903   0.304   3.132  11.046 -0.5624  0.2665  0.1624
 5471TIP3    H137904   0.263   3.046  11.041 -1.3866  0.7098 -3.3619
 5471TIP3    H237905   0.262   3.183  10.976  2.0534  2.5504  0.0726
 5472TIP3   OH237906   5.527   1.298   4.894 -1.0433 -0.2859  0.2528
 5472TIP3    H137907   5.472   1.325   4.967 -1.0398  2.1889 -0.5647
 5472TIP3    H237908   5.538   1.377   4.841  1.4998 -1.2012 -0.7845
 5473TIP3   OH237909   5.964   0.379   0.436 -0.3781 -0.3461 -0.1635
 5473TIP3    H137910   5.881   0.331   0.432 -0.5385 -0.0138 -1.0218
 5473TIP3    H237911   5.939   0.469   0.456  0.0327 -0.8633  3.2188
 5474TIP3   OH237912   0.520   0.864   2.030  0.3337  0.7502 -0.4043
 5474TIP3    H137913   0.553   0.776   2.016  0.4547  0.7105  0.1377
 5474TIP3    H237914   0.558   0.915   1.959  0.2213  0.3565 -0.7509
 5475TIP3   OH237915   5.180   5.499  16.328  0.3253 -1.0967 -0.0333
 5475TIP3    H137916   5.095   5.524  16.365  0.4219 -0.9557  0.0977
 5475TIP3    H237917   5.159   5.444  16.253  0.0975 -0.4071 -0.4861
 5476TIP3   OH237918   3.530   5.582  14.057  0.4355 -0.2565  0.0791
 5476TIP3    H137919   3.485   5.631  14.125  2.3066  0.8363  0.6085
 5476TIP3    H237920   3.617   5.566  14.093  0.7457 -1.6347 -1.1721
 5477TIP3   OH237921   2.778   6.082   1.040 -0.2153 -0.1812 -0.4680
 5477TIP3    H137922   2.819   6.004   1.076 -1.2867 -1.3206 -1.6619
 5477TIP3    H237923   2.838   6.112   0.972 -0.3548 -0.6226 -0.7841
 5478TIP3   OH237924   3.368   6.517  12.754 -0.1512  0.4101  0.1227
 5478TIP3    H137925   3.301   6.480  12.811  0.9257 -1.2116  0.3919
 5478TIP3    H237926   3.372   6.610  12.779 -0.0388 -0.1449  2.3711
 5479TIP3   OH237927   5.548   4.037  13.048  0.1369  0.4094 -0.3082
 5479TIP3    H137928   5.520   3.954  13.087 -0.7821  1.2656  0.9243
 5479TIP3    H237929   5.527   4.027  12.955 -1.6769 -0.0761  0.1098
 5480TIP3   OH237930   4.635   1.972   0.589 -0.0361  0.2846 -0.0330
 5480TIP3    H137931   4.549   1.973   0.548  0.0484  1.5756 -0.2391
 5480TIP3    H237932   4.642   1.886   0.629 -1.8127  0.4696  0.7818
 5481TIP3   OH237933   5.225   5.444   0.958  0.0407 -0.0451  0.0017
 5481TIP3    H137934   5.168   5.417   1.030 -0.2762 -1.0648 -0.6051
 5481TIP3    H237935   5.243   5.536   0.975 -0.2331 -0.1978  1.2385
 5482TIP3   OH237936   1.768   5.758  15.002  0.0029  0.4303  0.0919
 5482TIP3    H137937   1.795   5.804  15.082 -0.4626 -0.9474  1.0800
 5482TIP3    H237938   1.828   5.684  14.996 -0.3883  0.1591 -0.4827
 5483TIP3   OH237939   2.101   0.585   3.328 -0.1591  0.2087 -0.2295
 5483TIP3    H137940   2.058   0.666   3.353  1.0846  0.6852  0.4571
 5483TIP3    H237941   2.062   0.562   3.243  0.8172  2.5654 -1.3970
 5484TIP3   OH237942   3.791   1.668  16.063  0.0098 -0.5585 -0.0774
 5484TIP3    H137943   3.696   1.669  16.064  0.0085 -0.6939  0.0136
 5484TIP3    H237944   3.814   1.576  16.076  0.1525 -0.5346 -0.1542
 5485TIP3   OH237945   1.700   6.220   0.665  0.1175  0.1050 -0.5882
 5485TIP3    H137946   1.642   6.177   0.728  0.7159  1.0205  0.6564
 5485TIP3    H237947   1.651   6.221   0.583 -0.4757 -1.6241 -0.2933
 5486TIP3   OH237948   0.887   4.570   1.725 -0.1682 -0.0388  0.0920
 5486TIP3    H137949   0.882   4.475   1.731 -0.0658 -0.0202  0.5476
 5486TIP3    H237950   0.922   4.597   1.810 -0.3437  0.4148  0.0222
 5487TIP3   OH237951   3.411   0.188  15.170  0.0309  0.5568  0.4975
 5487TIP3    H137952   3.485   0.129  15.155 -1.0572 -0.6785 -0.2523
 5487TIP3    H237953   3.378   0.207  15.083 -2.6310 -1.7353  0.8898
 5488TIP3   OH237954   5.625   5.124   0.361  0.1180 -0.5526 -0.5066
 5488TIP3    H137955   5.668   5.179   0.427  0.0648 -0.9490 -0.1382
 5488TIP3    H237956   5.600   5.185   0.292 -0.2778 -0.0518  0.0684
 5489TIP3   OH237957   5.962   6.151   3.621  0.1346  0.5708  0.6028
 5489TIP3    H137958   5.994   6.242   3.619  2.1771 -0.0855 -0.5680
 5489TIP3    H237959   5.982   6.118   3.533 -2.4426 -0.4652  0.3201
 5490TIP3   OH237960   4.121   5.182   4.197  0.2185  0.4734 -0.0139
 5490TIP3    H137961   4.117   5.236   4.276 -1.9174 -3.1530  2.6708
 5490TIP3    H237962   4.037   5.195   4.154 -2.3125 -3.5014  3.0446
 5491TIP3   OH237963   6.553   0.988   1.581 -0.1147  0.3393  0.6395
 5491TIP3    H137964   6.633   1.026   1.616 -0.0764 -0.0046  0.9342
 5491TIP3    H237965   6.496   0.977   1.657 -0.0166 -0.4422  0.6111
 5492TIP3   OH237966   5.783   2.611  11.809  0.4434 -0.5306 -0.2817
 5492TIP3    H137967   5.735   2.674  11.863 -0.7067 -0.0674 -1.7583
 5492TIP3    H237968   5.730   2.531  11.813  0.7484 -0.7276 -0.1429
 5493TIP3   OH237969   2.362   0.037  15.216 -0.0072  0.0973  0.1005
 5493TIP3    H137970   2.304  -0.001  15.150 -0.7477 -0.3173  0.9562
 5493TIP3    H237971   2.305   0.050  15.292  0.4796  1.9991  0.1672
 5494TIP3   OH237972   3.289   1.094  14.876  0.3289  0.1681 -0.3148
 5494TIP3    H137973   3.347   1.150  14.927 -1.5340  1.3002  0.6301
 5494TIP3    H237974   3.251   1.034  14.940  0.4449 -0.5845 -0.9339
 5495TIP3   OH237975   6.266   4.226   3.726 -0.2014  0.0786 -0.4204
 5495TIP3    H137976   6.283   4.300   3.785  0.6841  0.3459 -0.9942
 5495TIP3    H237977   6.334   4.233   3.659 -1.1097 -0.3086 -1.3961
 5496TIP3   OH237978   4.535   3.291  12.056 -0.1785  0.5456 -0.7445
 5496TIP3    H137979   4.597   3.264  12.124  0.7054  1.7387 -1.0509
 5496TIP3    H237980   4.590   3.322  11.984 -1.0576 -1.6561 -2.4907
 5497TIP3   OH237981   1.754   4.211   0.965  0.3783 -0.2037 -0.0050
 5497TIP3    H137982   1.686   4.239   1.026 -0.6449 -0.6616 -0.8923
 5497TIP3    H237983   1.832   4.201   1.019 -0.5772 -0.9822  1.3194
 5498TIP3   OH237984   1.906   5.031  16.900 -0.3476 -0.3434 -0.2879
 5498TIP3    H137985   1.864   5.075  16.974 -1.6449  0.8182 -1.6304
 5498TIP3    H237986   1.837   4.977  16.861 -0.1447  0.2265 -1.5107
 5499TIP3   OH237987   4.928   5.939   0.367 -0.2291 -0.0460  0.0955
 5499TIP3    H137988   4.952   5.846   0.373  0.2594  0.0815  0.2134
 5499TIP3    H237989   4.851   5.948   0.424  0.2990 -0.1951  0.8584
 5500TIP3   OH237990   2.374   2.071   1.000 -0.1689 -0.7131  0.1542
 5500TIP3    H137991   2.460   2.074   1.041  0.5460 -0.9813 -1.2604
 5500TIP3    H237992   2.337   2.159   1.014  1.4699  0.3094 -1.5115
 5501TIP3   OH237993   5.776   2.305  10.992 -0.4697  0.2703  0.1262
 5501TIP3    H137994   5.865   2.321  10.961 -0.8970 -0.2078 -1.4428
 5501TIP3    H237995   5.720   2.336  10.922 -1.4450 -2.3406 -0.3706
 5502TIP3   OH237996   4.411   1.987  11.770 -0.7757  0.5448  0.3083
 5502TIP3    H137997   4.440   1.899  11.795  1.1096  0.9593 -0.2781
 5502TIP3    H237998   4.372   1.976  11.683 -0.2461  0.3223  0.0923
 5503TIP3   OH237999   6.575   1.489   1.164  0.5672  0.4344  0.1424
 5503TIP3    H138000   6.542   1.454   1.082  0.0979  2.5405 -0.6281
 5503TIP3    H238001   6.663   1.452   1.172 -0.2000 -1.5647 -0.1315
 5504TIP3   OH238002   3.238   3.447   2.067 -0.3159  0.5308  0.6315
 5504TIP3    H138003   3.309   3.384   2.079  0.5936  1.5932  0.9937
 5504TIP3    H238004   3.273   3.530   2.099 -1.4675  1.2470  0.1290
 5505TIP3   OH238005   1.648   5.101  13.516 -0.9186 -0.0992  0.0123
 5505TIP3    H138006   1.589   5.129  13.586  0.2311  1.1631  0.5342
 5505TIP3    H238007   1.720   5.057  13.561  0.5678  2.0105 -0.1612
 5506TIP3   OH238008   3.663   4.991   5.178 -0.0732  0.1812  0.6788
 5506TIP3    H138009   3.691   5.072   5.136  0.0406 -0.0838  0.2406
 5506TIP3    H238010   3.593   4.957   5.122  0.5162 -0.5035  0.3335
 5507TIP3   OH238011   3.860   6.188  11.635  0.8070  0.5938  0.7926
 5507TIP3    H138012   3.845   6.103  11.592 -0.7832  1.5469 -0.6706
 5507TIP3    H238013   3.810   6.250  11.582 -0.5800  2.0117  3.5669
 5508TIP3   OH238014   0.644   2.653  12.497  0.0966 -0.0036  0.0046
 5508TIP3    H138015   0.654   2.558  12.501 -1.2288 -0.1348  0.9117
 5508TIP3    H238016   0.570   2.667  12.439  0.9772  0.5555 -1.0205
 5509TIP3   OH238017   3.809   4.742  12.917  0.0769  0.1653 -0.7425
 5509TIP3    H138018   3.874   4.792  12.867  0.2643 -0.5524 -1.2347
 5509TIP3    H238019   3.809   4.655  12.877 -1.1898  0.1433 -0.7587
 5510TIP3   OH238020   6.011   1.081   3.033 -0.1928 -1.0602  0.0626
 5510TIP3    H138021   6.104   1.058   3.028 -0.2496 -1.1300 -0.8781
 5510TIP3    H238022   6.010   1.166   3.078  0.2357 -1.5127  0.9597
 5511TIP3   OH238023   1.811   5.981  10.838 -0.4769 -0.1128  0.3332
 5511TIP3    H138024   1.871   5.920  10.795 -1.5079 -0.9543  0.0382
 5511TIP3    H238025   1.771   5.929  10.908 -1.6526  0.1006 -0.1618
 5512TIP3   OH238026   4.142   4.657  14.444  0.0588  0.5666  0.0451
 5512TIP3    H138027   4.080   4.675  14.515  0.2420  2.6371 -0.2543
 5512TIP3    H238028   4.226   4.646  14.489 -0.3778 -1.7580  0.4086
 5513TIP3   OH238029   4.033   3.718  11.217 -0.3275  0.0133  0.1135
 5513TIP3    H138030   3.972   3.658  11.174 -1.4618  1.2261 -0.0226
 5513TIP3    H238031   4.022   3.801  11.171  1.6931  0.1979 -0.1432
 5514TIP3   OH238032   4.169   4.328   5.028  0.0831  0.4072  0.5615
 5514TIP3    H138033   4.236   4.274   5.070  1.4200  1.3550 -0.3086
 5514TIP3    H238034   4.210   4.362   4.949 -1.6353  0.5266 -0.3428
 5515TIP3   OH238035   4.244   1.444   0.953  0.4763  0.2629 -0.1610
 5515TIP3    H138036   4.291   1.451   0.870  0.8273  2.5625  0.1544
 5515TIP3    H238037   4.198   1.361   0.948  2.4406 -0.8253 -1.6144
 5516TIP3   OH238038   1.563   4.389  14.402  0.6085 -0.8522 -0.0366
 5516TIP3    H138039   1.522   4.458  14.455  0.1133 -2.2637  1.4933
 5516TIP3    H238040   1.655   4.390  14.428  0.2601 -1.9130  1.3291
 5517TIP3   OH238041   4.229   0.882   0.921 -0.2171  0.1315 -0.0216
 5517TIP3    H138042   4.278   0.814   0.968  0.7670 -1.4089 -3.0628
 5517TIP3    H238043   4.152   0.897   0.976  0.4068 -2.1484  1.6344
 5518TIP3   OH238044   3.991   1.187   5.580  0.1266 -0.6785 -0.1242
 5518TIP3    H138045   4.014   1.122   5.647 -1.5775 -1.2184 -0.0047
 5518TIP3    H238046   4.069   1.241   5.571  1.5838 -2.6818 -0.1649
 5519TIP3   OH238047   1.916   2.352  14.413 -0.3156  0.0881  0.1679
 5519TIP3    H138048   1.954   2.433  14.381  0.8440  0.5971  2.6282
 5519TIP3    H238049   1.986   2.288  14.406 -0.2387  0.0647  1.0687
 5520TIP3   OH238050   1.931   2.754   5.205  0.2097 -0.2839  0.0186
 5520TIP3    H138051   1.974   2.761   5.290  1.6681  1.2697 -0.7698
 5520TIP3    H238052   1.926   2.660   5.187  1.5688 -0.5648  1.0060
 5521TIP3   OH238053   6.527   4.677   3.995 -0.4093 -0.3302  0.1339
 5521TIP3    H138054   6.466   4.609   4.022 -1.8134  0.9429  0.3248
 5521TIP3    H238055   6.524   4.742   4.065  0.3705  0.2595 -0.3496
 5522TIP3   OH238056   4.601   6.260  13.837 -0.8141 -0.2651  0.0382
 5522TIP3    H138057   4.525   6.307  13.804 -1.6453 -1.5224  0.1198
 5522TIP3    H238058   4.617   6.191  13.773 -0.5288 -0.7945  0.6651
 5523TIP3   OH238059   0.266   1.269   4.685 -0.0902 -0.1173  0.5792
 5523TIP3    H138060   0.192   1.276   4.746 -0.8190  1.0056 -0.3938
 5523TIP3    H238061   0.236   1.315   4.606  1.9908  1.1579  0.4766
 5524TIP3   OH238062   1.825   1.362   2.618 -0.3784 -0.3863 -0.4039
 5524TIP3    H138063   1.813   1.348   2.711  0.6824  0.3125 -0.1442
 5524TIP3    H238064   1.769   1.438   2.598 -0.4015 -0.3706 -0.2821
 5525TIP3   OH238065   1.987   0.527   2.687 -0.1081 -0.0269 -0.7483
 5525TIP3    H138066   1.987   0.573   2.603  0.4683 -0.6510 -1.0948
 5525TIP3    H238067   2.015   0.438   2.666  0.3766 -0.0966  0.1499
 5526TIP3   OH238068   1.268   2.271   0.368  0.4527 -0.4581  0.0153
 5526TIP3    H138069   1.355   2.310   0.375  0.1998  0.0845  0.2133
 5526TIP3    H238070   1.240   2.290   0.279  0.7092 -1.0080 -0.1850
 5527TIP3   OH238071   4.807   6.104  17.028 -0.4201 -0.1795 -0.3926
 5527TIP3    H138072   4.901   6.093  17.013 -0.1103  0.5638  0.8425
 5527TIP3    H238073   4.794   6.080  17.120 -1.5489 -0.8359 -0.6985
 5528TIP3   OH238074   3.579   2.171  16.455 -0.2811 -0.3384 -0.5787
 5528TIP3    H138075   3.607   2.205  16.540  0.5872 -2.2352 -0.0481
 5528TIP3    H238076   3.658   2.133  16.418 -1.0581 -1.2076 -1.3887
 5529TIP3   OH238077   3.033   0.181   4.934 -0.1495 -0.3806  0.2238
 5529TIP3    H138078   3.111   0.217   4.977  0.5362 -0.3753 -0.9939
 5529TIP3    H238079   3.039   0.087   4.949 -0.5233 -0.2690  1.1128
 5530TIP3   OH238080   2.103   1.265  15.164  0.2370 -0.1123 -0.0086
 5530TIP3    H138081   2.114   1.353  15.199 -0.0947 -0.1909  0.3026
 5530TIP3    H238082   2.053   1.277  15.083 -0.7091 -0.0924  0.5564
 5531TIP3   OH238083   4.144   5.190  11.568 -0.3029 -0.0410  0.1862
 5531TIP3    H138084   4.216   5.243  11.534 -1.1769  1.7421  0.9749
 5531TIP3    H238085   4.102   5.153  11.490 -0.6691  1.8175 -0.5562
 5532TIP3   OH238086   1.094   3.098  10.331 -0.2760 -0.5104  0.5467
 5532TIP3    H138087   1.060   3.037  10.395 -1.1477  0.8580  1.4472
 5532TIP3    H238088   1.016   3.135  10.289  0.0759  1.5784  1.5884
 5533TIP3   OH238089   5.747   0.536  15.376 -0.1707 -0.3727  0.6798
 5533TIP3    H138090   5.767   0.474  15.305  0.4680  1.5950 -0.9540
 5533TIP3    H238091   5.804   0.509  15.448  0.3622 -1.4533 -0.1245
 5534TIP3   OH238092   3.486   2.077  16.893  0.3051 -0.3310 -0.3658
 5534TIP3    H138093   3.506   1.987  16.868 -1.4114 -0.6206 -0.8350
 5534TIP3    H238094   3.451   2.070  16.982 -0.1472 -0.1799 -0.5282
 5535TIP3   OH238095   5.499   6.429  14.369  0.5004  0.1722 -0.2353
 5535TIP3    H138096   5.506   6.334  14.379  0.2399  0.2359  0.6304
 5535TIP3    H238097   5.405   6.447  14.371  0.4718  0.3223 -1.7766
 5536TIP3   OH238098   3.367   6.293  13.831  0.8586  0.2301  0.4478
 5536TIP3    H138099   3.314   6.369  13.805 -0.8592 -1.2172 -0.4684
 5536TIP3    H238100   3.349   6.283  13.924  2.5639  2.0078  1.0349
 5537TIP3   OH238101   6.349   0.274   1.565 -0.3726 -0.1815 -0.8786
 5537TIP3    H138102   6.314   0.267   1.653 -0.3679 -0.1460 -0.8741
 5537TIP3    H238103   6.444   0.285   1.577 -0.5887  1.8832 -0.8261
 5538TIP3   OH238104   4.673   0.358   6.309  0.1334  0.0573 -0.4831
 5538TIP3    H138105   4.619   0.286   6.341  1.4412 -0.4694  0.5837
 5538TIP3    H238106   4.721   0.389   6.385 -0.4179  2.1224 -0.9018
 5539TIP3   OH238107   1.882   5.382  11.709  0.4144 -0.2127  0.0777
 5539TIP3    H138108   1.901   5.297  11.669  0.7510 -0.3674  0.5505
 5539TIP3    H238109   1.901   5.445  11.640  1.9366 -0.4095  0.2694
 5540TIP3   OH238110   5.310   5.878  16.181 -0.1706  0.3654 -0.8397
 5540TIP3    H138111   5.401   5.907  16.184  0.0480 -0.3639 -0.3656
 5540TIP3    H238112   5.310   5.807  16.117 -0.1213 -0.6063  0.2171
 5541TIP3   OH238113   4.391   6.469   0.327 -0.1326  0.3098 -0.3257
 5541TIP3    H138114   4.451   6.397   0.305  0.1273  0.1603  0.8108
 5541TIP3    H238115   4.433   6.512   0.402 -1.2062  0.4992  0.1801
 5542TIP3   OH238116   3.360   5.137  14.603  0.0071 -0.3780 -0.1827
 5542TIP3    H138117   3.304   5.064  14.632 -0.2951 -1.0645 -2.2671
 5542TIP3    H238118   3.445   5.097  14.587  0.8738  0.4705  2.0078
 5543TIP3   OH238119   1.106   1.795   2.620  1.1847 -0.3687 -0.2783
 5543TIP3    H138120   1.153   1.806   2.537  1.9387 -0.6032  0.1091
 5543TIP3    H238121   1.015   1.817   2.599  1.4662  0.1083 -1.0379
 5544TIP3   OH238122   5.227   6.557   4.264  0.2180  0.1998  0.0670
 5544TIP3    H138123   5.265   6.469   4.266 -0.2146 -0.0725 -1.6308
 5544TIP3    H238124   5.289   6.611   4.314  1.3789 -0.7525 -0.2727
 5545TIP3   OH238125   6.133   0.989  15.539  0.2881  0.2505 -0.2691
 5545TIP3    H138126   6.118   0.897  15.565  3.5597  0.1683  1.8735
 5545TIP3    H238127   6.173   1.029  15.616 -0.9377  3.5324 -1.1921
 5546TIP3   OH238128   0.255   3.909  11.858 -0.1010 -0.0524  0.1061
 5546TIP3    H138129   0.344   3.932  11.833 -0.4592  0.8303 -0.4122
 5546TIP3    H238130   0.242   3.950  11.943  0.3871 -1.2311  0.7781
 5547TIP3   OH238131   0.724   4.648  13.799 -0.4372  0.0784  0.5089
 5547TIP3    H138132   0.800   4.671  13.744 -1.0010 -0.3120 -0.4544
 5547TIP3    H238133   0.760   4.641  13.887  0.7523 -0.6061 -0.0109
 5548TIP3   OH238134   0.442   0.899  13.625  0.4295 -0.1531 -0.3417
 5548TIP3    H138135   0.432   0.846  13.546 -0.6991 -0.6149  0.0936
 5548TIP3    H238136   0.357   0.943  13.635 -0.0522 -1.4321  1.5582
 5549TIP3   OH238137   2.345   0.874   1.740  0.6845 -0.4722  0.0494
 5549TIP3    H138138   2.277   0.890   1.675 -0.0490 -1.0962  0.6448
 5549TIP3    H238139   2.302   0.893   1.824  1.8010  0.9818  0.3428
 5550TIP3   OH238140   6.676   2.458  13.401  0.5778 -0.0913 -0.2938
 5550TIP3    H138141   6.609   2.507  13.447  0.3427 -2.0264  1.5901
 5550TIP3    H238142   6.726   2.524  13.353  0.6079  2.0789  2.4755
 5551TIP3   OH238143   5.397   3.356  13.624  0.7150  0.3696 -0.0560
 5551TIP3    H138144   5.481   3.328  13.660  0.3379 -0.4751  0.1824
 5551TIP3    H238145   5.394   3.450  13.641  1.4250  0.3322  0.3130
 5552TIP3   OH238146   6.309   5.146   6.884  0.2784  0.2265 -0.0871
 5552TIP3    H138147   6.228   5.164   6.932  0.3955  0.0437  0.1810
 5552TIP3    H238148   6.322   5.224   6.830 -0.0549  0.2741 -0.1027
 5553TIP3   OH238149   1.358   6.600   4.219 -0.2515 -0.5778 -0.0620
 5553TIP3    H138150   1.315   6.617   4.136 -0.4470 -2.1214 -0.3066
 5553TIP3    H238151   1.414   6.677   4.233 -2.7994  1.3836  0.1467
 5554TIP3   OH238152   2.594   5.868   2.518 -0.8825 -0.0325 -0.2640
 5554TIP3    H138153   2.554   5.906   2.596 -1.7106 -0.0864 -0.6495
 5554TIP3    H238154   2.648   5.796   2.551  0.8074  1.5089  0.4866
 5555TIP3   OH238155   6.261   6.632   0.125  0.3519  0.5738 -0.0407
 5555TIP3    H138156   6.278   6.538   0.136 -0.4494  0.3882 -0.3179
 5555TIP3    H238157   6.348   6.671   0.122  0.6976 -0.1358  0.2837
 5556TIP3   OH238158   2.283   4.802   6.396  0.1024 -0.5459 -0.1517
 5556TIP3    H138159   2.292   4.718   6.440 -0.5563 -0.4386  0.2042
 5556TIP3    H238160   2.192   4.804   6.366  0.8265 -1.1535 -2.6647
 5557TIP3   OH238161   4.724   0.769   4.377  0.1230  0.4739 -0.0679
 5557TIP3    H138162   4.670   0.769   4.298  0.6300 -2.9285 -0.5682
 5557TIP3    H238163   4.673   0.817   4.441 -1.8836  0.4036 -1.5250
 5558TIP3   OH238164   3.700   1.558   2.711 -0.1434 -0.3303  0.0136
 5558TIP3    H138165   3.633   1.541   2.777  0.3813  0.8178  0.8807
 5558TIP3    H238166   3.655   1.607   2.642 -0.7826 -1.8632 -0.7096
 5559TIP3   OH238167   4.495   5.372  16.748 -0.2315  0.3894 -0.3305
 5559TIP3    H138168   4.539   5.457  16.747  1.1915 -0.2884  0.7203
 5559TIP3    H238169   4.545   5.318  16.687  0.2987 -0.3438  0.7353
 5560TIP3   OH238170   5.750   3.350  12.209 -0.3516  0.7581 -0.0604
 5560TIP3    H138171   5.737   3.442  12.187 -2.4008  0.7215  0.7471
 5560TIP3    H238172   5.822   3.349  12.272  0.3318  1.6853 -0.8086
 5561TIP3   OH238173   0.338   4.691  13.146  0.5090  0.2348 -0.2250
 5561TIP3    H138174   0.251   4.653  13.139 -0.0413  1.4679 -0.2701
 5561TIP3    H238175   0.332   4.754  13.218  2.1477 -1.6876  1.7450
 5562TIP3   OH238176   5.225   3.855  15.437 -0.4907 -0.1854 -0.1089
 5562TIP3    H138177   5.224   3.814  15.523 -0.9185 -0.5865 -0.3053
 5562TIP3    H238178   5.266   3.791  15.380 -0.1953  0.0858 -0.2081
 5563TIP3   OH238179   5.353   0.163  12.957 -0.5398 -0.3190  0.1688
 5563TIP3    H138180   5.351   0.078  12.913 -1.3725  1.4396 -3.5207
 5563TIP3    H238181   5.302   0.221  12.901  0.2417  2.7572  2.3615
 5564TIP3   OH238182   3.820   3.068  15.986 -0.2537 -0.2247  0.0175
 5564TIP3    H138183   3.731   3.041  15.964  0.1231 -0.4753 -1.2800
 5564TIP3    H238184   3.836   3.144  15.929  0.0749  0.3264  0.8358
 5565TIP3   OH238185   3.066   4.552  11.670  0.1973 -0.0638  0.1251
 5565TIP3    H138186   2.975   4.544  11.640  0.3899  1.1037 -0.8739
 5565TIP3    H238187   3.084   4.646  11.666  0.9908 -0.1128  1.7816
 5566TIP3   OH238188   4.608   5.337   5.946 -0.1442 -0.1104 -0.4938
 5566TIP3    H138189   4.515   5.325   5.928 -0.1312 -1.2027  0.0595
 5566TIP3    H238190   4.636   5.253   5.983  1.0927  0.1456 -0.7916
 5567TIP3   OH238191   4.971   5.627   1.673 -0.2089 -0.1002 -0.3482
 5567TIP3    H138192   5.016   5.551   1.709 -0.3162 -1.5264 -2.9914
 5567TIP3    H238193   4.879   5.601   1.667 -0.8212  1.4083  1.5078
 5568TIP3   OH238194   2.139   6.020   3.884 -0.3008 -0.1638  0.2073
 5568TIP3    H138195   2.052   5.991   3.854 -1.8511  3.1835  0.9736
 5568TIP3    H238196   2.126   6.045   3.975  1.4296  0.6324  0.2728
 5569TIP3   OH238197   4.520   3.587  13.288 -0.2146 -0.0963  0.3707
 5569TIP3    H138198   4.532   3.572  13.194 -0.2807  1.3585  0.1046
 5569TIP3    H238199   4.432   3.552  13.307  0.4814 -2.0104  0.3012
 5570TIP3   OH238200   6.502   6.544  15.238 -0.1062  0.1673  0.3076
 5570TIP3    H138201   6.596   6.552  15.254 -0.3288  0.6039  1.4337
 5570TIP3    H238202   6.482   6.452  15.256 -0.0721  0.3056  1.0825
 5571TIP3   OH238203   1.307   2.791  12.283  0.0109 -0.2606  0.3146
 5571TIP3    H138204   1.306   2.884  12.303 -1.1258 -0.6216  2.2663
 5571TIP3    H238205   1.216   2.771  12.258 -0.5851 -1.3128  2.9031
 5572TIP3   OH238206   1.974   6.264  13.345 -0.0986  0.4411  0.8503
 5572TIP3    H138207   1.977   6.205  13.270  1.6201  3.3610 -1.6330
 5572TIP3    H238208   2.051   6.242  13.397 -1.2455 -1.5425  1.8031
 5573TIP3   OH238209   0.973   2.983   2.171 -0.2452 -0.4422 -1.2079
 5573TIP3    H138210   1.048   3.003   2.227 -1.4324 -1.7815  0.9916
 5573TIP3    H238211   1.006   2.918   2.109  0.9138  0.5527 -1.6839
 5574TIP3   OH238212   2.353   4.369   0.437  0.1609  0.3861 -0.0283
 5574TIP3    H138213   2.382   4.287   0.477  2.2567  0.5631 -1.0365
 5574TIP3    H238214   2.260   4.357   0.421  0.6685 -2.4425 -1.5076
 5575TIP3   OH238215   3.134   5.104   4.267  0.2315 -0.1435 -0.3933
 5575TIP3    H138216   3.046   5.122   4.235  0.2948  1.4849  0.2843
 5575TIP3    H238217   3.135   5.009   4.281 -2.1768  0.0583  1.7796
 5576TIP3   OH238218   0.276   5.417  14.363 -0.2848  0.0325  0.0896
 5576TIP3    H138219   0.340   5.482  14.395  0.4952 -0.1368 -1.0568
 5576TIP3    H238220   0.319   5.333  14.378 -0.4547 -0.1107 -0.2350
 5577TIP3   OH238221   4.199   6.128  11.101  0.6693 -1.1639 -0.1111
 5577TIP3    H138222   4.201   6.193  11.031  0.7361 -0.2323  0.7295
 5577TIP3    H238223   4.273   6.071  11.082  0.1351 -1.4893 -1.3054
 5578TIP3   OH238224   4.266   4.786   0.930  0.2957 -0.6925 -0.1973
 5578TIP3    H138225   4.171   4.790   0.919  0.2028 -1.4999  0.1950
 5578TIP3    H238226   4.301   4.797   0.841 -0.0369  2.0082 -0.0754
 5579TIP3   OH238227   4.284   4.858   4.950 -0.1837  0.0430  0.1302
 5579TIP3    H138228   4.221   4.812   5.005 -0.6023  1.9849  1.3736
 5579TIP3    H238229   4.340   4.789   4.915 -1.5438 -1.5041  0.8755
 5580TIP3   OH238230   2.931   5.477   5.854  0.1655  0.0780 -0.3138
 5580TIP3    H138231   2.950   5.476   5.760 -0.1283  0.2234 -0.3762
 5580TIP3    H238232   3.013   5.502   5.895  0.4269 -0.4477 -0.5007
 5581TIP3   OH238233   4.091   3.047   2.166 -0.4961 -0.0131 -0.1375
 5581TIP3    H138234   4.151   2.973   2.176 -0.7089 -0.1984 -0.2223
 5581TIP3    H238235   4.038   3.024   2.089  2.4023  2.2587 -3.1043
 5582TIP3   OH238236   4.671   5.234   3.131  0.0151 -0.2095 -0.0959
 5582TIP3    H138237   4.581   5.219   3.158 -0.4866 -0.3021 -1.7385
 5582TIP3    H238238   4.709   5.147   3.123 -1.1809 -0.5685 -3.9153
 5583TIP3   OH238239   4.305   0.828  10.707  0.7831  0.4089  0.2860
 5583TIP3    H138240   4.256   0.858  10.783 -1.3936 -0.9022 -0.5021
 5583TIP3    H238241   4.391   0.870  10.715  0.0233  1.6895  2.4915
 5584TIP3   OH238242   5.500   0.908  11.431 -0.7171  0.1088 -0.7610
 5584TIP3    H138243   5.434   0.849  11.466  0.0709 -1.1429 -1.3507
 5584TIP3    H238244   5.560   0.924  11.504  0.1480 -1.3968 -1.1018
 5585TIP3   OH238245   2.373   3.779  14.133  0.4631 -0.2380  0.4357
 5585TIP3    H138246   2.393   3.872  14.137  1.4481 -0.4475  0.5183
 5585TIP3    H238247   2.339   3.759  14.221 -0.4784  0.1888  0.1858
 5586TIP3   OH238248   5.274   1.784  17.122  0.5987 -0.3426  0.0506
 5586TIP3    H138249   5.261   1.787  17.027  1.5100 -1.8307 -0.1569
 5586TIP3    H238250   5.361   1.745  17.133  0.8465  0.5753  1.4954
 5587TIP3   OH238251   0.492   5.128   5.564  0.4108 -0.0601  0.4179
 5587TIP3    H138252   0.571   5.182   5.563  0.0818  0.4377 -0.4618
 5587TIP3    H238253   0.522   5.040   5.540  0.8307 -0.0826  1.0288
 5588TIP3   OH238254   5.959   4.134  12.364 -0.1995 -0.2128  0.2621
 5588TIP3    H138255   5.865   4.148  12.348  0.2319  0.1089 -2.3659
 5588TIP3    H238256   5.982   4.060  12.309  0.9724 -0.7749  1.4619
 5589TIP3   OH238257   6.458   5.808  14.931  0.6432  0.2963 -0.5025
 5589TIP3    H138258   6.400   5.881  14.952  0.7453  0.1228  0.4454
 5589TIP3    H238259   6.404   5.730  14.942  0.8486  0.1711 -0.3749
 5590TIP3   OH238260   0.232   0.240  12.666  0.1994  0.4837  0.3043
 5590TIP3    H138261   0.144   0.234  12.630  0.0918 -0.4147  0.7042
 5590TIP3    H238262   0.277   0.162  12.634  0.9599  1.1038 -0.1737
 5591TIP3   OH238263   2.733   6.273  13.071  0.0155  0.0138  0.1155
 5591TIP3    H138264   2.654   6.276  13.126 -0.8209  0.1794 -1.0395
 5591TIP3    H238265   2.778   6.193  13.098  0.0952  0.5400  1.6290
 5592TIP3   OH238266   4.830   5.645   5.918  0.5466 -0.1812 -0.1339
 5592TIP3    H138267   4.842   5.583   5.846 -2.0874 -1.4008  0.3655
 5592TIP3    H238268   4.828   5.731   5.876  0.1699 -0.7813 -1.3875
 5593TIP3   OH238269   1.504   4.881  12.426 -0.4176  0.1917  0.0852
 5593TIP3    H138270   1.524   4.942  12.354 -0.0675 -1.3218 -1.1470
 5593TIP3    H238271   1.586   4.874  12.475 -0.3745  0.4763  0.0551
 5594TIP3   OH238272   5.221   0.752  12.713  0.4985 -0.3765  0.3310
 5594TIP3    H138273   5.144   0.696  12.718  1.4348 -1.7031  0.5153
 5594TIP3    H238274   5.260   0.732  12.628  1.4445 -0.8574  0.8573
 5595TIP3   OH238275   1.829   4.425   1.714 -0.3017  0.3577 -0.2834
 5595TIP3    H138276   1.766   4.479   1.668 -0.9097 -0.6921 -0.7177
 5595TIP3    H238277   1.798   4.423   1.805 -0.5302  0.3674 -0.3617
 5596TIP3   OH238278   4.496   2.541   3.864 -0.6653  0.1850  0.6651
 5596TIP3    H138279   4.433   2.533   3.792  0.9064  0.7748 -0.8339
 5596TIP3    H238280   4.547   2.460   3.859 -0.4822  0.2798  1.0570
 5597TIP3   OH238281   3.564   5.074   4.330 -0.1415 -0.2084 -0.3007
 5597TIP3    H138282   3.631   5.019   4.289  0.6183  0.8948 -0.5766
 5597TIP3    H238283   3.608   5.158   4.345 -0.6013 -0.3319  2.1209
 5598TIP3   OH238284   0.047   0.541   3.362  0.5063  0.3139  0.2764
 5598TIP3    H138285   0.082   0.524   3.274 -2.2578 -2.4303 -0.5084
 5598TIP3    H238286  -0.017   0.610   3.349 -0.6026 -0.7485 -0.1697
 5599TIP3   OH238287   1.496   4.516   5.150  0.8589 -0.1771  0.5236
 5599TIP3    H138288   1.401   4.505   5.159  0.8541  0.6911  1.7906
 5599TIP3    H238289   1.533   4.473   5.227  1.4395  0.2459  0.4846
 5600TIP3   OH238290   2.183   4.059  14.668 -0.2241 -0.0144 -0.1031
 5600TIP3    H138291   2.138   4.000  14.607 -0.7958 -0.6485  0.9065
 5600TIP3    H238292   2.130   4.056  14.748  0.6772  0.5600  0.5376
 5601TIP3   OH238293   4.810   3.432   2.958  0.1794  0.0542 -0.0469
 5601TIP3    H138294   4.867   3.493   2.911 -0.6434  0.3162 -0.7177
 5601TIP3    H238295   4.722   3.449   2.924 -0.4637  0.2972  1.6441
 5602TIP3   OH238296   4.092   0.364  11.109 -0.3772  0.3299 -0.6914
 5602TIP3    H138297   4.010   0.318  11.124 -0.2334  0.2619 -0.0946
 5602TIP3    H238298   4.071   0.426  11.039 -0.2032 -1.5771 -2.5372
 5603TIP3   OH238299   2.016   0.676   2.448 -0.4309  0.0984  0.1080
 5603TIP3    H138300   2.030   0.593   2.403  1.7108  0.5928 -0.2819
 5603TIP3    H238301   2.046   0.742   2.384 -0.5651  1.0383  0.9968
 5604TIP3   OH238302   0.354   5.996  14.256 -0.2036  0.0870  0.0445
 5604TIP3    H138303   0.369   5.912  14.211  0.1307 -0.2548  0.7767
 5604TIP3    H238304   0.294   5.974  14.327 -0.0857  0.4612  0.2587
 5605TIP3   OH238305   5.442   3.000  14.547  0.4957  0.8469  0.3214
 5605TIP3    H138306   5.411   3.006  14.457  0.3788  1.4600  0.3974
 5605TIP3    H238307   5.502   2.925  14.547  0.8665  1.1316 -0.3768
 5606TIP3   OH238308   3.141   4.385   4.683  0.7590  0.1033 -0.0024
 5606TIP3    H138309   3.159   4.292   4.665 -0.3907 -0.4188  1.3100
 5606TIP3    H238310   3.051   4.397   4.655  0.7891  0.7338  0.1720
 5607TIP3   OH238311   1.252   4.725  11.389  0.1877  0.1652  0.5329
 5607TIP3    H138312   1.184   4.660  11.372  1.0930 -0.6291 -0.1354
 5607TIP3    H238313   1.330   4.674  11.412  0.7717  1.0264  0.5170
 5608TIP3   OH238314   4.735   6.750  14.430  0.0516 -0.3267 -0.0747
 5608TIP3    H138315   4.809   6.802  14.461  0.6083 -0.7794 -0.6124
 5608TIP3    H238316   4.688   6.809  14.371  0.1752 -0.1466  0.0064
 5609TIP3   OH238317   6.743   2.205   3.642 -0.7359  0.0175 -0.0671
 5609TIP3    H138318   6.802   2.194   3.568 -1.8326  1.6912 -1.2517
 5609TIP3    H238319   6.791   2.260   3.703 -0.0484 -0.8985  0.2470
 5610TIP3   OH238320   6.471   3.777  13.718  0.4274 -0.4304  0.5951
 5610TIP3    H138321   6.440   3.687  13.704  0.2726 -0.3144  0.2039
 5610TIP3    H238322   6.407   3.832  13.674 -0.1799 -0.0493  1.9239
 5611TIP3   OH238323   2.371   3.206   4.714 -0.2253  0.1351 -0.7903
 5611TIP3    H138324   2.443   3.147   4.733  0.5386  0.6440 -1.9731
 5611TIP3    H238325   2.360   3.259   4.793  2.1831  1.5500 -1.3195
 5612TIP3   OH238326   0.463   0.522  10.953 -0.5584 -0.0552 -0.4823
 5612TIP3    H138327   0.501   0.572  10.880  1.2830 -0.7075 -0.0032
 5612TIP3    H238328   0.444   0.436  10.915 -0.6882 -0.0322 -0.4717
 5613TIP3   OH238329   1.026   6.649  13.525 -0.0354  0.3697  0.2590
 5613TIP3    H138330   0.964   6.720  13.540  1.8251  2.0940  0.1713
 5613TIP3    H238331   1.067   6.670  13.442  1.7929  0.1923  1.0647
 5614TIP3   OH238332   4.163   2.782  16.986  0.8678 -0.0018 -0.5897
 5614TIP3    H138333   4.139   2.706  16.933  0.9661 -0.7287  0.3874
 5614TIP3    H238334   4.209   2.840  16.925  4.8245 -2.6596 -0.4824
 5615TIP3   OH238335   3.895   5.229   6.316 -0.5895  0.5999  0.0550
 5615TIP3    H138336   3.943   5.243   6.397 -0.5733 -0.4141  0.2412
 5615TIP3    H238337   3.819   5.177   6.342 -0.5344  0.1892 -0.5885
 5616TIP3   OH238338   1.617   1.618   5.528 -0.2243  0.2353 -0.1403
 5616TIP3    H138339   1.548   1.610   5.463  0.4462 -1.2247 -0.7194
 5616TIP3    H238340   1.685   1.558   5.498  1.0484  1.1852  0.7297
 5617TIP3   OH238341   0.388   0.470  12.571  0.0207 -0.1025 -0.0596
 5617TIP3    H138342   0.368   0.403  12.635  2.5883 -1.8155 -0.8810
 5617TIP3    H238343   0.332   0.544  12.595 -2.4360 -2.2325  1.3059
 5618TIP3   OH238344   4.805   6.032   1.922 -0.2496  0.0423  0.1741
 5618TIP3    H138345   4.759   6.018   2.004 -0.0935  0.8149  0.3979
 5618TIP3    H238346   4.814   5.944   1.884  0.3181 -0.4144  1.3238
 5619TIP3   OH238347   3.629   5.704   3.162  0.0974  0.0239  0.2824
 5619TIP3    H138348   3.723   5.685   3.162  0.1410  0.2392 -0.2264
 5619TIP3    H238349   3.599   5.681   3.075 -0.3612 -0.2170  0.5011
 5620TIP3   OH238350   6.841   5.756  15.904  0.2725 -0.3218  0.3177
 5620TIP3    H138351   6.786   5.770  15.826  0.1628  1.2142  0.6412
 5620TIP3    H238352   6.895   5.834  15.910 -0.0690 -0.1795  2.0601
 5621TIP3   OH238353   5.342   4.335  11.556 -0.2663 -0.1776  0.1628
 5621TIP3    H138354   5.437   4.326  11.552 -0.1806  0.6712  0.1373
 5621TIP3    H238355   5.312   4.313  11.468 -0.0583 -0.0311  0.0533
 5622TIP3   OH238356   1.829   0.113  11.155 -0.5333  0.5337 -0.4148
 5622TIP3    H138357   1.916   0.116  11.114 -1.5646  0.8085 -2.7075
 5622TIP3    H238358   1.813   0.202  11.184 -0.0384  0.4697  0.0701
 5623TIP3   OH238359   3.771   4.285  13.825 -0.3150 -0.0412 -0.0819
 5623TIP3    H138360   3.821   4.208  13.853  0.3839  0.4317  0.0008
 5623TIP3    H238361   3.713   4.304  13.899 -0.4297 -0.4333 -0.0671
 5624TIP3   OH238362   1.201   5.296  12.188 -0.1964  0.3804 -0.5170
 5624TIP3    H138363   1.274   5.251  12.230  0.0620  0.8142 -0.5046
 5624TIP3    H238364   1.123   5.256  12.227  0.0352  0.5799  0.1678
 5625TIP3   OH238365   0.051   6.391  12.289  0.2165 -0.2937  0.7546
 5625TIP3    H138366   0.103   6.465  12.321 -1.1584  0.4324  1.4109
 5625TIP3    H238367  -0.004   6.366  12.363 -0.3096 -1.0907  0.1160
 5626TIP3   OH238368   0.632   5.135  14.688 -0.0468 -0.5423 -0.5493
 5626TIP3    H138369   0.701   5.071  14.707  0.1762 -0.2532 -0.3731
 5626TIP3    H238370   0.558   5.082  14.659  0.5159 -0.8109 -1.5472
 5627TIP3   OH238371   1.902   5.861  12.229 -0.0189 -1.1394  0.4364
 5627TIP3    H138372   1.855   5.843  12.147 -1.3634 -2.1152  1.3660
 5627TIP3    H238373   1.992   5.836  12.211  0.1776  0.6632 -1.3806
 5628TIP3   OH238374   0.976   6.547  13.818 -0.2486 -0.3047 -0.4127
 5628TIP3    H138375   1.062   6.565  13.854 -0.2254  1.2643 -1.1754
 5628TIP3    H238376   0.937   6.633  13.804 -2.1161 -0.9853  0.2974
 5629TIP3   OH238377   6.391   0.792   0.559  0.0805  0.3459 -0.5641
 5629TIP3    H138378   6.326   0.767   0.625 -0.0805 -1.1157 -1.2268
 5629TIP3    H238379   6.363   0.878   0.529  0.7319  1.5384  1.9645
 5630TIP3   OH238380   4.480   4.387  15.627 -0.5127 -0.3583  0.9886
 5630TIP3    H138381   4.451   4.358  15.713 -2.3011 -1.3433  0.1248
 5630TIP3    H238382   4.431   4.468  15.612 -0.7832 -0.5833  0.6244
 5631TIP3   OH238383   2.170   1.523   1.038  0.1957  0.4308  0.0601
 5631TIP3    H138384   2.243   1.519   0.977  0.6885  0.1391  0.6539
 5631TIP3    H238385   2.101   1.469   0.999  0.6187 -0.0033 -0.0882
 5632TIP3   OH238386   0.649   6.812  15.380 -0.0181 -0.1569 -0.2464
 5632TIP3    H138387   0.696   6.892  15.359 -0.4174  0.2229  0.2886
 5632TIP3    H238388   0.665   6.754  15.305 -1.0489  0.9999 -1.4078
 5633TIP3   OH238389   2.882   0.533   3.050 -0.0264  0.1626  0.3749
 5633TIP3    H138390   2.866   0.564   3.139 -4.3188  2.2463 -0.8540
 5633TIP3    H238391   2.815   0.465   3.037 -0.3556  0.8347 -1.6400
 5634TIP3   OH238392   4.045   6.759   4.020 -0.5085  0.1072  0.1607
 5634TIP3    H138393   4.123   6.704   4.029 -0.8815 -0.4595  0.0348
 5634TIP3    H238394   3.973   6.702   4.046 -0.9342  0.4538 -0.2423
 5635TIP3   OH238395   3.116   4.314  15.520  0.2741  0.2644  0.0082
 5635TIP3    H138396   3.072   4.398  15.511  0.6915  0.3629 -1.2662
 5635TIP3    H238397   3.084   4.279  15.603 -2.2322  0.3009 -0.8761
 5636TIP3   OH238398   5.163   4.772  13.434 -0.1062  0.5292  0.0534
 5636TIP3    H138399   5.202   4.847  13.389  0.5850  0.2337  0.1378
 5636TIP3    H238400   5.206   4.771  13.520 -0.8068  0.5993  0.4105
 5637TIP3   OH238401   0.531   5.728  14.098  0.5942 -0.1444 -0.3053
 5637TIP3    H138402   0.550   5.636  14.084 -0.7647 -0.2421 -1.8647
 5637TIP3    H238403   0.594   5.774  14.042 -0.1081 -0.2458 -1.2105
 5638TIP3   OH238404   6.212   2.204  17.129 -0.2272 -0.0935 -0.4999
 5638TIP3    H138405   6.293   2.241  17.163  0.7634 -2.2037 -0.4119
 5638TIP3    H238406   6.150   2.211  17.201  0.2517  0.3932 -0.1299
 5639TIP3   OH238407   0.688   5.673   2.080 -0.3195 -0.5544  0.1517
 5639TIP3    H138408   0.694   5.626   1.997 -1.4409 -1.4870  0.5712
 5639TIP3    H238409   0.761   5.736   2.077  0.7215 -1.7368 -0.7874
 5640TIP3   OH238410   3.401   5.050  12.896  0.3120  0.5011 -0.4027
 5640TIP3    H138411   3.439   4.969  12.863 -0.2366  0.3086 -0.5827
 5640TIP3    H238412   3.451   5.070  12.975 -0.9364 -1.2053  0.8841
 5641TIP3   OH238413   6.772   5.067  15.399  0.1091 -0.4923 -0.0999
 5641TIP3    H138414   6.829   5.134  15.360  1.0878  0.1952  2.3213
 5641TIP3    H238415   6.692   5.114  15.422  0.4861 -0.3018  0.8746
 5642TIP3   OH238416   6.724   5.944  10.789  0.5749  0.0258  0.0743
 5642TIP3    H138417   6.748   6.013  10.851 -1.5520  1.1412 -0.2330
 5642TIP3    H238418   6.807   5.911  10.756  1.7255  0.5611  2.2498
 5643TIP3   OH238419   1.577   3.745   1.636 -0.4712 -0.1085  0.1241
 5643TIP3    H138420   1.653   3.688   1.651  1.1455  2.1306  1.1173
 5643TIP3    H238421   1.555   3.732   1.544  1.1602 -0.8272 -0.2031
 5644TIP3   OH238422   0.770   4.234   3.107 -0.4351 -0.1501 -0.0517
 5644TIP3    H138423   0.833   4.259   3.040 -0.3016  0.4883  0.3053
 5644TIP3    H238424   0.752   4.315   3.155 -1.1349 -0.4342  0.1748
 5645TIP3   OH238425   3.379   6.349   0.940  0.0073  0.5724  0.2527
 5645TIP3    H138426   3.290   6.341   0.907  0.3718  0.3314 -0.7176
 5645TIP3    H238427   3.425   6.402   0.874  0.3702  1.4498  1.1810
 5646TIP3   OH238428   4.752   1.245   2.199  0.0340  0.3503 -0.7131
 5646TIP3    H138429   4.733   1.172   2.140 -2.2058  0.9634 -0.8180
 5646TIP3    H238430   4.697   1.316   2.167 -0.3035  1.0754  1.3911
 5647TIP3   OH238431   6.613   2.107   1.240 -1.0093  0.2914  0.1875
 5647TIP3    H138432   6.564   2.031   1.208 -2.3630  0.5075  1.6593
 5647TIP3    H238433   6.688   2.113   1.180 -1.7334 -1.2085 -0.9539
 5648TIP3   OH238434   5.940   5.596  12.950  0.0895 -0.1445  0.0849
 5648TIP3    H138435   5.912   5.670  13.003 -0.0710 -0.8200  0.9668
 5648TIP3    H238436   5.871   5.586  12.884  0.0676  0.4266  0.0146
 5649TIP3   OH238437   5.449   5.007   5.966 -0.2785 -0.0730 -0.0712
 5649TIP3    H138438   5.381   4.958   6.012 -0.7596 -0.1206 -0.8178
 5649TIP3    H238439   5.407   5.089   5.940  0.8736  1.3659  2.2822
 5650TIP3   OH238440   5.636   2.379   1.027  0.0253  0.5858  0.7494
 5650TIP3    H138441   5.666   2.439   0.959 -1.0010 -0.2315 -0.4620
 5650TIP3    H238442   5.716   2.347   1.068  0.6207  1.8333  0.5822
 5651TIP3   OH238443   4.021   6.098  14.119 -0.4337 -0.2545  0.0763
 5651TIP3    H138444   4.095   6.132  14.170 -0.7382 -1.3275  1.2813
 5651TIP3    H238445   3.956   6.074  14.185 -2.8752  2.7839 -1.0050
 5652TIP3   OH238446   4.528   3.588  15.367 -0.0419  0.5158 -0.0578
 5652TIP3    H138447   4.571   3.511  15.404  0.6368  0.7608 -0.3259
 5652TIP3    H238448   4.457   3.552  15.313  1.0937 -0.0043 -1.2651
 5653TIP3   OH238449   4.984   1.447  10.561  0.1871  0.0441  0.4649
 5653TIP3    H138450   4.908   1.402  10.524  0.0698 -0.3248  1.1463
 5653TIP3    H238451   4.953   1.536  10.578  0.3181  0.2974 -0.5522
 5654TIP3   OH238452   5.548   4.842   4.518  0.0267  0.1841 -0.0432
 5654TIP3    H138453   5.467   4.795   4.539 -0.3784  0.1109 -1.6192
 5654TIP3    H238454   5.606   4.822   4.591 -0.9065 -0.9015  0.4517
 5655TIP3   OH238455   4.973   1.427  12.495  0.3107 -0.5239  0.1665
 5655TIP3    H138456   4.969   1.331  12.499 -0.2557 -0.4579  1.5198
 5655TIP3    H238457   5.059   1.449  12.530  1.4668 -0.6104 -2.4052
 5656TIP3   OH238458   5.294   6.457   4.897  0.4057 -0.9379 -0.7556
 5656TIP3    H138459   5.220   6.400   4.919  1.3846 -3.1156 -2.5679
 5656TIP3    H238460   5.366   6.426   4.952  0.3464  0.2302  0.0020
 5657TIP3   OH238461   1.895   5.409   2.775  0.6014  0.0773  0.5254
 5657TIP3    H138462   1.822   5.442   2.723  0.6626  0.2004  0.5184
 5657TIP3    H238463   1.879   5.441   2.863  1.6196  1.6810  0.1601
 5658TIP3   OH238464   6.749   3.906   4.337 -0.3446  0.0657  0.1561
 5658TIP3    H138465   6.763   3.834   4.275 -2.7588  0.7016 -1.2870
 5658TIP3    H238466   6.655   3.903   4.355 -0.4874  2.7253  0.1837
 5659TIP3   OH238467   0.722   0.925  15.409 -0.3695 -1.3191  0.0600
 5659TIP3    H138468   0.747   0.962  15.494 -3.5303  0.3374  0.4533
 5659TIP3    H238469   0.712   0.831  15.426 -0.8525 -1.0386  1.5417
 5660TIP3   OH238470   3.935   3.441   5.652 -0.3341  0.3258 -0.0428
 5660TIP3    H138471   4.010   3.381   5.650  1.2665  2.2055 -0.1766
 5660TIP3    H238472   3.916   3.453   5.745 -1.1845 -0.9513 -0.0326
 5661TIP3   OH238473   0.420   5.178  13.500  0.6929 -0.3216  0.0131
 5661TIP3    H138474   0.478   5.183  13.575  1.0148  1.0064 -0.3004
 5661TIP3    H238475   0.350   5.241  13.520 -0.2231 -1.3047  0.0195
 5662TIP3   OH238476   6.056   4.861   5.290 -0.4723  0.0774 -0.2041
 5662TIP3    H138477   6.139   4.870   5.337 -1.3020  1.5981  1.0540
 5662TIP3    H238478   6.081   4.853   5.198  1.1930 -2.6626  0.3623
 5663TIP3   OH238479   0.521   4.037  15.537  0.2167  0.5121  0.0658
 5663TIP3    H138480   0.443   4.091  15.522 -0.1339 -0.0647 -0.2164
 5663TIP3    H238481   0.490   3.947  15.526  0.9483  0.2825 -0.1278
 5664TIP3   OH238482   5.018   0.014  13.164 -0.2234 -0.1762 -0.3954
 5664TIP3    H138483   5.074  -0.020  13.234 -1.5182 -0.7106  0.4124
 5664TIP3    H238484   4.961  -0.059  13.141 -1.3612  0.6783 -0.3917
 5665TIP3   OH238485   3.398   3.664  13.755 -0.0126 -0.4486  0.6008
 5665TIP3    H138486   3.447   3.584  13.742  0.1284 -0.2465 -0.1851
 5665TIP3    H238487   3.463   3.730  13.778 -0.0403 -0.4074  0.5631
 5666TIP3   OH238488   2.404   3.976   2.336 -0.1725  0.2949 -0.4322
 5666TIP3    H138489   2.424   3.884   2.351  0.5028  0.4639 -0.2344
 5666TIP3    H238490   2.424   4.019   2.419 -1.8654  0.4229 -0.0600
 5667TIP3   OH238491   1.773   3.557   1.612 -1.0583  0.0799  0.1245
 5667TIP3    H138492   1.721   3.480   1.637 -2.8849  1.4478  0.7863
 5667TIP3    H238493   1.805   3.536   1.525 -1.9587 -1.2213  0.0607
 5668TIP3   OH238494   2.974   3.158   3.064 -0.1004 -0.3357  0.5236
 5668TIP3    H138495   3.055   3.114   3.039 -1.0581 -0.5627 -2.5784
 5668TIP3    H238496   2.994   3.251   3.056  0.7699 -0.2070  3.2097
 5669TIP3   OH238497   6.403   5.613   5.449  0.4846  0.0875  0.1843
 5669TIP3    H138498   6.371   5.641   5.363  1.5173  2.7208  0.5890
 5669TIP3    H238499   6.344   5.656   5.511  2.1299  1.5069  0.8322
 5670TIP3   OH238500   0.356   0.816   1.000  1.3510 -0.4937 -0.2562
 5670TIP3    H138501   0.307   0.825   0.918 -0.2488 -2.9205  0.3306
 5670TIP3    H238502   0.424   0.752   0.981  2.4922  0.6868 -0.2683
 5671TIP3   OH238503   4.344   1.474   4.612 -0.2255 -0.1128  0.1009
 5671TIP3    H138504   4.297   1.394   4.638  0.6831 -0.8508 -0.4735
 5671TIP3    H238505   4.275   1.535   4.587 -0.8934 -1.1854 -0.7538
 5672TIP3   OH238506   0.818   6.352  11.240 -0.8684 -0.0817 -0.2449
 5672TIP3    H138507   0.778   6.367  11.326  1.4193  0.0509  0.8948
 5672TIP3    H238508   0.902   6.310  11.260 -0.5030 -0.5448 -2.4722
 5673TIP3   OH238509   1.628   3.919   4.197 -0.6692 -0.1238  0.4620
 5673TIP3    H138510   1.571   3.853   4.238 -0.2703 -0.1657  0.9606
 5673TIP3    H238511   1.654   3.976   4.269  2.1516 -1.6945  0.8495
 5674TIP3   OH238512   5.777   5.946  16.946 -0.2802 -0.2194 -0.0399
 5674TIP3    H138513   5.832   5.978  17.018 -1.9055  0.6943  0.8559
 5674TIP3    H238514   5.688   5.952  16.980 -0.9624 -1.5606 -1.4859
 5675TIP3   OH238515   3.411   3.038   4.851 -0.1530 -0.3807 -0.0913
 5675TIP3    H138516   3.337   3.050   4.791 -0.3230 -1.5308 -0.1472
 5675TIP3    H238517   3.384   3.083   4.931 -0.1065  0.7990 -0.7261
 5676TIP3   OH238518   2.714   0.074   6.628  0.3251  0.1402 -0.8298
 5676TIP3    H138519   2.735  -0.019   6.616  0.2640  0.2119 -1.5483
 5676TIP3    H238520   2.797   0.114   6.654 -0.1228 -0.4930  1.9750
 5677TIP3   OH238521   2.313   6.664   2.149  0.9285  0.0749  0.4933
 5677TIP3    H138522   2.293   6.757   2.153  1.5292  0.2584 -0.3187
 5677TIP3    H238523   2.406   6.661   2.125  1.0205 -0.7297  0.9236
 5678TIP3   OH238524   4.008   6.055   4.787 -0.8062  0.4099  0.2851
 5678TIP3    H138525   4.033   6.000   4.713  1.0007  2.0486 -0.4198
 5678TIP3    H238526   3.913   6.060   4.782 -1.1046 -2.9487  0.6866
 5679TIP3   OH238527   1.948   3.001   2.125  0.4273 -0.9249 -0.1359
 5679TIP3    H138528   2.031   2.967   2.161  0.8310  0.1707  0.0022
 5679TIP3    H238529   1.974   3.078   2.074 -0.4424 -0.9645 -0.6499
 5680TIP3   OH238530   3.458   2.310   4.520 -0.0663 -0.4987  0.0916
 5680TIP3    H138531   3.414   2.379   4.469  0.9756  2.2142  2.5417
 5680TIP3    H238532   3.467   2.237   4.459 -0.1156  1.9617 -3.1349
 5681TIP3   OH238533   6.774   1.893   2.054 -0.5848  0.0534  0.1674
 5681TIP3    H138534   6.696   1.915   2.104  0.7200  1.5155  1.6855
 5681TIP3    H238535   6.772   1.951   1.979  0.0595  1.6168  1.3068
 5682TIP3   OH238536   3.644   2.037   2.554  0.1465  0.3948 -0.4327
 5682TIP3    H138537   3.615   2.018   2.465  0.8263  2.4398 -1.1643
 5682TIP3    H238538   3.606   2.122   2.574  1.8338  1.0185  0.3272
 5683TIP3   OH238539   1.610   6.025  11.865  0.7950  0.0386 -0.6339
 5683TIP3    H138540   1.640   5.956  11.925  1.1211  0.8428  0.1531
 5683TIP3    H238541   1.587   6.098  11.923  2.6858  1.4436 -1.5397
 5684TIP3   OH238542   2.439   1.426   3.294  0.5258  0.3037  0.5938
 5684TIP3    H138543   2.425   1.498   3.232 -0.6260 -0.3372  0.0734
 5684TIP3    H238544   2.417   1.463   3.379  0.5051  0.7364  0.4015
 5685TIP3   OH238545   0.988   1.246   4.977 -0.4580  0.0604 -0.3126
 5685TIP3    H138546   0.970   1.172   5.035 -0.5039  0.0952 -0.2828
 5685TIP3    H238547   0.907   1.296   4.975 -1.2425 -1.1625 -2.2111
 5686TIP3   OH238548   5.374   0.467   2.541  0.0304 -0.2686  0.1843
 5686TIP3    H138549   5.287   0.507   2.543  0.3257  0.4644 -0.7678
 5686TIP3    H238550   5.399   0.458   2.633 -1.2997 -1.0846  0.5018
 5687TIP3   OH238551   3.803   4.438   4.602  0.2178 -0.0273  0.0153
 5687TIP3    H138552   3.886   4.482   4.586 -0.4379  2.0736  1.9351
 5687TIP3    H238553   3.807   4.412   4.694 -1.3466  0.3490  0.2085
 5688TIP3   OH238554   1.764   6.724   1.118 -0.3643 -0.1231  0.9689
 5688TIP3    H138555   1.715   6.749   1.040 -1.4855 -0.1352  1.6531
 5688TIP3    H238556   1.745   6.793   1.182  2.2370  1.0570  0.6083
 5689TIP3   OH238557   1.800   2.531   5.965 -0.1720  0.1830  0.3069
 5689TIP3    H138558   1.868   2.579   6.013 -1.5867  0.8766  1.6787
 5689TIP3    H238559   1.819   2.439   5.983  1.8922  0.1795 -1.4353
 5690TIP3   OH238560   3.437   2.651   1.902  0.2652  0.0470  0.0483
 5690TIP3    H138561   3.515   2.652   1.846  0.0449 -0.4073 -0.2687
 5690TIP3    H238562   3.401   2.563   1.892  0.6360 -0.2962  1.4910
 5691TIP3   OH238563   0.034   5.833   4.012 -0.1943  0.4063  0.1755
 5691TIP3    H138564   0.087   5.864   3.939 -0.9231  0.7918 -0.1987
 5691TIP3    H238565  -0.020   5.908   4.037 -2.5172 -0.6832 -1.2231
 5692TIP3   OH238566   4.741   6.556   5.484 -0.5254 -0.2987  0.7540
 5692TIP3    H138567   4.713   6.645   5.508  1.2526  0.6410 -0.4108
 5692TIP3    H238568   4.661   6.504   5.488 -1.5207  1.2200  2.0194
 5693TIP3   OH238569   0.056   5.762   2.404  0.2556  0.1557  0.3628
 5693TIP3    H138570   0.064   5.668   2.415 -1.7867  0.0705  1.6663
 5693TIP3    H238571  -0.031   5.775   2.366  1.0165  1.4783 -1.0514
 5694TIP3   OH238572   3.645   5.146  13.585  0.1593 -0.1672  0.0399
 5694TIP3    H138573   3.641   5.050  13.592  0.5140 -0.1901 -0.0417
 5694TIP3    H238574   3.556   5.175  13.606 -0.2923 -0.5898 -1.1851
 5695TIP3   OH238575   0.692   2.085  14.574 -0.0084  0.0612  0.2660
 5695TIP3    H138576   0.777   2.050  14.601 -0.5090 -0.3126  1.4010
 5695TIP3    H238577   0.700   2.095  14.479  1.0693 -0.6091  0.2650
 5696TIP3   OH238578   2.999   6.282  11.040 -0.6200  1.0373 -0.3599
 5696TIP3    H138579   2.951   6.270  11.121  1.1246  1.2403  0.7522
 5696TIP3    H238580   3.064   6.349  11.060 -1.4462  2.6226 -2.5282
 5697TIP3   OH238581   1.785   3.030  16.228  0.0917 -0.1275 -0.1551
 5697TIP3    H138582   1.839   2.965  16.183  0.0132  0.8025 -1.6476
 5697TIP3    H238583   1.798   3.110  16.178 -0.0597  0.9478  1.4575
 5698TIP3   OH238584   6.740   6.552   2.389 -0.4503 -0.1186  0.3651
 5698TIP3    H138585   6.663   6.495   2.395 -0.1675 -0.8176 -1.7760
 5698TIP3    H238586   6.814   6.492   2.389 -0.0169  0.4127  0.3166
 5699TIP3   OH238587   2.890   6.749  12.745  0.0660  0.3314 -0.0324
 5699TIP3    H138588   2.852   6.818  12.692  0.0837  1.1417  0.9730
 5699TIP3    H238589   2.955   6.794  12.799  0.4527 -0.5611  0.2640
 5700TIP3   OH238590   5.172   3.195   5.874 -0.1398  0.4820 -0.3356
 5700TIP3    H138591   5.137   3.106   5.872  1.3218 -0.1075 -0.2182
 5700TIP3    H238592   5.167   3.225   5.783  1.0503 -0.4043 -0.7098
 5701TIP3   OH238593   1.858   1.215  11.679  0.8277  0.5552  0.1669
 5701TIP3    H138594   1.928   1.255  11.731  0.7002  0.8611  0.1025
 5701TIP3    H238595   1.872   1.248  11.591 -0.0363  1.4663  0.3575
 5702TIP3   OH238596   2.840   1.530  11.121 -0.5435 -0.3236  0.6281
 5702TIP3    H138597   2.914   1.575  11.162 -0.3300 -0.6214  0.5804
 5702TIP3    H238598   2.873   1.504  11.035 -0.6525 -0.5887  0.6644
 5703TIP3   OH238599   4.686   3.843  15.838  0.2326 -0.3209 -0.3150
 5703TIP3    H138600   4.710   3.861  15.747 -3.0790 -0.0720 -1.2695
 5703TIP3    H238601   4.669   3.749  15.840  0.5605 -0.3768  0.1643
 5704TIP3   OH238602   0.340   2.595   3.542 -0.0609  0.5102 -0.0364
 5704TIP3    H138603   0.280   2.550   3.602  0.2270  0.5781  0.3087
 5704TIP3    H238604   0.347   2.536   3.467  1.5588 -0.8368  1.0881
 5705TIP3   OH238605   4.712   5.767  14.465 -0.3670  0.2757  0.2507
 5705TIP3    H138606   4.796   5.750  14.422 -1.4004 -0.1361 -1.7124
 5705TIP3    H238607   4.705   5.862  14.468 -0.6479  0.3251 -1.3238
 5706TIP3   OH238608   3.437   3.911   2.370 -0.7066  0.2071 -0.1530
 5706TIP3    H138609   3.362   3.854   2.352 -2.1499  2.3169 -1.2740
 5706TIP3    H238610   3.398   3.992   2.404  1.1530  0.9887  0.2333
 5707TIP3   OH238611   4.096   2.827  10.824  0.6333 -1.0432 -0.7795
 5707TIP3    H138612   4.094   2.906  10.771  0.2003 -0.8994 -0.5502
 5707TIP3    H238613   4.160   2.770  10.781  0.4543 -0.8334 -1.3197
 5708TIP3   OH238614   3.989   5.292  11.074 -0.2665  0.1558 -0.1646
 5708TIP3    H138615   3.984   5.387  11.064 -0.7419  0.1300 -0.2170
 5708TIP3    H238616   3.994   5.259  10.984 -1.9200  0.0534 -0.2576
 5709TIP3   OH238617   0.470   0.040   4.983 -0.0813 -0.2747  0.3568
 5709TIP3    H138618   0.418   0.033   4.903 -2.7499  1.0947  1.8530
 5709TIP3    H238619   0.556   0.006   4.958 -1.2556 -1.4235 -2.6266
 5710TIP3   OH238620   2.911   4.685   5.746  0.3063 -0.1858 -0.1884
 5710TIP3    H138621   2.816   4.693   5.754  0.2696 -0.0080 -0.7397
 5710TIP3    H238622   2.926   4.590   5.741  0.2156 -0.2421  0.4904
 5711TIP3   OH238623   4.027   6.639   5.173 -0.0631  0.2386  0.0918
 5711TIP3    H138624   4.056   6.639   5.082 -2.0849  0.4330 -0.6008
 5711TIP3    H238625   4.025   6.546   5.198  1.4154  0.2444  0.2666
 5712TIP3   OH238626   5.491   2.531  15.863  0.1238 -0.3219  0.4421
 5712TIP3    H138627   5.500   2.560  15.773  0.8577  0.3334  0.7161
 5712TIP3    H238628   5.421   2.465  15.860 -1.8980  1.7120 -0.1681
 5713TIP3   OH238629   6.083   0.289  14.296  0.1717  0.3473  0.1831
 5713TIP3    H138630   6.142   0.217  14.272  1.3049  1.0731  0.7314
 5713TIP3    H238631   6.085   0.290  14.392 -2.2626 -0.8398  0.3148
 5714TIP3   OH238632   1.974   6.153  12.069 -0.5055  0.0709 -0.2845
 5714TIP3    H138633   1.887   6.127  12.100 -0.1940 -0.0441  0.5418
 5714TIP3    H238634   2.019   6.183  12.148 -0.3538  1.7602 -0.9799
 5715TIP3   OH238635   2.890   6.443  12.371 -0.2467 -0.0269 -0.6860
 5715TIP3    H138636   2.919   6.533  12.355  2.0042 -0.4699  0.4903
 5715TIP3    H238637   2.873   6.439  12.465 -2.1198 -0.4044 -1.0010
 5716TIP3   OH238638   2.858   5.811   4.745  0.7362  0.8235 -0.2069
 5716TIP3    H138639   2.908   5.884   4.781  2.0059  0.4953 -1.1935
 5716TIP3    H238640   2.796   5.787   4.814  2.4423  0.7862  1.3869
 5717TIP3   OH238641   5.527   2.461  11.495  0.1265  0.1527  0.4170
 5717TIP3    H138642   5.550   2.420  11.579 -0.7441  2.7330  2.0368
 5717TIP3    H238643   5.474   2.537  11.520 -1.7676 -0.0271 -2.6143
 5718TIP3   OH238644   2.320   3.721   2.839 -0.3308  0.1498  0.0714
 5718TIP3    H138645   2.379   3.685   2.773 -0.2468  0.0578  0.1964
 5718TIP3    H238646   2.355   3.689   2.923 -0.5102  0.1599  0.1512
 5719TIP3   OH238647   3.324   6.707  10.453  0.4123  0.0503 -0.6476
 5719TIP3    H138648   3.309   6.789  10.501 -0.3317  0.0954 -0.9447
 5719TIP3    H238649   3.417   6.711  10.428  1.3301 -0.7613  2.2390
 5720TIP3   OH238650   5.392   1.060  12.526 -0.6816  0.6013  0.2838
 5720TIP3    H138651   5.457   1.016  12.580 -0.5781 -0.4854 -0.6881
 5720TIP3    H238652   5.405   1.153  12.543  1.0578  0.3995  0.1966
 5721TIP3   OH238653   1.663   1.609   1.805 -0.5493  0.6689  0.0833
 5721TIP3    H138654   1.613   1.568   1.734 -1.2082  1.9479 -0.2271
 5721TIP3    H238655   1.603   1.609   1.880  0.4058 -1.3603  0.9113
 5722TIP3   OH238656   6.318   2.256   2.020 -0.2040  0.7559 -0.2921
 5722TIP3    H138657   6.409   2.245   2.049 -0.6366 -0.7148  0.6091
 5722TIP3    H238658   6.301   2.349   2.030  0.4360  0.6927  1.9913
 5723TIP3   OH238659   2.049   0.900  11.932 -0.4080  0.4548 -0.3639
 5723TIP3    H138660   1.965   0.941  11.952 -1.1053 -1.1116  0.0953
 5723TIP3    H238661   2.081   0.869  12.016  0.7887  1.2842 -0.4955
 5724TIP3   OH238662   0.316   5.257   4.506  0.5250  0.3276  0.2192
 5724TIP3    H138663   0.407   5.239   4.483  0.6625 -0.7909  1.4931
 5724TIP3    H238664   0.296   5.193   4.574 -1.1283  0.7580  0.1737
 5725TIP3   OH238665   0.733   1.800   5.253 -0.1268 -0.5679 -0.8691
 5725TIP3    H138666   0.657   1.756   5.214 -0.4034 -0.0241 -0.9634
 5725TIP3    H238667   0.809   1.758   5.214 -0.3652 -1.4919 -0.3749
 5726TIP3   OH238668   3.772   0.589   5.504  0.3235 -0.7245 -0.0555
 5726TIP3    H138669   3.772   0.642   5.424  1.1147 -1.5588 -0.6354
 5726TIP3    H238670   3.690   0.612   5.548  1.5928  2.5585  0.8416
 5727TIP3   OH238671   4.080   6.810   1.984  0.1829  1.2258  0.1606
 5727TIP3    H138672   4.025   6.777   2.056 -1.1702  0.4818 -1.1600
 5727TIP3    H238673   4.125   6.886   2.021 -1.4332  1.6127  1.4297
 5728TIP3   OH238674   0.629   1.183   1.607 -0.3059 -0.4028 -0.1951
 5728TIP3    H138675   0.570   1.137   1.547  1.0104 -1.3052 -0.8349
 5728TIP3    H238676   0.716   1.172   1.568  0.5917 -1.0388  1.8612
 5729TIP3   OH238677   4.395   2.511  16.890 -0.2770 -0.5342  0.1433
 5729TIP3    H138678   4.481   2.471  16.902  0.3369  1.0789  1.5884
 5729TIP3    H238679   4.414   2.599  16.858 -1.5406 -0.9819 -2.0385
 5730TIP3   OH238680   6.372   0.217  14.235  0.6791 -0.2260 -0.3912
 5730TIP3    H138681   6.446   0.221  14.295 -0.7347 -0.2225  1.4209
 5730TIP3    H238682   6.370   0.303  14.193 -0.0866  0.8968  1.8285
 5731TIP3   OH238683   4.735   2.334  10.615 -0.0685  0.3645 -0.2317
 5731TIP3    H138684   4.641   2.326  10.598 -0.1447  1.2266 -0.2609
 5731TIP3    H238685   4.741   2.343  10.710 -0.0345  0.5555 -0.2522
 5732TIP3   OH238686   5.654   2.750  14.115  0.4007 -0.0177 -0.0974
 5732TIP3    H138687   5.745   2.720  14.117 -0.2601 -2.1507  0.6235
 5732TIP3    H238688   5.607   2.688  14.171 -2.3526 -1.9894 -4.0906
 5733TIP3   OH238689   5.784   1.094  11.425 -0.4944  0.3611 -0.6450
 5733TIP3    H138690   5.847   1.164  11.405 -1.1758  1.0073 -0.5861
 5733TIP3    H238691   5.702   1.141  11.443 -0.7616 -0.4136  0.1935
 5734TIP3   OH238692   0.989   1.191  12.407  0.0869  0.3849 -0.0254
 5734TIP3    H138693   0.954   1.154  12.488 -0.8452 -1.1183 -1.0621
 5734TIP3    H238694   1.082   1.171  12.409 -0.2378 -1.3136 -0.1379
 5735TIP3   OH238695   4.920   2.843   4.733  0.3243 -0.3539 -0.4745
 5735TIP3    H138696   4.989   2.859   4.669  1.5618 -1.0360  0.6511
 5735TIP3    H238697   4.954   2.880   4.815 -1.5858  1.2872 -0.3479
 5736TIP3   OH238698   2.920   2.300  15.314 -0.4926 -0.5715 -0.3095
 5736TIP3    H138699   2.853   2.281  15.248  0.1967 -0.9551 -0.9030
 5736TIP3    H238700   2.931   2.395  15.311  0.5307 -0.7148 -1.7300
 5737TIP3   OH238701   3.884   1.766  15.808 -0.0657 -0.3184 -0.3247
 5737TIP3    H138702   3.808   1.810  15.769  1.6477  4.3031  0.9233
 5737TIP3    H238703   3.849   1.723  15.886 -1.7054  0.0843 -0.7976
 5738TIP3   OH238704   2.822   3.530  15.148  0.1432 -0.4563  0.4270
 5738TIP3    H138705   2.899   3.583  15.127 -0.6336  1.0722  1.2168
 5738TIP3    H238706   2.825   3.520  15.243 -0.1235 -1.2047  0.3611
 5739TIP3   OH238707   5.380   5.657  16.383  0.1725 -0.1109 -0.2503
 5739TIP3    H138708   5.345   5.742  16.357 -0.6088 -0.4583 -0.3726
 5739TIP3    H238709   5.308   5.595  16.366  0.3368 -0.6378  0.8446
 5740TIP3   OH238710   4.439   6.092  12.836 -0.3501  0.3901  0.4003
 5740TIP3    H138711   4.524   6.134  12.847 -1.0493  1.5724  1.5619
 5740TIP3    H238712   4.375   6.161  12.855 -1.6135 -0.0967 -1.7446
 5741TIP3   OH238713   0.815   2.694   4.751 -0.4000 -0.2775  0.2734
 5741TIP3    H138714   0.838   2.784   4.775 -0.1514  0.1235 -1.3858
 5741TIP3    H238715   0.849   2.641   4.823  1.9129  0.6933 -0.0191
 5742TIP3   OH238716   5.899   3.812   3.975 -0.2014  0.1620 -0.2763
 5742TIP3    H138717   5.981   3.856   4.001 -0.4355  0.9035 -0.7667
 5742TIP3    H238718   5.833   3.849   4.034 -0.1557 -0.6066  0.2756
 5743TIP3   OH238719   1.412   0.072  16.468 -0.7871 -0.8015  0.3558
 5743TIP3    H138720   1.380  -0.016  16.488 -1.1094 -0.4715  1.3441
 5743TIP3    H238721   1.427   0.113  16.553 -1.3041  0.3368 -0.0743
 5744TIP3   OH238722   2.417   4.298  11.807 -0.3662 -0.4287  0.2835
 5744TIP3    H138723   2.498   4.316  11.758 -0.4414  0.0061  0.3135
 5744TIP3    H238724   2.364   4.246  11.747 -0.3395 -0.1414  0.0087
 5745TIP3   OH238725   3.030   6.836  16.802  0.5974 -0.2217  0.3595
 5745TIP3    H138726   2.954   6.779  16.799 -0.7514  1.4964 -1.1490
 5745TIP3    H238727   2.999   6.915  16.846  1.3009  0.7165 -0.7590
 5746TIP3   OH238728   3.124   5.996  14.048  0.2657 -0.3906 -0.4150
 5746TIP3    H138729   3.114   6.024  13.957 -1.4552  3.3568  0.7033
 5746TIP3    H238730   3.138   6.078  14.096  3.3806 -2.3961  2.5287
 5747TIP3   OH238731   2.407   3.066  11.199  0.0117 -0.2807 -0.7284
 5747TIP3    H138732   2.399   3.157  11.227  1.9619 -0.3509  0.1880
 5747TIP3    H238733   2.479   3.066  11.136 -0.9158 -0.9808 -1.8373
 5748TIP3   OH238734   6.245   1.208  12.774 -0.5432 -0.5821  0.0079
 5748TIP3    H138735   6.338   1.190  12.787 -0.8112 -1.3245  1.0409
 5748TIP3    H238736   6.243   1.290  12.725  0.6541 -0.4305  0.1779
 5749TIP3   OH238737   6.767   6.418   6.393  0.5004  0.6664 -0.1856
 5749TIP3    H138738   6.799   6.419   6.484 -0.7390  1.1573  0.2618
 5749TIP3    H238739   6.705   6.490   6.389 -1.9336 -1.3366 -0.4967
 5750TIP3   OH238740   6.006   5.192   3.101  0.1788 -0.3923  0.3713
 5750TIP3    H138741   6.018   5.234   3.187  0.5159  0.2155  0.0397
 5750TIP3    H238742   6.087   5.145   3.086 -1.0720 -3.2513  1.8135
 5751TIP3   OH238743   1.007   3.790   0.042  0.4255  0.0371 -0.5988
 5751TIP3    H138744   0.928   3.823  -0.001 -0.4049 -1.3943 -0.2455
 5751TIP3    H238745   1.019   3.848   0.117 -0.4410  0.1448 -0.5251
 5752TIP3   OH238746   3.657   0.040   2.602  0.1716  0.3843  0.2618
 5752TIP3    H138747   3.681  -0.053   2.608 -1.5953 -0.0390  1.7583
 5752TIP3    H238748   3.594   0.044   2.530 -0.4522  0.2277  0.7866
 5753TIP3   OH238749   4.325   0.143   0.009 -0.2377  0.4551  0.0224
 5753TIP3    H138750   4.399   0.091  -0.021 -0.9174  0.0242 -0.9325
 5753TIP3    H238751   4.251   0.082   0.011 -1.1420  1.4405 -1.5282
 5754TIP3   OH238752   5.211   4.056  13.664  0.0202  0.3763  0.1841
 5754TIP3    H138753   5.250   4.142  13.685  0.9890  0.3456 -1.3277
 5754TIP3    H238754   5.117   4.072  13.662  0.2284  1.7125 -1.1474
 5755TIP3   OH238755   2.075   1.652   0.107  0.4324  0.0582  0.3344
 5755TIP3    H138756   2.053   1.732   0.059 -0.5292  0.3750  1.2432
 5755TIP3    H238757   2.077   1.680   0.199  1.2753 -0.7270  0.5705
 5756TIP3   OH238758   5.453   3.848  11.146 -0.4035 -0.5636 -0.3741
 5756TIP3    H138759   5.426   3.890  11.228  1.1422  1.3847 -0.7915
 5756TIP3    H238760   5.537   3.806  11.167  0.5245  0.8246 -1.1526
 5757TIP3   OH238761   0.904   0.843   3.303 -0.5210  0.1850 -0.2626
 5757TIP3    H138762   0.833   0.902   3.276  0.7039  1.0821 -1.7041
 5757TIP3    H238763   0.872   0.801   3.382 -3.4161 -0.8427 -1.8259
 5758TIP3   OH238764   5.401   5.084  16.719  0.2728  0.2316  0.2451
 5758TIP3    H138765   5.495   5.068  16.720  0.3070  0.0097 -1.6682
 5758TIP3    H238766   5.391   5.174  16.751  1.1791  0.4134  0.0347
 5759TIP3   OH238767   4.610   5.193  11.419  0.8642 -0.2592  0.4044
 5759TIP3    H138768   4.701   5.216  11.397  0.6540  0.2603  0.0455
 5759TIP3    H238769   4.581   5.140  11.345  1.0856 -1.0007  0.8423
 5760TIP3   OH238770   1.045   0.333  11.402  0.0822 -0.5162 -0.0147
 5760TIP3    H138771   1.117   0.301  11.349  1.5135 -0.9101  2.0444
 5760TIP3    H238772   1.068   0.423  11.423 -1.4274  0.2904 -1.5750
 5761TIP3   OH238773   2.442   6.769  13.663  0.1799 -0.9761 -0.1031
 5761TIP3    H138774   2.529   6.777  13.703  0.2716 -1.3490 -0.2170
 5761TIP3    H238775   2.438   6.840  13.600 -0.4056  0.3333  1.3422
 5762TIP3   OH238776   1.831   3.650   4.453  0.0321 -0.4982 -0.1860
 5762TIP3    H138777   1.892   3.722   4.468 -0.5740 -0.0274  0.0312
 5762TIP3    H238778   1.849   3.588   4.524  2.2632 -1.7651 -1.7301
 5763TIP3   OH238779   3.285   2.256  14.384 -0.3314  0.4753 -0.6154
 5763TIP3    H138780   3.299   2.344  14.348  0.9603 -0.3879 -2.3904
 5763TIP3    H238781   3.373   2.225  14.406 -0.8797  0.0712  1.2345
 5764TIP3   OH238782   6.401   5.200   4.742  0.9235 -0.4294 -0.2741
 5764TIP3    H138783   6.418   5.204   4.836  0.1027  3.8685 -0.1223
 5764TIP3    H238784   6.312   5.166   4.735  0.8675 -0.4598  0.5270
 5765TIP3   OH238785   4.879   5.027  14.206  0.1085 -0.6095 -0.1003
 5765TIP3    H138786   4.957   4.975  14.227 -0.6932 -1.9875 -0.3574
 5765TIP3    H238787   4.894   5.056  14.116  0.6343 -0.2631  0.0949
 5766TIP3   OH238788   5.438   1.318   1.355 -0.2017 -0.3978 -0.3743
 5766TIP3    H138789   5.460   1.264   1.431 -0.9247  0.7685  0.7054
 5766TIP3    H238790   5.514   1.311   1.298  0.5610 -0.9226  0.6761
 5767TIP3   OH238791   1.835   4.709  14.787  0.1757  0.4333  0.2713
 5767TIP3    H138792   1.779   4.690  14.862  0.8386 -1.5594  0.3114
 5767TIP3    H238793   1.866   4.623  14.758 -0.1831  1.1142 -2.3936
 5768TIP3   OH238794   1.332   2.644   0.066  0.5639  0.3590 -0.4655
 5768TIP3    H138795   1.263   2.595   0.020 -0.7352 -0.0255  1.7571
 5768TIP3    H238796   1.406   2.584   0.067 -0.0192 -0.3763 -0.3951
 5769TIP3   OH238797   0.631   3.732   2.376 -0.3203 -1.0843 -0.5083
 5769TIP3    H138798   0.607   3.795   2.444 -0.4612 -0.6330 -0.9748
 5769TIP3    H238799   0.548   3.690   2.352 -0.5102 -0.1668 -1.4766
 5770TIP3   OH238800   4.484   1.506   2.646  0.0243 -0.4418 -0.0799
 5770TIP3    H138801   4.401   1.520   2.692 -0.6113 -1.9907 -0.6753
 5770TIP3    H238802   4.536   1.451   2.705  1.0493  1.3010  0.7064
 5771TIP3   OH238803   1.659   2.006   3.174  0.0019  0.1926 -0.0264
 5771TIP3    H138804   1.578   1.955   3.179  1.0289 -1.6357 -0.9973
 5771TIP3    H238805   1.659   2.041   3.085 -0.4465  1.5268  0.4736
 5772TIP3   OH238806   5.551   0.851   0.325  0.0348  0.1200 -0.4203
 5772TIP3    H138807   5.608   0.911   0.277  1.0164 -1.2648 -1.0307
 5772TIP3    H238808   5.479   0.833   0.265 -0.5019  0.9972 -0.0677
 5773TIP3   OH238809   0.460   5.748   0.039 -0.5465  0.3051  0.3769
 5773TIP3    H138810   0.386   5.765   0.099 -0.8557  0.1963  0.0280
 5773TIP3    H238811   0.526   5.813   0.065 -0.5343  0.0265  1.0761
 5774TIP3   OH238812   6.374   2.600   3.726  0.2718 -0.2882  0.6896
 5774TIP3    H138813   6.364   2.506   3.740  2.7164 -0.4175  2.0318
 5774TIP3    H238814   6.406   2.609   3.636  0.1222 -0.7343  0.5929
 5775TIP3   OH238815   1.570   4.514  14.135 -0.4255 -0.3426  0.0966
 5775TIP3    H138816   1.587   4.474  14.220 -0.9364  1.4089  1.0749
 5775TIP3    H238817   1.521   4.594  14.155 -0.8778 -0.0666 -1.8750
 5776TIP3   OH238818   4.472   6.377  12.504 -0.1487 -0.0815  0.5401
 5776TIP3    H138819   4.535   6.309  12.479 -0.2721  0.0003 -0.0050
 5776TIP3    H238820   4.400   6.328  12.543 -0.1367 -0.2500  0.3579
 5777TIP3   OH238821   4.067   1.340   4.030  0.2369  0.3851 -0.4914
 5777TIP3    H138822   4.152   1.318   3.992 -0.8598  0.1640 -3.0371
 5777TIP3    H238823   4.062   1.435   4.026  2.0554  0.8707  3.8384
 5778TIP3   OH238824   5.926   2.626   1.675  0.2679  0.4550  0.6794
 5778TIP3    H138825   5.831   2.636   1.673  0.1513 -0.3461  1.7117
 5778TIP3    H238826   5.943   2.568   1.748  1.7331  2.4250  2.0105
 5779TIP3   OH238827   4.557   0.764  11.402 -0.2424 -0.2309  0.2648
 5779TIP3    H138828   4.539   0.815  11.323 -1.3525 -0.3318  0.4443
 5779TIP3    H238829   4.606   0.823  11.458  2.2301 -0.7362 -1.2113
 5780TIP3   OH238830   4.656   2.871  12.401  0.1582  0.2718 -0.3076
 5780TIP3    H138831   4.717   2.822  12.455 -1.1382 -1.4507 -0.3307
 5780TIP3    H238832   4.699   2.880  12.316  1.0472  0.5426  0.1650
 5781TIP3   OH238833   3.086   2.991   1.208 -0.2431  0.2150 -0.0150
 5781TIP3    H138834   3.148   2.921   1.227 -2.4211 -1.8308  0.0714
 5781TIP3    H238835   3.101   3.012   1.115 -0.4671 -1.3896 -0.4392
 5782TIP3   OH238836   3.885   1.240   5.152 -0.5328  0.2408 -0.6891
 5782TIP3    H138837   3.859   1.149   5.140  0.6285 -0.1758 -0.1935
 5782TIP3    H238838   3.859   1.261   5.242 -0.3790  0.2448 -0.6447
 5783TIP3   OH238839   0.459   1.367   3.591 -0.4328  0.5829  0.2086
 5783TIP3    H138840   0.418   1.453   3.586 -2.1994 -0.1627  0.9348
 5783TIP3    H238841   0.387   1.305   3.576  0.2186 -0.8099  2.3345
 5784TIP3   OH238842   6.498   2.067   4.958 -1.0292 -0.2944 -0.1657
 5784TIP3    H138843   6.543   1.986   4.985 -1.2878  0.1571  1.7490
 5784TIP3    H238844   6.488   2.058   4.863  1.2818 -1.3280 -0.3874
 5785TIP3   OH238845   0.880   4.989   4.115 -0.0780 -0.2455 -0.5693
 5785TIP3    H138846   0.896   5.061   4.177  0.7381 -1.1916  0.3545
 5785TIP3    H238847   0.806   5.019   4.063 -1.1379  0.3891  1.2104
 5786TIP3   OH238848   6.649   0.074  12.537  0.3908 -0.0612 -0.4322
 5786TIP3    H138849   6.640  -0.021  12.545  0.6642  0.0082  0.9905
 5786TIP3    H238850   6.559   0.106  12.528  0.2606 -0.4115 -0.3920
 5787TIP3   OH238851   6.830   0.217   5.553  0.0412 -0.4264 -0.2959
 5787TIP3    H138852   6.875   0.144   5.510 -0.2785  0.7304 -2.7867
 5787TIP3    H238853   6.790   0.266   5.481 -1.0673  1.3492  1.4247
 5788TIP3   OH238854   0.740   0.802  17.109 -0.3060  0.3441 -0.2836
 5788TIP3    H138855   0.770   0.712  17.122  1.2142  1.1881  3.3589
 5788TIP3    H238856   0.664   0.811  17.167 -0.5819  1.3469 -0.7760
 5789TIP3   OH238857   2.910   3.737   2.815 -0.6707  0.0601  0.8203
 5789TIP3    H138858   2.841   3.774   2.760  0.8554  0.6824 -0.7853
 5789TIP3    H238859   2.883   3.646   2.830 -1.9969  0.3880  0.5258
 5790TIP3   OH238860   2.480   1.620  15.439 -0.3440  0.2409  0.2613
 5790TIP3    H138861   2.519   1.541  15.476 -1.6572 -1.1611 -1.1953
 5790TIP3    H238862   2.489   1.686  15.508  0.9864 -1.0900  1.4309
 5791TIP3   OH238863   2.629   6.329  14.298  0.2002 -0.2608  0.2579
 5791TIP3    H138864   2.592   6.396  14.241  0.5495 -1.0595 -0.9471
 5791TIP3    H238865   2.571   6.327  14.374  0.5058  1.8004  0.6249
 5792TIP3   OH238866   6.844   5.441   6.548 -0.2549 -0.0768 -0.3151
 5792TIP3    H138867   6.915   5.396   6.594 -0.3735  0.9657  0.9803
 5792TIP3    H238868   6.877   5.530   6.535 -0.9116  0.1222 -0.6808
 5793TIP3   OH238869   6.571   1.370   0.928  0.2092  0.4303  0.2483
 5793TIP3    H138870   6.634   1.302   0.902 -0.2518 -0.7428  2.0377
 5793TIP3    H238871   6.487   1.324   0.934 -0.2205  1.2775  0.9606
 5794TIP3   OH238872   5.109   5.972  15.468 -0.0515  0.9777  0.1958
 5794TIP3    H138873   5.153   6.041  15.519  1.2570  0.0071  0.4186
 5794TIP3    H238874   5.018   5.977  15.497  0.0223  2.5399  0.2869
 5795TIP3   OH238875   2.272   6.498   1.897  0.4955 -0.1647  0.1498
 5795TIP3    H138876   2.365   6.480   1.911  0.1293 -1.8009  0.7489
 5795TIP3    H238877   2.250   6.562   1.965  1.5393  1.6191 -1.1192
 5796TIP3   OH238878   0.330   2.991   0.056 -0.2938  0.0127  0.4342
 5796TIP3    H138879   0.261   2.968  -0.007  0.0975 -1.0793  0.3921
 5796TIP3    H238880   0.411   2.980   0.007 -0.0585  1.2739  0.4932
 5797TIP3   OH238881   1.526   2.733   3.795  0.3249  0.2279 -0.1424
 5797TIP3    H138882   1.540   2.643   3.823 -1.0693  0.3728  1.1089
 5797TIP3    H238883   1.494   2.725   3.705 -2.7402 -0.7782  0.9290
 5798TIP3   OH238884   5.952   4.211  10.957 -0.4678 -0.5758 -0.1230
 5798TIP3    H138885   5.968   4.149  11.029  0.3281  1.8545  1.9688
 5798TIP3    H238886   5.860   4.235  10.966  0.1539  1.5129  1.8008
 5799TIP3   OH238887   6.125   5.756   3.393 -0.1221 -0.1548 -0.6131
 5799TIP3    H138888   6.093   5.833   3.345 -0.0129  0.6423  0.5712
 5799TIP3    H238889   6.136   5.786   3.483  2.4832 -0.8212 -0.6392
 5800TIP3   OH238890   0.846   4.744   6.169  0.3832  0.1376 -0.3873
 5800TIP3    H138891   0.868   4.834   6.145  0.4862 -0.4227 -2.6713
 5800TIP3    H238892   0.809   4.750   6.257 -1.7262  2.7178 -1.3220
 5801TIP3   OH238893   3.291   3.212  14.990  0.1557 -0.2167  0.0629
 5801TIP3    H138894   3.270   3.217  15.083 -2.6364  2.1520 -0.5458
 5801TIP3    H238895   3.224   3.156  14.952  0.1069  0.3694 -0.7588
 5802TIP3   OH238896   4.023   1.517  16.687  0.2727 -0.2129 -0.7232
 5802TIP3    H138897   4.015   1.582  16.618 -3.5587  0.3695  0.0293
 5802TIP3    H238898   4.073   1.560  16.756 -0.6277  1.3134 -0.9777
 5803TIP3   OH238899   5.340   2.934   1.412 -0.1642 -0.4143 -0.2822
 5803TIP3    H138900   5.313   2.864   1.471  0.3475 -0.1576  0.2693
 5803TIP3    H238901   5.264   2.992   1.407  0.1852  0.2065  1.1115
 5804TIP3   OH238902   1.569   6.662  11.644  0.1128 -0.0058  0.8285
 5804TIP3    H138903   1.520   6.730  11.599  1.4973 -0.2965 -1.2844
 5804TIP3    H238904   1.658   6.697  11.653  0.0872 -0.3130  2.6108
 5805TIP3   OH238905   6.071   1.199   2.465 -0.4633  0.0031 -0.5135
 5805TIP3    H138906   6.122   1.135   2.414  0.5900 -0.3650  0.9447
 5805TIP3    H238907   6.076   1.280   2.413 -1.3004 -0.8977 -2.0812
 5806TIP3   OH238908   6.681   2.332   5.949 -0.0400 -0.3113  0.3094
 5806TIP3    H138909   6.764   2.366   5.916 -1.2481  1.3429 -1.2751
 5806TIP3    H238910   6.673   2.370   6.037  0.9754 -0.7290  0.6023
 5807TIP3   OH238911   3.394   4.570  14.526 -0.7370  0.4611  0.4914
 5807TIP3    H138912   3.371   4.597  14.615  1.2659 -0.6276  1.4106
 5807TIP3    H238913   3.471   4.514  14.537 -1.4411 -1.1082 -1.7770
 5808TIP3   OH238914   1.754   6.716  15.027 -0.1514 -0.7125 -0.0195
 5808TIP3    H138915   1.801   6.799  15.030  1.3749 -1.5733  0.5892
 5808TIP3    H238916   1.674   6.732  15.077  0.4858  0.1666  0.7467
 5809TIP3   OH238917   2.835   4.748   4.431 -0.2187 -0.2515  0.2405
 5809TIP3    H138918   2.755   4.698   4.414  0.7222 -2.9053  2.6442
 5809TIP3    H238919   2.898   4.716   4.366 -0.5109  0.2484 -0.2928
 5810TIP3   OH238920   5.781   5.198  14.100  0.1227  0.0236 -0.0459
 5810TIP3    H138921   5.715   5.165  14.038 -1.2347  1.4618  0.5780
 5810TIP3    H238922   5.830   5.263  14.050 -0.7550  0.9430  0.2690
 5811TIP3   OH238923   5.029   1.605  16.073 -0.1926 -0.3136 -0.1968
 5811TIP3    H138924   5.095   1.597  16.004 -0.0552 -1.2836  0.0361
 5811TIP3    H238925   5.015   1.516  16.104 -1.2360 -0.0582  0.1210
 5812TIP3   OH238926   5.958   6.711   0.833 -0.1533  0.3518 -0.5098
 5812TIP3    H138927   5.989   6.621   0.826  0.9267  0.6776 -0.0551
 5812TIP3    H238928   6.009   6.749   0.905  1.2260  2.0529 -2.2920
 5813TIP3   OH238929   5.986   6.463  12.521  0.3540  0.6146  0.4651
 5813TIP3    H138930   5.974   6.472  12.616  1.2085 -0.9852  0.7555
 5813TIP3    H238931   5.918   6.519  12.483 -2.6288 -1.6795  2.0152
 5814TIP3   OH238932   1.559   1.685  11.511  0.3826  0.4574 -0.2325
 5814TIP3    H138933   1.603   1.714  11.432 -0.2755  1.0879 -0.3795
 5814TIP3    H238934   1.471   1.661  11.482  0.3141  0.1450  0.2146
 5815TIP3   OH238935   1.618   6.063  15.011 -0.2705 -0.1503  0.0059
 5815TIP3    H138936   1.682   6.024  15.071 -1.3324 -1.2216  0.4738
 5815TIP3    H238937   1.598   6.148  15.050 -1.4075 -1.0840  1.5608
 5816TIP3   OH238938   5.505   5.721  13.550 -0.2325  0.3734  0.0217
 5816TIP3    H138939   5.509   5.631  13.520 -1.0713  0.2175  0.3660
 5816TIP3    H238940   5.494   5.714  13.645  0.0553  0.8390  0.0928
 5817TIP3   OH238941   1.983   6.607   2.001 -0.1799 -0.3013 -0.0556
 5817TIP3    H138942   2.021   6.526   1.965 -1.9661 -1.0121 -0.4289
 5817TIP3    H238943   1.934   6.645   1.928 -0.8230  0.1843  0.6215
 5818TIP3   OH238944   1.226   4.062  15.721  0.4330 -0.3615 -1.1231
 5818TIP3    H138945   1.163   4.106  15.663 -2.2773 -2.1905  0.2555
 5818TIP3    H238946   1.242   3.978  15.679  2.4016  0.2452 -1.6765
 5819TIP3   OH238947   6.006   2.338  16.278  0.0183  0.1228 -0.3224
 5819TIP3    H138948   5.967   2.289  16.350 -1.2074 -0.1188 -1.1278
 5819TIP3    H238949   6.094   2.301  16.268 -0.7296 -1.6561 -0.6520
 5820TIP3   OH238950   2.520   6.061   0.600 -0.1699  0.0658  0.4140
 5820TIP3    H138951   2.453   5.997   0.626  0.9142 -1.1670  0.2737
 5820TIP3    H238952   2.585   6.010   0.551  0.5119  1.3655 -0.0919
 5821TIP3   OH238953   3.921   1.089   2.961 -0.1300 -0.1872 -0.3164
 5821TIP3    H138954   3.938   1.179   2.934 -0.7602 -0.0917 -0.4088
 5821TIP3    H238955   4.001   1.042   2.937 -0.0414  0.2209 -0.8576
 5822TIP3   OH238956   1.867   6.465  12.353  0.3743 -0.1169 -0.0692
 5822TIP3    H138957   1.789   6.454  12.407  0.9693 -1.1377  0.6187
 5822TIP3    H238958   1.843   6.431  12.268 -0.0303 -0.1270  0.0483
 5823TIP3   OH238959   2.364   4.202  14.535  0.7165 -0.3528  0.0381
 5823TIP3    H138960   2.334   4.182  14.446 -0.1029 -1.2266  0.5002
 5823TIP3    H238961   2.294   4.170  14.592  1.7038 -0.7515  1.0551
 5824TIP3   OH238962   3.129   5.934   3.559 -0.1573  0.0457  0.4051
 5824TIP3    H138963   3.150   6.028   3.558  1.6389 -0.3149 -0.5726
 5824TIP3    H238964   3.164   5.901   3.476 -0.5676 -1.5349  0.8292
 5825TIP3   OH238965   5.500   6.447   3.900  0.3787 -0.2073  0.3114
 5825TIP3    H138966   5.431   6.383   3.917  0.0567 -0.3821 -1.4928
 5825TIP3    H238967   5.578   6.395   3.882  0.8450 -0.0163  1.6314
 5826TIP3   OH238968   3.513   3.285  13.110  0.3528 -0.2398 -0.4069
 5826TIP3    H138969   3.428   3.292  13.066 -0.5380  1.2280  1.4104
 5826TIP3    H238970   3.554   3.371  13.097  0.6978 -0.2734  0.3819
 5827TIP3   OH238971   5.975   1.787   1.091  0.3797 -0.3748 -0.2839
 5827TIP3    H138972   6.027   1.808   1.014  0.1842 -0.9081 -0.5713
 5827TIP3    H238973   6.020   1.711   1.129 -0.1399 -0.7917 -0.4931
 5828TIP3   OH238974   6.644   0.299   1.975  0.5724  0.2748  0.3688
 5828TIP3    H138975   6.658   0.304   2.070 -0.5250  0.9888  0.5097
 5828TIP3    H238976   6.718   0.247   1.943  0.3890 -0.8991  1.7405
 5829TIP3   OH238977   3.155   0.499   4.694  0.5072  0.1303  0.2927
 5829TIP3    H138978   3.118   0.548   4.621 -0.6245  1.2809  1.5832
 5829TIP3    H238979   3.226   0.555   4.726  0.5562 -0.0469  0.4934
 5830TIP3   OH238980   1.969   5.442  14.907  0.2880 -0.5243  0.1497
 5830TIP3    H138981   1.924   5.505  14.852 -0.2348 -1.1234 -0.1137
 5830TIP3    H238982   1.978   5.487  14.992 -0.6834 -0.3426  0.1704
 5831TIP3   OH238983   5.079   5.527   3.701 -0.5287  0.2880 -0.1691
 5831TIP3    H138984   5.109   5.543   3.611  0.9766  1.4699  0.5037
 5831TIP3    H238985   5.127   5.449   3.728  1.8678  1.9607  0.7736
 5832TIP3   OH238986   0.170   0.148  12.953 -0.5022  0.1050  0.1136
 5832TIP3    H138987   0.191   0.111  13.039  3.6907 -1.4709 -1.3018
 5832TIP3    H238988   0.177   0.242  12.965  1.8042 -0.1394  1.2613
 5833TIP3   OH238989   3.586   5.938  13.161  0.0936 -0.1799  0.2679
 5833TIP3    H138990   3.565   5.956  13.253 -0.3388 -1.8724  0.5481
 5833TIP3    H238991   3.682   5.941  13.157  0.3549 -3.0847  1.5617
 5834TIP3   OH238992   4.419   1.328  13.950  0.6144 -0.2953 -0.0595
 5834TIP3    H138993   4.390   1.352  14.038 -2.5899 -1.1105 -0.7389
 5834TIP3    H238994   4.431   1.233  13.954  0.0405 -0.3986 -0.5620
 5835TIP3   OH238995   5.985   5.949   3.248  0.3626  0.3966  0.6362
 5835TIP3    H138996   5.985   5.890   3.172  1.0595  1.0263  0.1341
 5835TIP3    H238997   5.926   6.020   3.224 -0.2286  0.0668  1.1116
 5836TIP3   OH238998   2.319   1.014  12.353  0.2359 -0.4354  0.3141
 5836TIP3    H138999   2.307   0.992  12.445  0.7268  1.6272  0.9252
 5836TIP3    H239000   2.407   0.982  12.332 -0.2022 -1.6614  0.2993
 5837TIP3   OH239001   6.712   4.435  14.454 -0.0122 -0.0567  0.2272
 5837TIP3    H139002   6.628   4.470  14.424 -0.5755 -1.7090 -0.2492
 5837TIP3    H239003   6.735   4.489  14.529 -0.1386  2.1805 -1.2540
 5838TIP3   OH239004   3.802   2.555  16.761  0.2817  0.3101 -0.0548
 5838TIP3    H139005   3.786   2.609  16.839  1.2169  2.5553 -1.3157
 5838TIP3    H239006   3.721   2.562  16.711  0.4521  0.6696 -0.2814
 5839TIP3   OH239007   6.755   2.606   1.139 -0.4767 -0.0706 -0.0089
 5839TIP3    H139008   6.783   2.671   1.203  0.2582 -1.2055  0.8555
 5839TIP3    H239009   6.687   2.555   1.183  1.1845 -1.9341  0.5610
 5840TIP3   OH239010   0.277   0.099   3.935  0.0118  0.1679  0.5681
 5840TIP3    H139011   0.220   0.103   4.011  0.0475  1.2788  0.5434
 5840TIP3    H239012   0.352   0.047   3.965 -0.1807  0.2144  1.1445
 5841TIP3   OH239013   2.977   0.141   1.667  0.3380 -0.5686  0.5446
 5841TIP3    H139014   2.901   0.186   1.629  1.5080 -1.1734 -2.8599
 5841TIP3    H239015   2.997   0.191   1.746 -3.3202 -0.1739  1.4242
 5842TIP3   OH239016   1.418   5.954   6.124 -0.2025 -0.1295 -0.0118
 5842TIP3    H139017   1.381   5.976   6.039  0.9046 -0.3909 -0.5853
 5842TIP3    H239018   1.512   5.943   6.107  0.2130  0.8988  1.4587
 5843TIP3   OH239019   0.118   1.443  15.631  0.2796  0.4927 -0.8153
 5843TIP3    H139020   0.207   1.412  15.649  0.3453  0.5321 -1.0634
 5843TIP3    H239021   0.096   1.404  15.546 -0.0906  0.1663 -0.5746
 5844TIP3   OH239022   5.672   2.439   2.857  0.4456 -0.4418 -0.2564
 5844TIP3    H139023   5.607   2.380   2.894  0.0469 -0.6408 -1.2328
 5844TIP3    H239024   5.687   2.405   2.769 -0.4903  1.4221 -1.2034
 5845TIP3   OH239025   1.668   2.017   2.254 -0.2565  0.2572 -0.3908
 5845TIP3    H139026   1.673   2.113   2.253  1.7724  0.2811  2.3180
 5845TIP3    H239027   1.586   1.998   2.299  0.4414  0.8126  1.1843
 5846TIP3   OH239028   1.331   6.353   5.265  0.0440 -0.4266 -0.6850
 5846TIP3    H139029   1.359   6.443   5.283  1.6088 -1.0442  0.2488
 5846TIP3    H239030   1.280   6.328   5.342 -0.2287 -0.3942 -0.8564
 5847TIP3   OH239031   6.498   5.866  15.570  0.5250 -0.1074  0.4474
 5847TIP3    H139032   6.475   5.930  15.502  0.9837  0.7974  1.1194
 5847TIP3    H239033   6.414   5.842  15.609  0.0178 -2.0702 -1.6240
 5848TIP3   OH239034   2.725   2.848  15.529  0.3802  0.6787  0.2281
 5848TIP3    H139035   2.795   2.790  15.559 -1.4067 -0.6153  2.1763
 5848TIP3    H239036   2.688   2.803  15.452  0.4506  0.3607  0.3764
 5849TIP3   OH239037   2.623   0.696  15.392 -0.1376  0.0047 -0.0728
 5849TIP3    H139038   2.696   0.757  15.379 -0.1742 -0.2711 -1.8078
 5849TIP3    H239039   2.663   0.617  15.427  0.1677  0.3771  0.4370
 5850TIP3   OH239040   1.001   2.471  13.770  0.4431 -0.2117 -0.2051
 5850TIP3    H139041   1.034   2.520  13.844 -1.7410  1.1695 -0.0613
 5850TIP3    H239042   0.974   2.387  13.807  1.6556 -0.4966  0.0648
 5851TIP3   OH239043   0.165   1.017  15.518  0.2255 -0.3321 -0.2379
 5851TIP3    H139044   0.249   1.021  15.472  0.4683 -2.1774 -0.0533
 5851TIP3    H239045   0.188   1.027  15.610  0.1312  0.0629 -0.2566
 5852TIP3   OH239046   5.250   0.565  15.627 -0.0680 -0.2115 -0.0342
 5852TIP3    H139047   5.296   0.624  15.687  1.0309 -0.7581 -0.3078
 5852TIP3    H239048   5.167   0.608  15.610  0.4480  0.9459  0.2792
 5853TIP3   OH239049   5.026   0.704  11.270 -0.1330  0.1443  0.0433
 5853TIP3    H139050   5.019   0.625  11.323 -0.3544 -0.0197 -0.2233
 5853TIP3    H239051   5.119   0.726  11.272 -0.0751 -0.1039  0.1502
 5854TIP3   OH239052   2.650   3.689   5.861 -0.1648  0.6245 -0.6400
 5854TIP3    H139053   2.672   3.624   5.927 -1.3945  1.3478  0.5328
 5854TIP3    H239054   2.726   3.747   5.859 -0.1496  0.6514  0.2401
 5855TIP3   OH239055   2.490   5.446  12.804  0.0808 -0.1835  0.5695
 5855TIP3    H139056   2.398   5.425  12.819  0.1922 -1.5637 -0.4221
 5855TIP3    H239057   2.520   5.485  12.886 -1.9189  2.4122  0.1746
 5856TIP3   OH239058   3.423   4.893  16.753  0.4739  0.3789 -0.2680
 5856TIP3    H139059   3.360   4.927  16.816  0.3738 -0.3238  0.0166
 5856TIP3    H239060   3.482   4.966  16.736 -0.9952  1.3554 -1.3012
 5857TIP3   OH239061   1.364   1.000  12.815 -0.6486  0.6760  0.2632
 5857TIP3    H139062   1.379   1.089  12.783  1.4402  0.1583 -0.3626
 5857TIP3    H239063   1.359   1.009  12.910  0.1762  1.4102  0.2503
 5858TIP3   OH239064   4.835   5.719  11.912 -0.2761 -0.1551  0.2921
 5858TIP3    H139065   4.815   5.792  11.853  0.5234  0.9588  1.3612
 5858TIP3    H239066   4.893   5.756  11.978  0.5942 -1.8979  0.5720
 5859TIP3   OH239067   2.117   3.982  12.597  0.0046 -0.1781  0.6799
 5859TIP3    H139068   2.029   3.947  12.585 -0.5471  1.7679 -1.6425
 5859TIP3    H239069   2.171   3.933  12.534 -0.3466  1.5129 -1.0189
 5860TIP3   OH239070   5.788   1.201  11.722 -0.4430 -0.6328 -0.0966
 5860TIP3    H139071   5.792   1.114  11.680 -0.1024  0.0521 -1.5551
 5860TIP3    H239072   5.726   1.190  11.794 -1.9756 -1.5987 -1.4814
 5861TIP3   OH239073   4.985   5.553   5.417 -0.2779 -0.3156 -0.1013
 5861TIP3    H139074   5.053   5.567   5.483  0.1762 -1.2700 -0.3458
 5861TIP3    H239075   4.914   5.610   5.443  0.3021  0.0823  0.6350
 5862TIP3   OH239076   4.082   2.675  14.733 -0.0752  0.1594  0.4589
 5862TIP3    H139077   3.991   2.669  14.706  0.4748 -1.4252 -1.2082
 5862TIP3    H239078   4.109   2.763  14.708 -1.2767  0.8598  1.5194
 5863TIP3   OH239079   6.394   2.578  10.780  0.2919  0.3059  0.1718
 5863TIP3    H139080   6.337   2.534  10.717  1.5866 -0.9975 -0.1569
 5863TIP3    H239081   6.375   2.671  10.769 -2.3723 -0.1041  0.7152
 5864TIP3   OH239082   2.232   0.903  14.580  0.0506 -0.2594 -0.2836
 5864TIP3    H139083   2.314   0.862  14.609  0.5871  2.1113  1.8837
 5864TIP3    H239084   2.259   0.969  14.516 -0.4579 -0.9449 -1.2398
 5865TIP3   OH239085   2.173   4.423   4.914  0.4398 -0.0029  0.2296
 5865TIP3    H139086   2.262   4.403   4.884  0.6422  1.0375  0.0827
 5865TIP3    H239087   2.178   4.514   4.943 -0.8901  0.5200 -1.0546
 5866TIP3   OH239088   5.869   0.921   3.196 -0.1674  0.2936 -0.1027
 5866TIP3    H139089   5.929   0.972   3.142 -0.2869 -0.2078 -0.7227
 5866TIP3    H239090   5.925   0.881   3.263 -0.0084  0.8586  0.1075
 5867TIP3   OH239091   4.934   1.127   4.459  0.1857  0.1013 -0.5233
 5867TIP3    H139092   4.979   1.181   4.394 -1.8460  1.9390 -0.5424
 5867TIP3    H239093   4.882   1.065   4.406  0.0680  0.2771 -0.6178
 5868TIP3   OH239094   3.950   1.953   4.257  0.2439 -0.7652 -0.3309
 5868TIP3    H139095   3.981   1.992   4.339 -1.0881 -0.9158  0.2676
 5868TIP3    H239096   3.996   1.869   4.252  3.7367  1.0061 -2.0105
 5869TIP3   OH239097   2.367   4.947   2.322  0.3603 -0.8439  0.0855
 5869TIP3    H139098   2.284   4.987   2.298  1.1140  0.3404 -0.6326
 5869TIP3    H239099   2.356   4.923   2.414 -0.7006 -0.5428  0.0560
 5870TIP3   OH239100   5.125   3.345   3.676  0.1632 -0.0592  0.1401
 5870TIP3    H139101   5.166   3.404   3.614 -1.7833  0.0030 -1.1871
 5870TIP3    H239102   5.198   3.301   3.720  1.6426  2.5467  0.4611
 5871TIP3   OH239103   2.764   3.797   5.045  0.2604  0.3154  0.1982
 5871TIP3    H139104   2.749   3.882   5.085 -0.2054 -0.0492  0.8130
 5871TIP3    H239105   2.749   3.811   4.951 -0.6222  0.7271  0.3936
 5872TIP3   OH239106   1.168   6.801  14.654  0.2548  0.0105  0.4138
 5872TIP3    H139107   1.246   6.847  14.686 -0.3571  1.6804 -0.3895
 5872TIP3    H239108   1.140   6.747  14.728  0.5788  1.5001  1.6664
 5873TIP3   OH239109   5.078   6.007  16.993 -0.3053  0.2050 -0.1021
 5873TIP3    H139110   5.089   6.071  17.063 -0.9006 -0.3601  0.5165
 5873TIP3    H239111   5.100   5.923  17.033 -0.8171 -0.1429 -0.5376
 5874TIP3   OH239112   6.056   1.553   0.265 -0.1966 -0.2503  0.0329
 5874TIP3    H139113   5.963   1.552   0.241 -0.5091  0.8175  1.0921
 5874TIP3    H239114   6.056   1.549   0.360  0.9105 -1.5438  0.0076
 5875TIP3   OH239115   4.146   4.616   2.387  0.5924 -0.5296  0.2823
 5875TIP3    H139116   4.134   4.525   2.361 -0.7837  0.0732 -1.3238
 5875TIP3    H239117   4.066   4.639   2.434 -0.7020  0.7966 -2.3542
 5876TIP3   OH239118   0.078   3.265   4.547  0.4684 -0.3064 -0.7942
 5876TIP3    H139119   0.022   3.342   4.545 -0.4824 -0.9768 -1.5273
 5876TIP3    H239120   0.108   3.258   4.637  0.3974  0.7932 -0.6799
 5877TIP3   OH239121   4.785   1.018   5.510 -0.0358 -0.0087  0.6457
 5877TIP3    H139122   4.823   1.079   5.447  0.6822 -0.4764  0.6254
 5877TIP3    H239123   4.739   1.075   5.573  1.0512  0.5971  0.9162
 5878TIP3   OH239124   2.564   1.208   4.708  0.4651  0.2485 -0.2198
 5878TIP3    H139125   2.653   1.236   4.686  0.7813  0.1651  0.9104
 5878TIP3    H239126   2.556   1.122   4.668  1.9186 -1.0050  2.0024
 5879TIP3   OH239127   6.627   5.390  16.696 -0.0057  0.5184 -0.0800
 5879TIP3    H139128   6.630   5.471  16.748 -1.0718  1.2682 -1.1202
 5879TIP3    H239129   6.632   5.320  16.761  2.0435  1.3824  0.7853
 5880TIP3   OH239130   5.865   6.051  12.164 -0.4340  0.5185  0.3947
 5880TIP3    H139131   5.951   6.063  12.123 -0.3486  0.3751  0.5277
 5880TIP3    H239132   5.860   5.957  12.180 -1.5422  0.1742 -1.6190
 5881TIP3   OH239133   0.572   2.468   0.328  0.0869 -0.8931 -0.5840
 5881TIP3    H139134   0.656   2.427   0.308  1.0399  1.0831 -0.9023
 5881TIP3    H239135   0.565   2.466   0.423  0.6279 -0.8594 -0.5431
 5882TIP3   OH239136   5.168   2.317  13.029 -0.0035  0.2599 -0.2833
 5882TIP3    H139137   5.090   2.300  13.081 -0.9371  1.5854 -1.2124
 5882TIP3    H239138   5.147   2.281  12.942  0.0648  1.3746 -0.7744
 5883TIP3   OH239139   0.868   0.724  14.231 -0.1983  0.2636 -0.0984
 5883TIP3    H139140   0.858   0.674  14.312 -0.4506 -0.1680 -0.3936
 5883TIP3    H239141   0.784   0.767  14.218  0.3642  1.6866  0.7479
 5884TIP3   OH239142   6.589   5.413   1.613  0.1994  1.0025  0.6964
 5884TIP3    H139143   6.680   5.422   1.640  0.2252  1.2408  0.5245
 5884TIP3    H239144   6.551   5.354   1.678  0.6248  0.4140  0.4227
 5885TIP3   OH239145   1.353   3.972   0.966 -0.2199 -0.3499  0.3570
 5885TIP3    H139146   1.297   4.001   1.038 -3.0564  1.5651 -2.3625
 5885TIP3    H239147   1.332   3.879   0.955 -1.7886 -0.0197  0.3594
 5886TIP3   OH239148   5.339   5.393   4.208 -0.1415 -0.2597 -0.0324
 5886TIP3    H139149   5.328   5.389   4.303 -0.3682  1.7238  0.0635
 5886TIP3    H239150   5.333   5.302   4.179 -0.8334 -0.8184  1.7641
 5887TIP3   OH239151   6.351   0.219  12.739 -0.4895 -0.0224  0.1829
 5887TIP3    H139152   6.433   0.181  12.772 -1.3167 -1.1411  1.0419
 5887TIP3    H239153   6.358   0.211  12.644  0.8540  0.9174  0.1649
 5888TIP3   OH239154   5.639   1.867  14.868  0.3579 -0.0713 -0.4726
 5888TIP3    H139155   5.551   1.855  14.903  0.4045  1.3724  0.2279
 5888TIP3    H239156   5.625   1.909  14.784  0.3756  2.1361  0.5515
 5889TIP3   OH239157   1.332   4.851  11.615  0.0125 -0.3553 -0.1534
 5889TIP3    H139158   1.370   4.765  11.631  2.4003  0.1311 -2.4611
 5889TIP3    H239159   1.246   4.832  11.576 -0.7325 -1.5510  1.8723
 5890TIP3   OH239160   2.182   3.910   1.413 -0.0141  0.4163  0.8868
 5890TIP3    H139161   2.113   3.894   1.349  0.2606  0.0108  0.6907
 5890TIP3    H239162   2.158   3.994   1.454 -0.7742  0.1410  1.0213
 5891TIP3   OH239163   0.985   3.090  14.162  0.2596  0.5119  0.1520
 5891TIP3    H139164   1.069   3.069  14.122  0.4525 -0.0094  0.8068
 5891TIP3    H239165   0.941   3.146  14.099  0.6161 -0.1767 -0.7242
 5892TIP3   OH239166   2.966   5.607   0.611 -0.3524  0.1344  0.8071
 5892TIP3    H139167   2.896   5.555   0.651 -2.9684  0.6940 -2.5538
 5892TIP3    H239168   2.982   5.564   0.527  2.2928  0.9836  0.8000
 5893TIP3   OH239169   1.788   3.118   4.745 -0.0826 -0.3480 -0.0863
 5893TIP3    H139170   1.697   3.109   4.715 -0.1751 -1.0233  0.3659
 5893TIP3    H239171   1.840   3.074   4.677 -0.3559 -2.5843  1.0440
 5894TIP3   OH239172   3.613   3.716  14.342 -0.3033  0.3652  0.3599
 5894TIP3    H139173   3.600   3.804  14.306 -1.7181 -0.2151 -0.6358
 5894TIP3    H239174   3.621   3.730  14.437 -0.5269  1.5655  0.2199
 5895TIP3   OH239175   1.758   6.754   4.077  0.0373 -0.0193  0.5410
 5895TIP3    H139176   1.701   6.692   4.123  0.2121  0.8287  1.9555
 5895TIP3    H239177   1.706   6.834   4.072  0.5291  0.2948  0.4491
 5896TIP3   OH239178   0.108   5.271   5.475 -0.3895  0.0398 -0.2926
 5896TIP3    H139179   0.118   5.352   5.524 -1.3408 -0.5467  0.9025
 5896TIP3    H239180   0.147   5.203   5.531  0.3032 -0.3732 -1.2272
 5897TIP3   OH239181   6.438   2.591  15.308 -0.2357  0.1265 -0.0967
 5897TIP3    H139182   6.514   2.622  15.259  1.1728 -0.8509  1.3523
 5897TIP3    H239183   6.471   2.578  15.397 -1.6832 -1.8031  0.2240
 5898TIP3   OH239184   6.323   4.879   5.270  0.2132  0.4583 -0.4389
 5898TIP3    H139185   6.358   4.823   5.201  2.0874  0.9206  0.0971
 5898TIP3    H239186   6.392   4.883   5.336 -1.1904  0.7366  1.0806
 5899TIP3   OH239187   6.186   6.456  14.013 -0.8641 -0.0699 -0.6052
 5899TIP3    H139188   6.152   6.471  14.101 -0.3410 -1.1067 -0.2107
 5899TIP3    H239189   6.134   6.382  13.980 -0.7341  0.0059 -0.9823
 5900TIP3   OH239190   0.400   2.221  15.075  0.0048  0.5496 -0.2459
 5900TIP3    H139191   0.331   2.268  15.029 -0.2183 -1.5310 -2.1878
 5900TIP3    H239192   0.357   2.187  15.154 -1.5165 -1.4083 -1.8230
 5901TIP3   OH239193   3.200   6.490  15.417  0.0251 -0.2034  0.3203
 5901TIP3    H139194   3.150   6.408  15.411 -0.9144  0.0386  3.1315
 5901TIP3    H239195   3.149   6.544  15.477  1.3503  1.9253 -0.3734
 5902TIP3   OH239196   4.718   1.036  15.255  0.4197  0.1977 -0.0869
 5902TIP3    H139197   4.738   1.102  15.322 -0.2184 -0.1705  0.4688
 5902TIP3    H239198   4.803   1.014  15.218  0.9193 -0.3996  1.3567
 5903TIP3   OH239199   3.878   2.060  16.569 -0.2824 -0.4134 -0.2052
 5903TIP3    H139200   3.874   2.032  16.661 -0.8841  1.2431  0.3164
 5903TIP3    H239201   3.912   2.150  16.573  0.2352 -0.5162 -1.6676
 5904TIP3   OH239202   0.931   1.970  13.545 -0.2373 -0.2457 -0.4911
 5904TIP3    H139203   0.980   1.937  13.620 -1.6111 -0.0340  0.5214
 5904TIP3    H239204   0.939   2.065  13.551 -0.0110 -0.2423 -0.8444
 5905TIP3   OH239205   6.485   5.713   4.699  0.0222 -0.1406  0.0927
 5905TIP3    H139206   6.485   5.808   4.688 -0.1421 -0.2994 -1.4498
 5905TIP3    H239207   6.396   5.692   4.727  0.1865  0.1844  0.9043
 5906TIP3   OH239208   5.372   0.443  11.606 -0.8129 -0.4061  0.2715
 5906TIP3    H139209   5.448   0.403  11.649  0.8261 -0.5296 -2.5038
 5906TIP3    H239210   5.307   0.373  11.603 -2.3372  0.4065  5.0504
 5907TIP3   OH239211   2.115   0.720   5.896  0.2075  0.0840 -0.8090
 5907TIP3    H139212   2.172   0.715   5.973 -1.2157 -1.4441  0.2184
 5907TIP3    H239213   2.176   0.723   5.822  1.6226  2.0548  0.3490
 5908TIP3   OH239214   2.284   5.714   3.952 -0.1176  0.0405 -0.3933
 5908TIP3    H139215   2.202   5.689   3.995  0.0580 -1.1262 -0.6881
 5908TIP3    H239216   2.258   5.738   3.863 -0.5145  2.7008  0.3645
 5909TIP3   OH239217   5.015   3.819  14.573  0.2562 -0.1292 -0.1346
 5909TIP3    H139218   5.032   3.909  14.602  0.2213  0.3132 -1.4413
 5909TIP3    H239219   5.095   3.772  14.596  0.0262  0.0634  1.1544
 5910TIP3   OH239220   3.955   4.050   5.166 -0.3436  0.3600  0.0199
 5910TIP3    H139221   3.905   4.081   5.241 -1.3320 -0.0431 -0.4487
 5910TIP3    H239222   4.045   4.043   5.198 -0.1851  2.9655  0.3426
 5911TIP3   OH239223   3.643   2.569   2.552  0.8069 -0.0927 -0.4727
 5911TIP3    H139224   3.628   2.661   2.528 -1.2930 -0.1864  0.2203
 5911TIP3    H239225   3.688   2.531   2.477 -0.5407  0.9318 -1.8580
 5912TIP3   OH239226   5.664   4.870  12.153  0.0908  0.2198  0.7808
 5912TIP3    H139227   5.691   4.955  12.120  1.9274 -0.6957 -0.1852
 5912TIP3    H239228   5.569   4.868  12.140  0.1573  1.7055 -0.0975
 5913TIP3   OH239229   4.161   1.625   0.579  0.1602 -0.0799  0.0262
 5913TIP3    H139230   4.246   1.657   0.609 -0.0131 -0.4136  0.8846
 5913TIP3    H239231   4.181   1.579   0.497  1.0169 -1.2468  0.8479
 5914TIP3   OH239232   6.465   4.429   2.729 -0.7545  0.6558 -0.6409
 5914TIP3    H139233   6.420   4.347   2.752 -0.3058  0.2219 -1.2885
 5914TIP3    H239234   6.466   4.479   2.811 -2.7768  0.8663 -0.6967
 5915TIP3   OH239235   3.118   5.545  15.147  0.3356  0.2545  0.4476
 5915TIP3    H139236   3.030   5.542  15.108  1.0344 -3.3409 -1.2293
 5915TIP3    H239237   3.104   5.528  15.240 -0.7667  0.5910  0.3637
 5916TIP3   OH239238   3.696   3.568   2.837 -1.2401 -0.3848 -0.4064
 5916TIP3    H139239   3.729   3.484   2.872 -1.9490  0.3184  2.2006
 5916TIP3    H239240   3.622   3.543   2.781 -1.7421 -1.5116  0.7068
 5917TIP3   OH239241   3.529   2.823   4.347  0.4693  0.1367 -0.4703
 5917TIP3    H139242   3.535   2.872   4.265 -2.5380 -0.8579 -1.4240
 5917TIP3    H239243   3.610   2.772   4.351  0.4085 -0.3045 -3.2102
 5918TIP3   OH239244   6.005   0.323  15.679 -0.0136  0.0335 -0.0981
 5918TIP3    H139245   6.055   0.346  15.601  0.2501 -0.2507 -0.0163
 5918TIP3    H239246   5.933   0.268  15.647  1.7103 -2.5183  0.1376
 5919TIP3   OH239247   5.735   5.811   4.016 -0.1526 -0.0224 -0.1184
 5919TIP3    H139248   5.803   5.819   3.949 -1.0015  1.9907 -0.7947
 5919TIP3    H239249   5.668   5.875   3.991 -1.4451 -0.6402  1.5537
 5920TIP3   OH239250   0.215   4.356  16.048  0.0552  0.0683  0.2149
 5920TIP3    H139251   0.299   4.312  16.044  0.6150  1.1793 -1.0063
 5920TIP3    H239252   0.218   4.406  16.130 -0.1390 -1.2290  1.0352
 5921TIP3   OH239253   6.004   4.733  15.971 -0.1042 -0.2857  0.2216
 5921TIP3    H139254   5.940   4.673  16.009 -0.9419 -0.0499 -0.7748
 5921TIP3    H239255   6.021   4.700  15.883  1.9947 -0.9614  0.8094
 5922TIP3   OH239256   6.296   4.617   2.557 -0.0694  0.8315  0.0760
 5922TIP3    H139257   6.219   4.585   2.604  0.4013 -2.2359 -1.0800
 5922TIP3    H239258   6.370   4.583   2.608  0.4586  0.1474 -1.1208
 5923TIP3   OH239259   1.392   2.088   0.587  0.8119  0.2162 -0.0933
 5923TIP3    H139260   1.384   2.111   0.679  3.4213  2.8892 -0.3907
 5923TIP3    H239261   1.314   2.124   0.545 -1.2263 -2.3986  1.1330
 5924TIP3   OH239262   6.634   6.660   1.726 -0.1704 -0.6666 -0.0498
 5924TIP3    H139263   6.607   6.568   1.729  0.6760 -0.8877  2.5805
 5924TIP3    H239264   6.728   6.657   1.708 -0.3212 -0.2186 -1.0211
 5925TIP3   OH239265   6.607   0.040   5.842 -0.2851  0.1969  0.2139
 5925TIP3    H139266   6.672   0.041   5.772 -0.1488  1.0013  0.3436
 5925TIP3    H239267   6.546  -0.029   5.817 -0.3508  0.6088 -0.7928
 5926TIP3   OH239268   6.188   3.045  15.656 -0.4763 -0.1884  0.1130
 5926TIP3    H139269   6.121   2.981  15.631 -0.3084 -0.6738  0.8800
 5926TIP3    H239270   6.251   2.995  15.708 -0.3701  0.6097  0.7684
 5927TIP3   OH239271   4.516   3.020  16.822  0.1083 -0.3594  0.0384
 5927TIP3    H139272   4.527   3.080  16.749  0.3020  2.0441  1.9065
 5927TIP3    H239273   4.421   3.009  16.831  0.0923 -0.8806 -0.7012
 5928TIP3   OH239274   2.548   3.709  16.493  0.0274 -0.0550  0.0148
 5928TIP3    H139275   2.576   3.748  16.410  0.4365 -0.2232  0.0731
 5928TIP3    H239276   2.594   3.625  16.496 -1.1177 -0.7034 -0.2664
 5929TIP3   OH239277   0.198   0.749   1.234 -0.2939 -0.2119  0.3469
 5929TIP3    H139278   0.243   0.672   1.268 -0.2525 -0.0825  0.5860
 5929TIP3    H239279   0.247   0.772   1.155  1.6135  1.3998  1.8989
 5930TIP3   OH239280   6.495   5.125  12.637  0.5656  0.2387  0.2122
 5930TIP3    H139281   6.526   5.215  12.652 -2.1842  1.1845  0.8916
 5930TIP3    H239282   6.455   5.129  12.550  1.1304 -0.5888 -0.0987
 5931TIP3   OH239283   1.621   4.551  15.247  0.0640  0.1066 -0.3315
 5931TIP3    H139284   1.674   4.565  15.325 -0.4240  0.0945  0.0145
 5931TIP3    H239285   1.645   4.463  15.217  0.4454  0.2167 -0.3510
 5932TIP3   OH239286   0.078   0.479   2.437  0.2621 -0.1444 -0.5909
 5932TIP3    H139287   0.078   0.506   2.345 -1.5391  0.2995 -0.5053
 5932TIP3    H239288   0.148   0.531   2.477  0.4892  0.3103 -1.5336
 5933TIP3   OH239289   6.385   0.770   4.188  0.5545 -0.4188 -0.0017
 5933TIP3    H139290   6.442   0.738   4.257  0.2744  0.3658  0.6045
 5933TIP3    H239291   6.308   0.713   4.192 -0.6501  1.2050  2.1205
 5934TIP3   OH239292   5.760   1.742  12.278  0.1215  0.4918  0.1537
 5934TIP3    H139293   5.720   1.802  12.340  2.0351  0.7573  1.2092
 5934TIP3    H239294   5.845   1.720  12.316 -0.1492 -2.2868 -0.5772
 5935TIP3   OH239295   2.655   2.614  16.049 -0.3425  0.4618 -0.2281
 5935TIP3    H139296   2.625   2.645  15.964  0.5250  0.0474 -0.6932
 5935TIP3    H239297   2.592   2.545  16.073  1.2321 -1.7667 -2.0975
 5936TIP3   OH239298   4.650   3.033  13.690 -0.0403 -0.1758  0.7010
 5936TIP3    H139299   4.632   2.982  13.769 -1.1072 -0.4258  0.3248
 5936TIP3    H239300   4.742   3.017  13.672 -0.4188 -2.3574  0.3683
 5937TIP3   OH239301   4.977   0.208   1.606  0.3526  0.1002  0.8273
 5937TIP3    H139302   4.933   0.207   1.521 -0.0278 -0.6928  1.0229
 5937TIP3    H239303   4.999   0.300   1.620  0.5282  0.2313 -0.1826
 5938TIP3   OH239304   2.838   5.939  11.597 -0.1616 -0.3383  0.3856
 5938TIP3    H139305   2.770   5.998  11.565  1.2730 -0.0217 -2.3560
 5938TIP3    H239306   2.920   5.981  11.571  0.9791 -2.2367  0.7588
 5939TIP3   OH239307   2.608   5.278   4.708 -0.7439  0.0524  0.0355
 5939TIP3    H139308   2.552   5.343   4.667  0.5867  1.0898 -0.2157
 5939TIP3    H239309   2.642   5.226   4.636 -0.3267  0.3051  0.0455
 5940TIP3   OH239310   6.653   5.361   3.481  0.0771  0.1455 -0.2220
 5940TIP3    H139311   6.708   5.328   3.552 -0.3236 -0.7615 -0.3263
 5940TIP3    H239312   6.601   5.430   3.521 -1.9945 -2.0089  1.0655
 5941TIP3   OH239313   0.494   1.893  10.161 -0.2178  0.3030  0.2453
 5941TIP3    H139314   0.519   1.953  10.231  1.1265 -1.1903  1.1092
 5941TIP3    H239315   0.420   1.844  10.197  0.6509 -0.6577  0.7656
 5942TIP3   OH239316   2.943   6.065  12.428 -0.5855 -0.7037  0.5373
 5942TIP3    H139317   2.973   5.977  12.405 -1.7723 -0.5818 -1.8285
 5942TIP3    H239318   2.979   6.121  12.359 -1.5303  0.3147  0.8392
 5943TIP3   OH239319   4.058   1.169  13.776  0.2561  0.3560  0.3281
 5943TIP3    H139320   4.142   1.166  13.731 -0.8074  1.1829 -1.8363
 5943TIP3    H239321   4.021   1.255  13.753 -1.6964 -0.4613  0.2037
 5944TIP3   OH239322   5.946   0.798  14.647 -0.1124  0.1820 -0.0862
 5944TIP3    H139323   5.855   0.823  14.665 -0.5663 -1.2024 -0.3206
 5944TIP3    H239324   5.945   0.767  14.556  0.5297 -0.1258  0.0060
 5945TIP3   OH239325   0.900   6.821  13.244  0.3576 -0.2280 -0.1009
 5945TIP3    H139326   0.952   6.835  13.165  0.1913  2.5120  0.1560
 5945TIP3    H239327   0.867   6.732  13.237  0.7435 -0.2214 -2.8611
 5946TIP3   OH239328   4.905   1.681   4.388 -0.0169  0.4271  0.2299
 5946TIP3    H139329   4.840   1.614   4.368 -0.2210  0.2924  1.3112
 5946TIP3    H239330   4.894   1.746   4.319 -0.5410 -0.1287 -0.2233
 5947TIP3   OH239331   1.663   2.377  15.204  0.3451  0.4883  0.3558
 5947TIP3    H139332   1.627   2.390  15.292  0.9752  2.3464  0.3699
 5947TIP3    H239333   1.601   2.420  15.146  0.1847 -0.3152 -0.0872
 5948TIP3   OH239334   0.653   6.229   1.036 -0.2596 -0.3202  0.4763
 5948TIP3    H139335   0.642   6.324   1.033 -1.3081 -0.4461 -0.6706
 5948TIP3    H239336   0.741   6.214   1.000 -0.1620  0.1992  0.4885
 5949TIP3   OH239337   6.167   2.805  14.441  0.2785 -0.0673  0.1990
 5949TIP3    H139338   6.213   2.728  14.406  1.8036  1.3459 -1.0820
 5949TIP3    H239339   6.209   2.821  14.526  0.8220  0.0623 -0.0886
 5950TIP3   OH239340   4.116   3.077  14.038 -0.3926  0.2398 -0.2129
 5950TIP3    H139341   4.071   3.160  14.051 -2.8324 -0.9744 -0.2592
 5950TIP3    H239342   4.104   3.057  13.945 -2.0517 -1.2974  0.2854
 5951TIP3   OH239343   4.824   6.696   3.554  0.0495  0.5890  0.1635
 5951TIP3    H139344   4.776   6.767   3.511 -0.8965 -0.7524 -1.0503
 5951TIP3    H239345   4.877   6.741   3.621 -0.8870  2.3787 -0.2294
 5952TIP3   OH239346   1.755   3.509  12.686  0.6595 -0.2680  0.5596
 5952TIP3    H139347   1.824   3.460  12.731 -0.8704 -2.1136  1.0273
 5952TIP3    H239348   1.733   3.454  12.611 -1.2847 -0.4785  1.2396
 5953TIP3   OH239349   5.418   3.237  15.333  0.3091  0.4923 -0.2051
 5953TIP3    H139350   5.437   3.295  15.259  2.1997  1.4546  0.9362
 5953TIP3    H239351   5.454   3.283  15.409 -2.3210 -0.0568  1.4992
 5954TIP3   OH239352   0.049   2.586  13.253 -0.6199  0.7417 -0.0815
 5954TIP3    H139353   0.024   2.646  13.323 -0.4118 -0.7864  1.3600
 5954TIP3    H239354   0.137   2.557  13.276  0.0462  1.3122 -1.7748
 5955TIP3   OH239355   2.025   1.074  16.753  0.4637 -0.3553  0.1995
 5955TIP3    H139356   1.979   1.074  16.669  1.4189  0.9374 -0.3526
 5955TIP3    H239357   2.113   1.104  16.732  0.5386  0.6058  1.7418
 5956TIP3   OH239358   2.676   3.473   0.135 -0.0927 -0.2493  0.8057
 5956TIP3    H139359   2.698   3.457   0.227 -0.3373 -0.2795  0.8594
 5956TIP3    H239360   2.585   3.500   0.137  0.0293  0.1726  0.6113
 5957TIP3   OH239361   1.211   3.055  13.977 -0.1138  0.3585 -0.5121
 5957TIP3    H139362   1.299   3.018  13.972 -0.4743 -0.4766 -0.9859
 5957TIP3    H239363   1.171   3.032  13.893 -1.1224 -0.1885  0.0955
 5958TIP3   OH239364   0.599   4.594   2.508  0.9492 -0.4224 -0.1616
 5958TIP3    H139365   0.573   4.531   2.575  1.3327 -0.4793 -0.0690
 5958TIP3    H239366   0.529   4.587   2.442  0.3473 -0.0524  0.4283
 5959TIP3   OH239367   4.213   1.405  11.811 -0.3277  0.1501  0.7302
 5959TIP3    H139368   4.147   1.446  11.867 -2.1463 -0.3159 -0.9108
 5959TIP3    H239369   4.263   1.348  11.869  0.4612  2.5403  2.5357
 5960TIP3   OH239370   1.617   6.714   3.502 -0.0464  0.9840 -0.1401
 5960TIP3    H139371   1.675   6.763   3.443 -0.1620 -0.2053 -1.3044
 5960TIP3    H239372   1.676   6.677   3.567  0.4224  0.4417 -0.8515
 5961TIP3   OH239373   1.232   0.180   5.952  0.7962 -0.2421  0.6519
 5961TIP3    H139374   1.179   0.235   6.009  2.1234 -0.0621  1.7750
 5961TIP3    H239375   1.220   0.091   5.986  0.7332 -0.2826  0.5239
 5962TIP3   OH239376   0.001   4.560   4.890  0.0949 -0.4877  0.1105
 5962TIP3    H139377   0.006   4.500   4.815 -0.3413 -1.5336  0.9003
 5962TIP3    H239378  -0.037   4.640   4.853  2.8828  0.2351 -1.4929
 5963TIP3   OH239379   4.789   2.798  11.115  0.2162 -0.0326  0.9053
 5963TIP3    H139380   4.848   2.829  11.046 -1.4182 -0.5093 -0.7964
 5963TIP3    H239381   4.824   2.836  11.196  1.1832  2.0484 -0.4057
 5964TIP3   OH239382   5.170   5.566  10.944  0.5407 -0.1606  0.5377
 5964TIP3    H139383   5.109   5.631  10.977 -1.3475 -2.2321  1.4172
 5964TIP3    H239384   5.249   5.615  10.921 -0.6778  2.3313  1.3954
 5965TIP3   OH239385   6.114   1.244   4.941  0.0835 -0.1656  0.0008
 5965TIP3    H139386   6.157   1.170   4.899  0.5373 -0.5015  1.0295
 5965TIP3    H239387   6.099   1.215   5.031 -0.5138  0.6761  0.1819
 5966TIP3   OH239388   0.025   0.221  11.875  0.0510  0.3019  0.2432
 5966TIP3    H139389  -0.061   0.228  11.833 -0.2058 -0.0490  0.7166
 5966TIP3    H239390   0.006   0.218  11.968  0.6463  1.4550  0.4221
 5967TIP3   OH239391   0.915   5.708  12.920 -0.8173  0.2145 -0.3506
 5967TIP3    H139392   0.845   5.652  12.955 -0.7021  0.8149  0.8892
 5967TIP3    H239393   0.967   5.730  12.996  1.0362 -0.6161 -1.3152
 5968TIP3   OH239394   1.145   5.168   4.395  0.1959  0.0611  0.3978
 5968TIP3    H139395   1.158   5.085   4.350  2.0375  1.3055 -1.5355
 5968TIP3    H239396   1.226   5.182   4.445  0.8033  1.5730 -0.9110
 5969TIP3   OH239397   3.559   1.101   1.299 -0.6426  0.4265  0.0752
 5969TIP3    H139398   3.624   1.169   1.279 -0.3986 -0.2308 -1.4971
 5969TIP3    H239399   3.608   1.019   1.294 -1.5016 -0.0571 -0.7589
 5970TIP3   OH239400   0.237   5.475   4.798  0.7353 -0.5412 -0.0427
 5970TIP3    H139401   0.163   5.458   4.739  1.2282 -0.9815 -0.5478
 5970TIP3    H239402   0.226   5.566   4.825  0.0932 -0.5605 -0.2320
 5971TIP3   OH239403   2.552   0.249   5.786  0.3227 -0.0749  0.1651
 5971TIP3    H139404   2.601   0.316   5.738  0.5554 -0.7428 -0.5551
 5971TIP3    H239405   2.553   0.278   5.877  3.0838 -0.6504  0.3968
 5972TIP3   OH239406   4.027   4.556   1.109  0.1577  0.2389 -0.3203
 5972TIP3    H139407   4.013   4.463   1.089  0.4414  0.0277  0.4620
 5972TIP3    H239408   4.122   4.565   1.116  0.1168  0.5468 -0.1630
 5973TIP3   OH239409   0.071   6.504   4.448 -0.7492  0.0838 -0.1875
 5973TIP3    H139410   0.063   6.409   4.444 -2.4657  0.2196 -1.1356
 5973TIP3    H239411  -0.019   6.535   4.459 -0.3626  1.6242 -1.0281
 5974TIP3   OH239412   4.990   0.784   4.284  0.0238 -0.0505  0.1811
 5974TIP3    H139413   4.900   0.770   4.315 -0.4823 -1.5216 -1.6856
 5974TIP3    H239414   4.979   0.803   4.191  1.6683 -1.5052 -0.3654
 5975TIP3   OH239415   2.070   5.242  12.614 -0.6089 -0.3856 -0.0607
 5975TIP3    H139416   2.009   5.215  12.683  0.1252  0.5388  0.9767
 5975TIP3    H239417   2.060   5.337  12.608  0.4119 -0.2730 -0.1708
 5976TIP3   OH239418   5.851   5.229   2.382  0.6450  0.2765 -0.3683
 5976TIP3    H139419   5.884   5.259   2.467 -1.5107  1.8259 -0.0128
 5976TIP3    H239420   5.829   5.309   2.335 -0.2449 -0.6317 -1.5633
 5977TIP3   OH239421   0.969   2.090   1.242  0.6013  0.3254 -0.7595
 5977TIP3    H139422   0.899   2.151   1.262 -1.2319 -1.6790 -0.6440
 5977TIP3    H239423   1.049   2.140   1.254 -0.7389  3.6072 -3.6949
 5978TIP3   OH239424   4.744   4.405  16.149 -0.2217  0.1541 -0.2130
 5978TIP3    H139425   4.738   4.492  16.188 -0.8849 -0.2032  0.5106
 5978TIP3    H239426   4.678   4.405  16.079 -0.8712 -0.0677  0.3933
 5979TIP3   OH239427   3.661   0.423  13.445 -0.3427 -0.1418  0.5445
 5979TIP3    H139428   3.686   0.430  13.537  1.2667  0.1149  0.1052
 5979TIP3    H239429   3.566   0.439  13.445 -0.5073 -0.9079  2.2316
 5980TIP3   OH239430   0.924   2.207   3.996 -0.1426  0.0273  0.7121
 5980TIP3    H139431   1.013   2.242   3.996 -0.7031  1.5992  2.5583
 5980TIP3    H239432   0.934   2.117   3.964  2.2992 -0.2670  2.0453
 5981TIP3   OH239433   6.569   3.256   6.343  0.0114 -0.0136 -0.0367
 5981TIP3    H139434   6.523   3.339   6.359  1.4482  0.5626  1.4047
 5981TIP3    H239435   6.507   3.204   6.291 -1.6347  1.2860  0.5134
 5982TIP3   OH239436   1.364   1.152  15.380 -0.1410 -0.2269 -0.1644
 5982TIP3    H139437   1.317   1.071  15.360 -0.8216 -0.6942  2.8426
 5982TIP3    H239438   1.455   1.134  15.356 -0.8932 -0.2757 -3.4912
 5983TIP3   OH239439   2.249   4.969  16.590  0.6230 -0.0272 -0.4479
 5983TIP3    H139440   2.161   4.956  16.553  1.2695  0.2600 -2.1834
 5983TIP3    H239441   2.240   4.944  16.682 -0.9307 -1.4622 -0.9302
 5984TIP3   OH239442   0.104   3.545  13.356  0.1133  0.2787  0.4443
 5984TIP3    H139443   0.037   3.608  13.328 -1.2626 -0.2379  2.3698
 5984TIP3    H239444   0.179   3.600  13.380  0.4282  0.8726 -1.6869
 5985TIP3   OH239445   1.081   2.910  10.519 -0.0149 -0.4625  0.1134
 5985TIP3    H139446   1.093   2.824  10.479  1.4729 -1.3059  2.1649
 5985TIP3    H239447   1.006   2.898  10.578 -0.4794 -0.0317 -0.3873
 5986TIP3   OH239448   6.339   5.146   2.079  0.2677 -0.3498  0.1006
 5986TIP3    H139449   6.349   5.237   2.051  3.1352 -0.7503 -0.4982
 5986TIP3    H239450   6.273   5.149   2.148  0.0787  2.1362 -0.0986
 5987TIP3   OH239451   1.132   0.916  12.977 -0.0683 -0.5397  0.4096
 5987TIP3    H139452   1.195   0.849  12.949  0.5859 -0.5636  1.8030
 5987TIP3    H239453   1.052   0.895  12.930  0.5202 -1.4722 -0.2226
 5988TIP3   OH239454   4.306   5.670  13.969  0.4477 -0.3864  0.3943
 5988TIP3    H139455   4.358   5.746  13.942 -1.1219  0.4187 -0.4553
 5988TIP3    H239456   4.239   5.706  14.027 -0.8108 -0.9885 -0.6449
 5989TIP3   OH239457   1.763   0.403   3.474 -0.4820  0.0692  0.3916
 5989TIP3    H139458   1.687   0.345   3.469  0.3251 -0.9419 -1.8072
 5989TIP3    H239459   1.727   0.491   3.467 -1.5128 -0.3518  0.1571
 5990TIP3   OH239460   6.019   4.098   2.677 -0.2329  0.8036 -0.2340
 5990TIP3    H139461   5.976   4.178   2.648  1.4720  1.6679 -0.5188
 5990TIP3    H239462   6.054   4.058   2.597 -0.4835  0.1253 -0.0144
 5991TIP3   OH239463   2.616   1.318   3.889  0.1302  0.1149 -0.4030
 5991TIP3    H139464   2.600   1.224   3.897 -1.6205  0.3438 -0.8769
 5991TIP3    H239465   2.692   1.334   3.945  0.0519 -1.4714  0.2015
 5992TIP3   OH239466   2.430   6.740  13.325  0.2092 -0.0801 -0.0688
 5992TIP3    H139467   2.355   6.767  13.378  0.3667 -0.6336  0.4466
 5992TIP3    H239468   2.401   6.658  13.283  0.3991 -0.1086 -0.1464
 5993TIP3   OH239469   3.204   5.294  11.512  0.1599  0.0943 -0.5098
 5993TIP3    H139470   3.204   5.247  11.595 -0.2386 -0.2539 -0.7026
 5993TIP3    H239471   3.180   5.228  11.447 -0.8609  0.6498 -0.7272
 5994TIP3   OH239472   5.221   5.764   3.850 -0.3496 -0.5033 -0.7994
 5994TIP3    H139473   5.270   5.711   3.912 -4.7927 -1.7216  2.1484
 5994TIP3    H239474   5.216   5.711   3.771 -0.2397 -2.1134  0.2325
 5995TIP3   OH239475   0.173   3.650   4.775 -0.7945  0.1901  0.0629
 5995TIP3    H139476   0.218   3.705   4.711  1.7315 -0.0098  1.5292
 5995TIP3    H239477   0.107   3.708   4.814  0.6544  1.7051  0.3725
 5996TIP3   OH239478   2.066   2.546  12.109 -1.0434 -0.4783  0.3265
 5996TIP3    H139479   2.122   2.616  12.073 -1.1798  0.1346  1.2459
 5996TIP3    H239480   2.046   2.490  12.035 -1.3457  0.7526 -0.5522
 5997TIP3   OH239481   2.764   1.181   4.927  0.6808 -0.2641 -0.5750
 5997TIP3    H139482   2.674   1.170   4.898  0.0913 -0.5203  1.1959
 5997TIP3    H239483   2.791   1.094   4.956  0.6352  0.2438  1.1131
 5998TIP3   OH239484   0.110   2.656  12.268 -0.4801  0.2873  0.0308
 5998TIP3    H139485   0.038   2.597  12.291  0.9824 -1.1665  1.0462
 5998TIP3    H239486   0.141   2.624  12.183 -0.4312  0.3414  0.0283
 5999TIP3   OH239487   1.377   3.412  13.585 -0.2199  0.3636  0.2285
 5999TIP3    H139488   1.336   3.491  13.549  0.6869  0.3944 -0.7974
 5999TIP3    H239489   1.457   3.401  13.534 -0.0995 -0.9757  0.6596
 6000TIP3   OH239490   2.078   3.865  13.728 -0.1118 -0.0356  0.2817
 6000TIP3    H139491   2.101   3.860  13.820 -1.8888  0.1708  0.7806
 6000TIP3    H239492   2.142   3.924  13.689  0.4560  0.1263  1.4440
 6001TIP3   OH239493   2.913   3.629  13.469  0.5774  0.1760 -0.9714
 6001TIP3    H139494   2.837   3.613  13.525  0.7032  0.6395 -0.6640
 6001TIP3    H239495   2.988   3.619  13.527  0.8444 -1.8047 -1.6115
 6002TIP3   OH239496   0.342   5.957  16.159  0.0242 -0.2411  0.1509
 6002TIP3    H139497   0.381   5.894  16.099  0.0425 -1.7957  1.7342
 6002TIP3    H239498   0.258   5.979  16.120  0.8097  0.2280 -1.3615
 6003TIP3   OH239499   5.582   4.592   1.596  0.2848  0.0438  0.2521
 6003TIP3    H139500   5.601   4.680   1.629 -1.2229  0.4176  0.2172
 6003TIP3    H239501   5.643   4.535   1.643  0.8824  1.0325  0.7159
 6004TIP3   OH239502   3.828   1.534   5.428 -0.7647  0.0559 -0.2722
 6004TIP3    H139503   3.904   1.528   5.486 -1.4956  1.0588  0.8225
 6004TIP3    H239504   3.817   1.445   5.394 -0.4780 -0.6228  1.3283
 6005TIP3   OH239505   0.713   6.383   5.440  0.2560 -0.3377 -0.6287
 6005TIP3    H139506   0.764   6.331   5.502 -0.1284 -0.8579 -0.7436
 6005TIP3    H239507   0.625   6.345   5.444 -0.2400  0.8245 -0.1062
 6006TIP3   OH239508   6.053   0.189   0.634 -0.4849 -0.0548 -0.3600
 6006TIP3    H139509   6.022   0.110   0.590 -0.9294  0.8168 -1.6680
 6006TIP3    H239510   6.001   0.260   0.597 -1.7869  0.6331  2.4729
 6007TIP3   OH239511   3.470   6.644   0.441  0.6932 -0.3752 -0.7034
 6007TIP3    H139512   3.467   6.570   0.381 -0.9025 -2.0163  1.2557
 6007TIP3    H239513   3.417   6.712   0.399  1.7144 -0.4943 -2.2627
 6008TIP3   OH239514   1.937   5.466   0.469 -0.1460  0.2516  0.1098
 6008TIP3    H139515   1.957   5.374   0.484 -3.2723 -0.3911  1.3020
 6008TIP3    H239516   2.022   5.510   0.469  1.3842 -2.4773  0.4787
 6009TIP3   OH239517   1.970   4.266   6.647  0.2343 -0.2430  0.3851
 6009TIP3    H139518   2.037   4.313   6.597 -0.4015 -1.3785 -1.6312
 6009TIP3    H239519   1.897   4.327   6.654  0.4339  0.0198  0.1843
 6010TIP3   OH239520   2.252   1.906  12.767 -0.5516 -0.1239  0.3817
 6010TIP3    H139521   2.206   1.906  12.684 -0.1352  2.8809  0.0209
 6010TIP3    H239522   2.204   1.969  12.821  1.6773  1.3613  0.7848
 6011TIP3   OH239523   0.513   6.420   4.502  0.7443 -0.1387 -0.6896
 6011TIP3    H139524   0.589   6.456   4.546 -0.8705  1.7684  0.7361
 6011TIP3    H239525   0.471   6.494   4.459 -1.4374 -0.6492  0.3750
 6012TIP3   OH239526   1.542   3.513   3.689 -0.1922  0.5208 -0.1291
 6012TIP3    H139527   1.449   3.529   3.706 -0.6647 -1.3347 -0.7362
 6012TIP3    H239528   1.544   3.473   3.602  1.0092 -0.8381  0.4794
 6013TIP3   OH239529   5.977   0.433   1.006  0.4295  0.1667 -0.1938
 6013TIP3    H139530   6.032   0.489   1.062  0.0364  0.8497 -0.4716
 6013TIP3    H239531   5.902   0.410   1.061  0.0844  0.7691 -0.4016
 6014TIP3   OH239532   0.907   4.100  14.001  0.2936  0.3086 -0.1358
 6014TIP3    H139533   0.949   4.032  13.948  1.5212  1.0114 -0.0935
 6014TIP3    H239534   0.843   4.052  14.054  0.2277 -0.6317 -1.0206
 6015TIP3   OH239535   4.257   5.308   4.834  0.2264 -0.6576 -0.2713
 6015TIP3    H139536   4.262   5.388   4.887  0.7624 -0.4560 -0.6184
 6015TIP3    H239537   4.240   5.239   4.898  1.3975 -0.4892  0.2596
 6016TIP3   OH239538   0.241   0.008  12.439 -0.7533 -0.2589  0.0626
 6016TIP3    H139539   0.302   0.073  12.404 -1.8778  1.5616  1.2908
 6016TIP3    H239540   0.162   0.059  12.460 -2.0683 -2.2277  0.1167
 6017TIP3   OH239541   1.287   5.953   0.289 -0.3219  0.4855 -0.2273
 6017TIP3    H139542   1.224   5.950   0.217 -0.4519 -0.7309 -0.0836
 6017TIP3    H239543   1.363   5.998   0.252 -0.8926  1.0608 -0.7117
 6018TIP3   OH239544   4.748   5.988  13.384  0.0769  0.1805 -0.2950
 6018TIP3    H139545   4.668   5.936  13.376 -0.3810  0.5909  1.3256
 6018TIP3    H239546   4.739   6.056  13.316 -0.6283 -0.1737 -0.5653
 6019TIP3   OH239547   5.769   3.131  15.659  0.6231  0.3167 -0.1846
 6019TIP3    H139548   5.859   3.164  15.654  1.3833 -1.6429 -0.3653
 6019TIP3    H239549   5.765   3.063  15.592 -1.8161  2.0457 -1.9642
 6020TIP3   OH239550   5.456   3.824   0.347 -0.6001 -0.4607 -0.5083
 6020TIP3    H139551   5.442   3.781   0.263 -1.0770  1.3040 -1.3896
 6020TIP3    H239552   5.373   3.870   0.364  0.4833  1.6379 -0.5931
 6021TIP3   OH239553   6.395   4.607  12.364  0.0700  0.7218  0.0125
 6021TIP3    H139554   6.383   4.538  12.429 -0.2789  0.6471 -0.1284
 6021TIP3    H239555   6.429   4.682  12.413  0.6452  0.3893  0.1353
 6022TIP3   OH239556   0.874   0.974   5.953 -0.9315  0.7753 -0.4433
 6022TIP3    H139557   0.795   0.922   5.968 -0.8432  0.6367 -0.4578
 6022TIP3    H239558   0.898   1.007   6.040 -0.1892 -0.3615 -0.2025
 6023TIP3   OH239559   4.689   2.820  12.101  0.7983 -0.6255  0.0217
 6023TIP3    H139560   4.653   2.908  12.087  1.7172  0.0526  1.5766
 6023TIP3    H239561   4.687   2.779  12.015  0.5361  1.0017 -0.7910
 6024TIP3   OH239562   5.436   4.540   5.658  0.0269 -0.0666 -0.0932
 6024TIP3    H139563   5.485   4.549   5.577  0.7845 -0.4998  0.3091
 6024TIP3    H239564   5.423   4.630   5.688  1.6810  0.0224  0.4434
 6025TIP3   OH239565   5.150   0.423  13.856 -0.5610  0.0416  0.2811
 6025TIP3    H139566   5.094   0.384  13.789  1.3329 -3.3121  0.4256
 6025TIP3    H239567   5.100   0.415  13.937 -0.8908 -0.5618  0.0237
 6026TIP3   OH239568   4.474   4.324  11.743 -0.3436  0.9799 -0.6440
 6026TIP3    H139569   4.543   4.261  11.723 -0.1821  0.7506  0.5948
 6026TIP3    H239570   4.449   4.360  11.657 -0.6562 -0.9685 -1.4062
 6027TIP3   OH239571   2.902   4.746   1.589 -0.1766  0.1287  0.1276
 6027TIP3    H139572   2.822   4.786   1.554 -0.0988 -0.8909 -1.3049
 6027TIP3    H239573   2.973   4.802   1.556 -0.2334  0.5516  0.7030
 6028TIP3   OH239574   4.781   6.108  10.422 -0.3946 -0.0196 -0.1455
 6028TIP3    H139575   4.868   6.147  10.424 -0.5485  0.3602  2.3913
 6028TIP3    H239576   4.727   6.168  10.473 -2.4813  0.4061 -2.6789
 6029TIP3   OH239577   3.405   6.099   6.048 -0.0661  0.0945 -0.3314
 6029TIP3    H139578   3.404   6.169   5.982  0.2143  1.0026  0.5917
 6029TIP3    H239579   3.315   6.095   6.081 -0.7440 -1.8294 -2.2157
 6030TIP3   OH239580   4.979   0.616  15.552 -0.5155 -0.5937 -0.0609
 6030TIP3    H139581   4.950   0.707  15.561  0.2251 -0.3227 -0.3122
 6030TIP3    H239582   4.920   0.579  15.487  0.6163  0.3884 -1.7324
 6031TIP3   OH239583   2.488   1.499   4.085 -0.0996 -0.1099 -0.1588
 6031TIP3    H139584   2.559   1.448   4.046  0.7495  1.8752 -1.4030
 6031TIP3    H239585   2.530   1.549   4.155  0.0587  1.9087 -1.6120
 6032TIP3   OH239586   0.958   2.837  11.696 -0.5835  0.0980 -0.8227
 6032TIP3    H139587   0.926   2.833  11.786 -0.2101 -0.3162 -0.7004
 6032TIP3    H239588   0.914   2.912  11.657  0.6790  1.4540  0.2764
 6033TIP3   OH239589   3.481   6.236  11.348 -0.6769  0.1045  0.4283
 6033TIP3    H139590   3.560   6.273  11.310 -0.4001 -0.6401  0.2671
 6033TIP3    H239591   3.450   6.303  11.410 -0.0234  0.4642  0.3708
 6034TIP3   OH239592   5.229   2.246  15.443  0.1368 -0.4326 -0.3887
 6034TIP3    H139593   5.244   2.294  15.362 -0.1962 -0.8682 -0.7106
 6034TIP3    H239594   5.136   2.257  15.461 -0.0984 -1.5241 -0.8461
 6035TIP3   OH239595   5.626   4.573   5.443 -0.6174  0.1795 -0.5375
 6035TIP3    H139596   5.704   4.523   5.420  0.7355  1.5590  0.8063
 6035TIP3    H239597   5.637   4.656   5.396  0.1962  1.4702  1.7716
 6036TIP3   OH239598   4.592   2.944   5.987 -0.0518  1.2441  0.8052
 6036TIP3    H139599   4.609   2.917   6.077  0.4297 -0.5699  0.2235
 6036TIP3    H239600   4.677   2.937   5.944 -0.4576  1.1815 -0.0081
 6037TIP3   OH239601   2.232   4.733  11.377  0.1688  0.0819  0.2462
 6037TIP3    H139602   2.313   4.712  11.424  0.0726 -1.1351 -0.1043
 6037TIP3    H239603   2.164   4.731  11.444  0.3426  0.5387  0.4390
 6038TIP3   OH239604   0.365   1.931  12.079  0.0198  0.2969 -0.9955
 6038TIP3    H139605   0.298   1.912  12.146  0.3716 -0.6059 -0.8858
 6038TIP3    H239606   0.431   1.863  12.092 -0.0018 -0.0097 -2.4010
 6039TIP3   OH239607   3.764   4.204   5.585 -0.3093  0.1955  0.1057
 6039TIP3    H139608   3.675   4.230   5.608 -0.5967 -0.8397  0.2320
 6039TIP3    H239609   3.800   4.167   5.666 -0.6180 -1.6049 -0.5381
 6040TIP3   OH239610   3.096   3.267  10.565 -0.0901 -0.4397  0.2218
 6040TIP3    H139611   3.016   3.298  10.607  0.0876 -1.0067  0.9983
 6040TIP3    H239612   3.104   3.320  10.486 -0.8116  0.1567  0.5415
 6041TIP3   OH239613   1.497   4.955   2.538  0.1135 -0.0684 -0.8234
 6041TIP3    H139614   1.417   4.913   2.509 -0.4766 -0.5035  1.2775
 6041TIP3    H239615   1.472   5.046   2.554 -0.5784 -0.6259  1.7750
 6042TIP3   OH239616   6.356   5.394   0.049  0.0598 -0.1153  0.9332
 6042TIP3    H139617   6.420   5.390  -0.022 -1.3181 -1.2655 -0.3104
 6042TIP3    H239618   6.401   5.356   0.124  1.6218  1.3402  0.7713
 6043TIP3   OH239619   4.357   4.323  16.403 -0.4826 -0.1168  0.3251
 6043TIP3    H139620   4.368   4.274  16.322 -0.7362  1.1586 -0.5035
 6043TIP3    H239621   4.344   4.256  16.470  0.7332 -1.2243 -0.5075
 6044TIP3   OH239622   1.408   1.491   6.130 -0.1422 -0.0077 -0.1753
 6044TIP3    H139623   1.391   1.401   6.102 -0.0910  0.2653 -1.1124
 6044TIP3    H239624   1.497   1.488   6.165 -0.7588 -0.6808  1.4467
 6045TIP3   OH239625   0.358   4.166  12.459  0.0487 -0.3738  0.0346
 6045TIP3    H139626   0.288   4.132  12.404  1.2222  1.9121 -3.1523
 6045TIP3    H239627   0.320   4.243  12.501  0.3105  0.2769 -0.8944
 6046TIP3   OH239628   2.597   0.423   5.250 -0.6058 -0.5074 -0.0315
 6046TIP3    H139629   2.510   0.408   5.287  0.2500 -0.8513  1.9734
 6046TIP3    H239630   2.638   0.337   5.248 -1.1331 -0.7971 -3.4111
 6047TIP3   OH239631   1.259   1.142   2.273  0.3600  0.1322  0.3999
 6047TIP3    H139632   1.299   1.161   2.359 -0.7657 -0.4143  1.0628
 6047TIP3    H239633   1.181   1.091   2.294 -0.3359  0.6256 -0.9129
 6048TIP3   OH239634   3.410   3.825  12.038  0.2834  0.0492 -0.8322
 6048TIP3    H139635   3.504   3.812  12.053 -0.0829 -0.3973  1.3616
 6048TIP3    H239636   3.403   3.917  12.013  1.4078 -0.2410 -2.4062
 6049TIP3   OH239637   4.172   4.449   3.243 -0.1602 -0.7603  0.1580
 6049TIP3    H139638   4.152   4.409   3.159  1.8281 -0.4970 -0.4972
 6049TIP3    H239639   4.228   4.524   3.221  0.0778 -0.4537  1.6853
 6050TIP3   OH239640   3.451   1.395   0.179 -0.2112  0.1296 -0.0281
 6050TIP3    H139641   3.405   1.413   0.097 -0.4407 -0.5036 -0.0467
 6050TIP3    H239642   3.539   1.429   0.165 -0.5092  0.8407 -0.2023
 6051TIP3   OH239643   3.512   3.853  15.081 -0.1597 -0.0402 -0.4750
 6051TIP3    H139644   3.440   3.794  15.058 -0.9297  0.3082  0.9269
 6051TIP3    H239645   3.469   3.930  15.119  0.9465  0.1506  0.4480
 6052TIP3   OH239646   2.728   6.350   3.928 -0.9217  0.8475 -0.2241
 6052TIP3    H139647   2.659   6.344   3.994  1.5901  0.0518  2.5573
 6052TIP3    H239648   2.682   6.343   3.844 -4.0759 -0.8802  1.4628
 6053TIP3   OH239649   2.950   0.882   3.186  0.1053  0.4282  0.1157
 6053TIP3    H139650   3.019   0.866   3.121 -0.5623  0.9367 -0.7381
 6053TIP3    H239651   2.925   0.973   3.172 -1.4676 -0.0483 -0.2915
 6054TIP3   OH239652   1.867   3.777  12.628 -0.2855 -0.3129 -0.1231
 6054TIP3    H139653   1.778   3.805  12.652 -0.7562 -0.1291 -1.9309
 6054TIP3    H239654   1.862   3.682  12.625 -0.0264 -0.3829  1.1253
 6055TIP3   OH239655   3.934   1.684  11.815  0.1854 -0.2893  0.1445
 6055TIP3    H139656   3.954   1.776  11.797 -0.6762 -0.2579 -0.7047
 6055TIP3    H239657   3.987   1.662  11.891  0.0149  1.0557  0.6596
 6056TIP3   OH239658   6.481   4.909  13.217 -0.0863  0.0081 -0.1131
 6056TIP3    H139659   6.448   4.820  13.206  0.9445 -0.3435 -0.4949
 6056TIP3    H239660   6.464   4.929  13.309 -0.3968 -0.5500 -0.0396
 6057TIP3   OH239661   5.369   6.406   2.726 -0.1938  0.3414  0.1133
 6057TIP3    H139662   5.330   6.492   2.709 -0.8382  0.0343 -0.0270
 6057TIP3    H239663   5.461   6.416   2.703 -0.3776  0.8457 -0.4424
 6058TIP3   OH239664   3.237   6.692   2.246 -0.0554 -0.2769  0.1872
 6058TIP3    H139665   3.215   6.683   2.154  0.8176  0.3652 -0.0911
 6058TIP3    H239666   3.196   6.774   2.273  0.8247  0.2288  0.0142
 6059TIP3   OH239667   4.312   2.113  11.074 -0.4542 -0.1027  0.0761
 6059TIP3    H139668   4.384   2.160  11.032 -0.3668  0.1553  0.5110
 6059TIP3    H239669   4.237   2.126  11.015 -0.2548 -0.0143 -0.1602
 6060TIP3   OH239670   6.257   3.785   4.728  0.1523 -0.0179  0.8329
 6060TIP3    H139671   6.192   3.762   4.794  0.6750  1.8796  2.1022
 6060TIP3    H239672   6.206   3.795   4.647 -0.9995  0.4393  1.5816
 6061TIP3   OH239673   2.970   0.119   2.922  0.2525 -0.7855  0.6176
 6061TIP3    H139674   2.951   0.055   2.992 -1.6867  0.1824  1.0451
 6061TIP3    H239675   3.002   0.066   2.849 -1.7615 -2.3593  0.7825
 6062TIP3   OH239676   3.215   4.472   3.643 -0.4214 -0.1291 -0.5601
 6062TIP3    H139677   3.177   4.384   3.636 -0.3426 -0.2694  0.6544
 6062TIP3    H239678   3.207   4.508   3.554 -1.5159 -0.9210 -0.8136
 6063TIP3   OH239679   3.917   5.168  16.768  0.0356 -0.2588 -0.1925
 6063TIP3    H139680   3.899   5.082  16.730 -0.4883 -0.8588  1.3536
 6063TIP3    H239681   3.953   5.149  16.855 -0.1191  1.0826  0.1838
 6064TIP3   OH239682   6.243   3.787  15.624  0.3911 -0.3494  0.4908
 6064TIP3    H139683   6.250   3.692  15.618  2.6631 -0.1680 -0.5191
 6064TIP3    H239684   6.332   3.818  15.639 -0.4917  1.5667  2.5251
 6065TIP3   OH239685   1.157   1.651   1.621  0.1298  0.4577 -0.1141
 6065TIP3    H139686   1.160   1.577   1.560 -0.0697  0.6038 -0.3031
 6065TIP3    H239687   1.113   1.616   1.699  2.6437 -0.4649  0.9816
 6066TIP3   OH239688   5.302   5.115  15.540 -0.2006  0.4170 -0.2656
 6066TIP3    H139689   5.308   5.195  15.488  1.5580  0.5720  0.1088
 6066TIP3    H239690   5.384   5.069  15.523  0.6483  0.6466  2.5865
 6067TIP3   OH239691   3.405   1.905   1.053 -0.3013  0.3146 -0.0914
 6067TIP3    H139692   3.489   1.909   1.008 -0.2877  3.6867 -0.0145
 6067TIP3    H239693   3.419   1.952   1.135 -1.3963 -2.1646  1.6111
 6068TIP3   OH239694   4.381   3.604  12.478 -0.0158  0.1229 -0.0861
 6068TIP3    H139695   4.289   3.588  12.460  0.1198 -0.4286 -0.3091
 6068TIP3    H239696   4.403   3.681  12.425 -1.2347  2.5680  2.6687
 6069TIP3   OH239697   4.265   6.193  15.365 -0.9162 -0.1566  0.6022
 6069TIP3    H139698   4.343   6.238  15.332 -1.7963  1.2494  0.3702
 6069TIP3    H239699   4.244   6.238  15.447 -1.6633 -0.3076  0.5011
 6070TIP3   OH239700   3.234   1.610   2.936 -0.1347  0.4120 -0.2773
 6070TIP3    H139701   3.157   1.573   2.981  0.4571 -0.2794  0.1831
 6070TIP3    H239702   3.292   1.638   3.007  0.9210 -0.9095 -0.5746
 6071TIP3   OH239703   3.747   3.602   4.304  0.1976  0.2772  0.0810
 6071TIP3    H139704   3.842   3.614   4.304  0.2048  0.2327 -0.1729
 6071TIP3    H239705   3.734   3.512   4.276  0.0965  0.1239  0.6247
 6072TIP3   OH239706   0.829   2.992  10.926  0.2031 -0.3495  1.0496
 6072TIP3    H139707   0.740   3.010  10.958 -0.1906 -0.9873  0.3728
 6072TIP3    H239708   0.816   2.968  10.834  1.2763  1.3423  0.4099
 6073TIP3   OH239709   6.093   6.423  14.905  0.3076  0.4614 -0.3084
 6073TIP3    H139710   6.100   6.406  14.999  0.4697 -0.2737 -0.4443
 6073TIP3    H239711   6.000   6.412  14.886  0.1788  1.2051 -0.1309
 6074TIP3   OH239712   4.978   4.547  13.458  0.3622  0.4005  0.1743
 6074TIP3    H139713   5.017   4.471  13.502  0.1376  0.6271  0.7742
 6074TIP3    H239714   5.046   4.615  13.462  0.0473  0.6763  0.8873
 6075TIP3   OH239715   2.669   3.652  15.555 -0.1492 -0.2700 -0.3351
 6075TIP3    H139716   2.673   3.703  15.474 -2.0387  0.7282  0.1444
 6075TIP3    H239717   2.638   3.715  15.621 -4.2658 -2.2623 -0.0492
 6076TIP3   OH239718   4.809   0.134  15.344  0.0794 -0.4630  0.0337
 6076TIP3    H139719   4.839   0.127  15.253  0.8254  1.2310  0.1088
 6076TIP3    H239720   4.763   0.218  15.348 -0.4893 -0.8095  1.0785
 6077TIP3   OH239721   6.226   6.463  12.371 -0.0095 -0.3904 -0.2987
 6077TIP3    H139722   6.151   6.408  12.395  0.0251 -0.7027 -0.8977
 6077TIP3    H239723   6.232   6.527  12.442  0.5866 -1.7812  0.9705
 6078TIP3   OH239724   1.763   5.956   4.053  0.0192 -0.1466  0.5922
 6078TIP3    H139725   1.774   5.888   4.120  2.0616  0.4417  0.9179
 6078TIP3    H239726   1.678   5.937   4.013 -0.3205 -1.7306  1.9665
 6079TIP3   OH239727   3.917   3.553  14.638 -0.1200  0.5893 -0.4142
 6079TIP3    H139728   3.835   3.603  14.643 -1.9237 -2.1918  0.2928
 6079TIP3    H239729   3.892   3.464  14.665  3.1712 -0.3842 -0.1864
 6080TIP3   OH239730   5.597   0.889  14.873  0.0802  0.2911 -0.1278
 6080TIP3    H139731   5.551   0.880  14.790  0.7675 -2.5997 -0.2791
 6080TIP3    H239732   5.631   0.979  14.872 -0.1080  0.3978 -2.8570
 6081TIP3   OH239733   6.512   3.366  13.239  0.1999 -0.0639  0.3358
 6081TIP3    H139734   6.545   3.437  13.295 -1.4960  0.1212  1.1655
 6081TIP3    H239735   6.489   3.410  13.157  1.3437 -0.0851 -0.0138
 6082TIP3   OH239736   1.878   6.776  12.384  0.2079 -0.5983 -0.4620
 6082TIP3    H139737   1.948   6.804  12.442  0.1052  1.2376 -1.1700
 6082TIP3    H239738   1.827   6.715  12.436  1.1233 -0.3605  0.7665
 6083TIP3   OH239739   4.618   3.124   0.829 -0.6398 -0.3457  0.5468
 6083TIP3    H139740   4.706   3.087   0.838 -0.3828  0.1665  0.1958
 6083TIP3    H239741   4.620   3.202   0.884 -0.1294  0.9416 -1.2130
 6084TIP3   OH239742   5.075   4.728   0.045 -0.7715 -0.0180 -0.1103
 6084TIP3    H139743   5.094   4.804   0.100 -1.2605  0.4462 -0.5694
 6084TIP3    H239744   4.981   4.733   0.028 -0.5547  0.1228 -1.3724
 6085TIP3   OH239745   6.254   2.230  14.883 -0.2047  0.0248 -0.3297
 6085TIP3    H139746   6.229   2.319  14.909  1.0508  0.5855 -0.9395
 6085TIP3    H239747   6.323   2.205  14.943 -0.5622 -0.5597 -0.1516
 6086TIP3   OH239748   0.929   6.047  16.172 -0.5064  0.5617  0.3189
 6086TIP3    H139749   0.902   5.980  16.109 -0.8203 -0.1838  1.2121
 6086TIP3    H239750   1.023   6.031  16.184 -0.9575 -1.1630  2.1133
 6087TIP3   OH239751   4.780   3.783   3.054  0.2246  0.0963 -0.2170
 6087TIP3    H139752   4.852   3.807   2.997  2.4042 -1.1561  1.8129
 6087TIP3    H239753   4.722   3.730   3.000  0.9942  0.8159 -1.8013
 6088TIP3   OH239754   0.316   4.668   4.524  0.6748 -0.5375 -0.1727
 6088TIP3    H139755   0.319   4.574   4.503 -0.1169 -0.4654 -0.6186
 6088TIP3    H239756   0.267   4.707   4.452 -0.0735  0.0438  0.6452
 6089TIP3   OH239757   1.794   6.013  14.408 -0.1007  0.6176 -0.6446
 6089TIP3    H139758   1.775   5.958  14.484 -2.0818 -0.5395 -1.8534
 6089TIP3    H239759   1.886   5.996  14.388 -0.5942 -2.3984 -0.9422
 6090TIP3   OH239760   1.705   0.213   3.689 -0.8288  0.3951 -0.1835
 6090TIP3    H139761   1.795   0.203   3.657 -0.9215  0.4839 -0.4664
 6090TIP3    H239762   1.650   0.196   3.613 -1.1375 -2.1534  0.5106
 6091TIP3   OH239763   5.031   4.517   6.577  0.0434  0.6964  0.1343
 6091TIP3    H139764   5.051   4.464   6.499  1.1657  2.4899 -0.8624
 6091TIP3    H239765   5.079   4.474   6.648  0.0889 -0.2015 -0.4205
 6092TIP3   OH239766   4.038   4.708  11.830  0.4083  0.1322  0.5652
 6092TIP3    H139767   3.953   4.663  11.832  1.1162 -1.3915 -0.6589
 6092TIP3    H239768   4.019   4.794  11.793 -0.6236 -0.1616  0.3804
 6093TIP3   OH239769   2.373   2.135  12.107 -0.6492  0.2513  0.1077
 6093TIP3    H139770   2.386   2.227  12.085 -2.4325  0.7712  1.0651
 6093TIP3    H239771   2.363   2.134  12.202 -0.6281 -0.9311  0.1082
 6094TIP3   OH239772   1.615   3.903  12.477  0.5299  0.2761  0.3174
 6094TIP3    H139773   1.692   3.959  12.462 -0.4301  1.4877 -0.2297
 6094TIP3    H239774   1.556   3.925  12.405 -0.8409  0.2690  1.4173
 6095TIP3   OH239775   1.605   6.186  10.455 -0.2754  0.1200  0.0337
 6095TIP3    H139776   1.627   6.118  10.391 -0.7880  0.6888 -0.7693
 6095TIP3    H239777   1.633   6.268  10.414 -0.0215  0.4410  0.8246
 6096TIP3   OH239778   5.555   1.089  12.869 -0.0649  0.0497 -0.5553
 6096TIP3    H139779   5.571   1.159  12.806  1.1456 -0.4048 -0.7869
 6096TIP3    H239780   5.608   1.112  12.946  0.1687 -0.4810 -0.5479
 6097TIP3   OH239781   4.118   6.274   6.053 -0.0951  0.2766 -0.0860
 6097TIP3    H139782   4.100   6.252   6.145 -1.0266  0.1767 -0.2861
 6097TIP3    H239783   4.162   6.196   6.018  1.3407  0.7599  0.5695
 6098TIP3   OH239784   0.183   3.084   2.183  0.2372 -0.0907 -0.5657
 6098TIP3    H139785   0.173   3.029   2.105  0.2136 -0.5613 -0.2339
 6098TIP3    H239786   0.155   3.028   2.256 -0.0227  0.4433 -0.2502
 6099TIP3   OH239787   4.723   2.787   1.584  0.0955 -0.0442  0.2599
 6099TIP3    H139788   4.756   2.717   1.640  1.1707  0.5324  0.3789
 6099TIP3    H239789   4.748   2.760   1.495  1.2972  0.5709  0.3830
 6100TIP3   OH239790   1.350   6.506   2.333  0.0937  0.4380 -0.1382
 6100TIP3    H139791   1.418   6.488   2.267 -0.2649  1.2093 -0.7338
 6100TIP3    H239792   1.318   6.420   2.359  1.4102  0.0457  0.2746
 6101TIP3   OH239793   3.088   0.379  17.035  0.0557 -0.0189  0.6327
 6101TIP3    H139794   3.164   0.349  17.085 -0.1061 -0.3260  0.6916
 6101TIP3    H239795   3.059   0.302  16.987 -0.1712  0.1194  0.5471
 6102TIP3   OH239796   4.145   6.475   3.761 -0.3053  0.0769  0.5852
 6102TIP3    H139797   4.153   6.383   3.736  0.6335 -0.1027  1.4743
 6102TIP3    H239798   4.177   6.478   3.851  1.5802  1.5912 -0.0635
 6103TIP3   OH239799   3.687   2.787  16.000  0.3616 -0.8025 -0.0311
 6103TIP3    H139800   3.757   2.773  16.063  0.7450 -2.1920 -0.7311
 6103TIP3    H239801   3.620   2.723  16.023 -0.8344  0.6654  0.7792
 6104TIP3   OH239802   6.520   4.147   2.219  0.2321  0.5075 -0.8986
 6104TIP3    H139803   6.523   4.235   2.256  0.5096 -0.2908  1.0939
 6104TIP3    H239804   6.610   4.131   2.189  0.1066  0.9982 -1.5655
 6105TIP3   OH239805   3.827   4.880  14.996 -0.5867 -0.3511  0.6187
 6105TIP3    H139806   3.911   4.851  15.032 -0.5566  0.0768  0.8941
 6105TIP3    H239807   3.825   4.974  15.011 -1.6182 -0.5129  1.6708
 6106TIP3   OH239808   2.049   5.618  15.367  0.1308  0.1317 -0.1539
 6106TIP3    H139809   1.969   5.663  15.394  0.6097  0.3009  1.0414
 6106TIP3    H239810   2.118   5.656  15.423  0.8449 -0.8192 -0.3644
 6107TIP3   OH239811   0.828   2.824   2.913 -0.3017 -0.2388 -0.0892
 6107TIP3    H139812   0.860   2.734   2.913  0.0006 -0.1392 -0.6744
 6107TIP3    H239813   0.865   2.863   2.833 -0.4704  0.3872  0.1276
 6108TIP3   OH239814   6.524   0.694   5.545  0.1530  0.5206  0.0146
 6108TIP3    H139815   6.465   0.726   5.614 -0.6273 -4.2866  1.9813
 6108TIP3    H239816   6.607   0.678   5.591  1.2097  1.7223 -1.3931
 6109TIP3   OH239817   2.704   4.478  14.423 -0.0696 -0.1666  0.3629
 6109TIP3    H139818   2.687   4.392  14.462  0.8993 -0.5159  0.0324
 6109TIP3    H239819   2.656   4.539  14.479  0.2062 -0.8011  1.3067
 6110TIP3   OH239820   1.347   5.310   2.085 -0.2045 -0.2636 -0.4019
 6110TIP3    H139821   1.403   5.250   2.135 -1.9692 -1.2603  0.4969
 6110TIP3    H239822   1.362   5.396   2.124  1.9061 -0.1675 -1.2967
 6111TIP3   OH239823   2.655   2.756   5.446  0.1624  0.6759 -1.0956
 6111TIP3    H139824   2.706   2.791   5.520 -0.4067 -2.1005  0.7840
 6111TIP3    H239825   2.721   2.735   5.380  1.1094  0.2131 -0.0403
 6112TIP3   OH239826   2.321   5.822  12.409 -0.3826 -0.0196  0.1022
 6112TIP3    H139827   2.364   5.768  12.476  1.8582 -0.7341 -1.7815
 6112TIP3    H239828   2.264   5.762  12.362 -0.6963  0.1051  0.3202
 6113TIP3   OH239829   1.928   2.315  15.133 -0.1688 -0.2553  0.2202
 6113TIP3    H139830   1.930   2.230  15.089 -1.6683  0.0296 -0.4668
 6113TIP3    H239831   1.846   2.315  15.183  0.6566  0.1182  1.6215
 6114TIP3   OH239832   0.056   3.201   0.419 -0.0616 -0.1550 -0.3924
 6114TIP3    H139833   0.087   3.188   0.508 -0.2148  1.0201 -0.1519
 6114TIP3    H239834   0.114   3.146   0.365  2.6188  2.0242  0.0208
 6115TIP3   OH239835   2.964   5.682   6.115  0.0065 -0.1196 -0.0824
 6115TIP3    H139836   3.022   5.623   6.067  0.6612  0.2121  0.2912
 6115TIP3    H239837   3.008   5.697   6.198 -1.3914 -1.1495  0.8863
 6116TIP3   OH239838   3.377   1.272   3.397 -0.0978 -0.2668 -0.3002
 6116TIP3    H139839   3.456   1.230   3.363  0.7273  1.2526 -0.3068
 6116TIP3    H239840   3.319   1.279   3.321 -0.9202 -2.7264 -0.0147
 6117TIP3   OH239841   3.487   6.282  12.728 -0.7304 -0.4638 -0.2718
 6117TIP3    H139842   3.434   6.362  12.730 -1.2129 -0.7891  0.3860
 6117TIP3    H239843   3.569   6.305  12.772  0.1655  0.3624 -2.2837
 6118TIP3   OH239844   4.442   2.701  12.444  0.0018  0.1989 -0.1163
 6118TIP3    H139845   4.506   2.771  12.436  1.1260 -0.6985  0.6564
 6118TIP3    H239846   4.394   2.721  12.524 -0.1684  0.4586 -0.2813
 6119TIP3   OH239847   3.445   5.309   5.819  0.0550  0.1398  0.1799
 6119TIP3    H139848   3.365   5.290   5.869 -0.8610  0.9976 -0.9268
 6119TIP3    H239849   3.514   5.312   5.886 -0.2766 -3.3647  0.8821
 6120TIP3   OH239850   1.463   6.262  16.203  0.6170 -0.3238  0.0974
 6120TIP3    H139851   1.430   6.326  16.266  1.9869  0.4285  0.0907
 6120TIP3    H239852   1.515   6.201  16.256  3.0484  1.1703 -0.3980
 6121TIP3   OH239853   4.790   4.062   3.598 -0.5209 -0.1122 -0.2723
 6121TIP3    H139854   4.862   4.123   3.584  0.5690 -1.3008  0.0210
 6121TIP3    H239855   4.737   4.103   3.667 -0.8851  1.3914 -1.3927
 6122TIP3   OH239856   3.187   3.171  12.673  0.4558  0.1036  0.3908
 6122TIP3    H139857   3.254   3.237  12.653  0.4029 -0.0748 -0.4177
 6122TIP3    H239858   3.190   3.111  12.599 -0.3917 -0.0737  0.4894
 6123TIP3   OH239859   2.497   0.010  16.246  0.1385 -0.5621  0.2260
 6123TIP3    H139860   2.512   0.100  16.217  0.4974 -0.8000 -0.3270
 6123TIP3    H239861   2.426   0.018  16.310 -2.9732 -0.3637 -2.9594
 6124TIP3   OH239862   6.277   4.472  13.429  0.2548  0.0046 -1.0293
 6124TIP3    H139863   6.301   4.517  13.347 -2.5531 -1.4338 -2.7785
 6124TIP3    H239864   6.337   4.398  13.433  2.3836  1.6686 -0.1201
 6125TIP3   OH239865   4.319   6.130  13.215 -0.0035 -0.0997  0.1439
 6125TIP3    H139866   4.301   6.036  13.222 -1.6386  0.1738 -0.0370
 6125TIP3    H239867   4.234   6.172  13.230  0.2845  1.2676 -1.7046
 6126TIP3   OH239868   1.456   6.626  11.126  0.2913 -0.1212 -0.2638
 6126TIP3    H139869   1.374   6.660  11.090  1.2201  1.9652 -0.5626
 6126TIP3    H239870   1.431   6.545  11.170 -1.6148 -0.4715 -1.8595
 6127TIP3   OH239871   1.388   3.682  16.578 -0.0659 -0.1737 -0.1686
 6127TIP3    H139872   1.331   3.627  16.524 -0.7401 -0.7098  1.0555
 6127TIP3    H239873   1.446   3.726  16.515  0.8097 -2.6129 -1.1757
 6128TIP3   OH239874   4.517   2.231  14.188 -0.2707 -0.1088 -0.7705
 6128TIP3    H139875   4.487   2.150  14.147  0.3548 -1.0545  0.5916
 6128TIP3    H239876   4.604   2.210  14.223  0.4407  1.5099 -1.4512
 6129TIP3   OH239877   4.046   1.482  15.099 -0.2322  0.1256 -0.2608
 6129TIP3    H139878   4.020   1.561  15.146 -0.6445 -0.1773  0.0240
 6129TIP3    H239879   4.112   1.512  15.036 -1.0892  0.8665 -0.8256
 6130TIP3   OH239880   5.410   1.584  16.748  0.3449 -0.3479 -0.0465
 6130TIP3    H139881   5.341   1.649  16.763  0.8951  0.4200 -0.7271
 6130TIP3    H239882   5.468   1.594  16.823 -0.5000 -1.3190  0.7693
 6131TIP3   OH239883   4.808   0.440  16.711  0.4031 -0.9456 -0.5731
 6131TIP3    H139884   4.809   0.478  16.624  0.3272 -0.5077 -0.3820
 6131TIP3    H239885   4.839   0.350  16.698  3.8584  0.1200 -0.5686
 6132TIP3   OH239886   2.205   4.900   4.577 -0.4349 -0.4384 -0.3809
 6132TIP3    H139887   2.262   4.969   4.545 -1.2356  0.3000 -0.2381
 6132TIP3    H239888   2.117   4.929   4.555 -0.7463 -1.8214 -1.1031
 6133TIP3   OH239889   2.526   1.078  15.482  0.1097 -0.3185  0.4909
 6133TIP3    H139890   2.566   1.020  15.547  0.5875 -2.3200 -1.4762
 6133TIP3    H239891   2.592   1.087  15.413 -1.2422 -0.2560 -0.8541
 6134TIP3   OH239892   6.719   2.552   4.233 -0.6458 -0.2763  0.3660
 6134TIP3    H139893   6.788   2.488   4.246  0.4480  1.4751  4.9593
 6134TIP3    H239894   6.695   2.581   4.321 -2.4758  4.1369 -1.2756
 6135TIP3   OH239895   0.649   6.676  11.882 -0.0190 -0.2784  0.1530
 6135TIP3    H139896   0.567   6.660  11.929  0.2998 -0.2658  0.7185
 6135TIP3    H239897   0.702   6.729  11.942  0.6228 -0.7614  0.0259
 6136TIP3   OH239898   0.550   4.064   5.246 -0.3156  0.7774 -0.6173
 6136TIP3    H139899   0.603   4.143   5.258  0.1025  0.3778  0.2313
 6136TIP3    H239900   0.527   4.036   5.334  1.2989 -1.2069 -0.7342
 6137TIP3   OH239901   2.541   0.405   4.963 -0.7169  0.6461 -0.1062
 6137TIP3    H139902   2.595   0.327   4.954  1.3884  1.9013  0.7464
 6137TIP3    H239903   2.451   0.373   4.970  0.1187 -1.6886  0.5659
 6138TIP3   OH239904   2.589   1.369   2.741 -0.0556 -0.5890  0.8268
 6138TIP3    H139905   2.618   1.338   2.656  0.3541 -0.2480  0.8380
 6138TIP3    H239906   2.501   1.333   2.751 -0.0716 -0.7039  0.3010
 6139TIP3   OH239907   5.923   2.963  14.710  0.1009 -0.3253 -0.2330
 6139TIP3    H139908   5.850   3.011  14.748  0.1925 -1.3129  1.2745
 6139TIP3    H239909   5.904   2.960  14.616 -0.8223  1.0367 -0.1089
 6140TIP3   OH239910   0.202   3.202  16.206  0.2416  0.7362 -0.1300
 6140TIP3    H139911   0.128   3.259  16.224 -1.6535 -2.1961  2.5245
 6140TIP3    H239912   0.269   3.228  16.270 -1.4436 -1.1625  2.6137
 6141TIP3   OH239913   0.451   1.754   6.528 -0.5703  0.5724  0.0852
 6141TIP3    H139914   0.360   1.740   6.556 -0.0050 -1.1676  1.1514
 6141TIP3    H239915   0.497   1.780   6.607 -0.0125  0.9811 -0.3602
 6142TIP3   OH239916   4.629   5.575  12.421  0.0884 -0.0083 -0.1039
 6142TIP3    H139917   4.592   5.498  12.378  0.3214  0.0221 -0.3666
 6142TIP3    H239918   4.692   5.541  12.484 -1.3776 -0.1286  1.3617
 6143TIP3   OH239919   2.654   5.385  17.169 -0.0693 -0.5630 -0.4779
 6143TIP3    H139920   2.600   5.432  17.232  0.5780 -0.1741 -0.2071
 6143TIP3    H239921   2.597   5.372  17.093 -0.3842  0.2837 -0.3892
 6144TIP3   OH239922   0.442   0.708  15.132  0.3119 -0.2546  0.0462
 6144TIP3    H139923   0.386   0.728  15.057  0.3168 -0.6413 -0.0626
 6144TIP3    H239924   0.520   0.761  15.119 -0.3488  0.8909  0.6079
 6145TIP3   OH239925   2.569   0.636  13.696  0.2680  0.2916  0.3521
 6145TIP3    H139926   2.573   0.554  13.647  1.5468 -0.3674  1.4711
 6145TIP3    H239927   2.476   0.649  13.715 -0.1896  0.2833 -1.7201
 6146TIP3   OH239928   1.465   4.988  13.359  0.7806  0.2292 -0.5589
 6146TIP3    H139929   1.416   5.068  13.338 -1.1004  0.1461  2.8375
 6146TIP3    H239930   1.540   5.018  13.410  0.0678 -0.1105  0.7291
 6147TIP3   OH239931   3.962   1.238  15.133 -0.2556 -0.0792 -0.2913
 6147TIP3    H139932   4.002   1.323  15.119 -1.4295  0.4882 -0.3269
 6147TIP3    H239933   3.976   1.219  15.226  1.5373 -0.6807 -0.6454
 6148TIP3   OH239934   0.491   0.367   4.194  0.3649 -0.1374  0.1232
 6148TIP3    H139935   0.437   0.393   4.120  0.6434  2.1416  0.6423
 6148TIP3    H239936   0.580   0.387   4.168  0.5592 -0.2004  0.7140
 6149TIP3   OH239937   1.396   1.285  12.755  0.3285  0.0715  0.1700
 6149TIP3    H139938   1.327   1.286  12.688  0.6863  1.0898 -0.2050
 6149TIP3    H239939   1.462   1.346  12.722 -1.2357  3.8437  3.2551
 6150TIP3   OH239940   5.900   6.368   4.389 -0.2001 -0.2211 -0.1467
 6150TIP3    H139941   5.974   6.396   4.335  0.0386 -0.5627  0.0018
 6150TIP3    H239942   5.897   6.431   4.460 -0.7226  0.4296 -0.7375
 6151TIP3   OH239943   2.178   3.814   4.363 -0.3076 -0.0411  0.1457
 6151TIP3    H139944   2.151   3.738   4.313 -0.2407  0.5814 -0.8661
 6151TIP3    H239945   2.122   3.814   4.441 -1.5637 -0.1057 -0.7349
 6152TIP3   OH239946   5.594   1.732   1.697  0.1380  0.4214 -0.1075
 6152TIP3    H139947   5.621   1.651   1.653 -0.8540 -0.5632  0.9945
 6152TIP3    H239948   5.578   1.794   1.626 -1.7217 -1.2061 -1.2137
 6153TIP3   OH239949   5.497   1.033  13.726 -0.0793  0.0854  0.4942
 6153TIP3    H139950   5.457   0.996  13.647  2.9288  0.7147 -1.4940
 6153TIP3    H239951   5.540   0.959  13.768  2.9352  0.4826 -1.5668
 6154TIP3   OH239952   0.200   5.325   5.049  0.3063 -0.2183  0.3494
 6154TIP3    H139953   0.125   5.269   5.030 -2.2055  2.5063  1.4870
 6154TIP3    H239954   0.214   5.375   4.968 -0.1483  0.3525  0.6155
 6155TIP3   OH239955   0.957   6.751   1.768  0.3554  0.1125  0.1187
 6155TIP3    H139956   1.040   6.799   1.764 -0.0035  0.7141 -0.1692
 6155TIP3    H239957   0.973   6.672   1.716  0.6776  0.3324 -0.1207
 6156TIP3   OH239958   6.138   6.341   2.736  0.1798 -0.4788 -0.5911
 6156TIP3    H139959   6.181   6.362   2.819  0.1852 -1.1189 -0.4288
 6156TIP3    H239960   6.167   6.410   2.676 -1.7426  1.4427  0.5590
 6157TIP3   OH239961   5.102   3.845  11.227  0.4920 -0.0088 -0.6905
 6157TIP3    H139962   5.125   3.766  11.177 -0.6260 -1.2390  0.6593
 6157TIP3    H239963   5.174   3.855  11.289  0.1548 -0.5848 -0.1921
 6158TIP3   OH239964   4.633   0.994   2.342 -0.2122  0.2389  0.9235
 6158TIP3    H139965   4.554   0.950   2.375 -0.4049 -1.4072 -1.4492
 6158TIP3    H239966   4.700   0.973   2.406  0.0229 -4.8549 -0.5346
 6159TIP3   OH239967   4.795   4.755  13.528 -0.7515  0.8643 -0.2924
 6159TIP3    H139968   4.872   4.710  13.564 -1.5120 -0.9038 -0.7519
 6159TIP3    H239969   4.738   4.769  13.603 -0.4790  1.1203 -0.1319
 6160TIP3   OH239970   2.444   6.697   6.155 -0.2888  0.2557  0.3691
 6160TIP3    H139971   2.453   6.755   6.230 -1.0525 -1.3200  1.7450
 6160TIP3    H239972   2.408   6.616   6.191 -0.1066 -0.7774 -1.6090
 6161TIP3   OH239973   6.059   0.928   1.226 -0.1144  0.1740  0.7134
 6161TIP3    H139974   6.150   0.956   1.214  0.5662 -1.7687  0.9506
 6161TIP3    H239975   6.037   0.957   1.315  0.0550  1.1706  0.4438
 6162TIP3   OH239976   1.482   0.377  13.912 -0.3687  0.1267  0.1412
 6162TIP3    H139977   1.427   0.301  13.928 -1.0978  0.3144 -1.2738
 6162TIP3    H239978   1.566   0.341  13.886 -0.3191 -0.1832  0.7312
 6163TIP3   OH239979   0.768   4.804  11.128  0.0549 -0.1111  0.4006
 6163TIP3    H139980   0.754   4.721  11.082  1.5006 -1.0407  1.5345
 6163TIP3    H239981   0.700   4.806  11.195  0.6479 -0.9285  1.0524
 6164TIP3   OH239982   4.876   2.533  10.446 -0.1642 -0.3648  0.0549
 6164TIP3    H139983   4.863   2.585  10.366 -3.1041 -4.4478 -2.5001
 6164TIP3    H239984   4.792   2.539  10.492  0.7022 -0.0113  1.6858
 6165TIP3   OH239985   6.839   1.703  14.960 -0.4050 -0.1241  0.0055
 6165TIP3    H139986   6.818   1.772  15.023 -1.2421  1.4814 -1.9290
 6165TIP3    H239987   6.798   1.625  14.997 -0.3372  0.5998  1.7380
 6166TIP3   OH239988   2.427   2.137   5.778 -0.7957 -0.4118 -0.1685
 6166TIP3    H139989   2.352   2.155   5.836  0.0102  0.7351  0.5501
 6166TIP3    H239990   2.496   2.193   5.811  1.4702 -3.7099  1.2788
 6167TIP3   OH239991   0.608   3.266  15.607 -0.4566 -0.8793  0.5165
 6167TIP3    H139992   0.668   3.301  15.674  3.1289  1.0028 -3.1743
 6167TIP3    H239993   0.659   3.197  15.565 -1.9494 -0.9951 -1.1667
 6168TIP3   OH239994   6.241   0.866  13.761 -0.5417 -0.1841  0.1908
 6168TIP3    H139995   6.314   0.817  13.797  1.2582  1.1575 -1.4258
 6168TIP3    H239996   6.251   0.954  13.796 -1.1531  0.1221 -0.3717
 6169TIP3   OH239997   5.190   2.814   2.854  0.2414 -0.1106  0.0841
 6169TIP3    H139998   5.238   2.731   2.849 -1.0518 -0.9187  0.5884
 6169TIP3    H239999   5.105   2.794   2.814 -0.6099  0.5759  1.5075
 6170TIP3   OH240000   3.286   1.035   6.428 -0.1694  0.0350  0.2042
 6170TIP3    H140001   3.222   1.106   6.435  0.3870  0.5513  0.0598
 6170TIP3    H240002   3.263   0.990   6.347 -0.9741 -0.4087  0.6587
 6171TIP3   OH240003   1.761   1.025   0.858 -0.7764  0.0778  0.0447
 6171TIP3    H140004   1.809   1.080   0.797 -0.2637  0.7295  1.0059
 6171TIP3    H240005   1.703   1.086   0.904 -1.1318 -0.3946  0.2251
 6172TIP3   OH240006   1.939   0.789  12.590 -0.1160  0.0587 -0.3699
 6172TIP3    H140007   1.950   0.808  12.683 -2.6406 -0.6404  0.1443
 6172TIP3    H240008   1.847   0.765  12.581  0.0363  0.1778 -3.0825
 6173TIP3   OH240009   4.084   1.945   1.145  0.6717 -0.2518 -0.3823
 6173TIP3    H140010   4.166   1.921   1.102  0.3867  2.1150 -2.4113
 6173TIP3    H240011   4.080   2.041   1.138 -1.3899 -0.1403  1.3343
 6174TIP3   OH240012   2.511   4.420   0.238 -0.1177  0.3065 -0.5253
 6174TIP3    H140013   2.449   4.446   0.306 -1.7327  0.2871 -1.9217
 6174TIP3    H240014   2.459   4.369   0.176  1.1942  0.6348 -1.9694
 6175TIP3   OH240015   5.270   3.368   4.053 -0.6234  0.1603 -0.2161
 6175TIP3    H140016   5.233   3.451   4.023  1.7375  1.2886 -0.2382
 6175TIP3    H240017   5.344   3.352   3.994  1.0425 -0.1642  1.8388
 6176TIP3   OH240018   6.091   4.728  11.663 -0.1786  0.1721  0.0499
 6176TIP3    H140019   6.176   4.692  11.690  0.2303  0.8188 -0.3416
 6176TIP3    H240020   6.027   4.667  11.699  0.4926 -1.2995 -1.1157
 6177TIP3   OH240021   3.299   1.669  13.358  0.2034  0.0047 -0.0479
 6177TIP3    H140022   3.223   1.651  13.413 -0.8966  0.9178 -1.1925
 6177TIP3    H240023   3.368   1.614  13.393 -1.1919 -1.4323  0.5781
 6178TIP3   OH240024   3.985   4.482  11.221 -0.4547  0.0516 -0.2384
 6178TIP3    H140025   3.908   4.517  11.177  0.4046  0.4322 -1.4740
 6178TIP3    H240026   4.059   4.522  11.177  0.4604  0.6145  1.6931
 6179TIP3   OH240027   0.279   1.083  17.045 -0.0122  0.2061 -0.9394
 6179TIP3    H140028   0.209   1.056  16.985  0.6129 -0.6609 -1.2942
 6179TIP3    H240029   0.318   1.001  17.076 -0.5745  0.6104  0.9966
 6180TIP3   OH240030   2.155   5.481  14.220  0.1030 -0.0925 -0.2281
 6180TIP3    H140031   2.089   5.548  14.236 -0.8064 -0.7887 -0.9400
 6180TIP3    H240032   2.106   5.407  14.185  1.0371 -1.2564  0.8310
 6181TIP3   OH240033   5.178   2.597  14.333  0.3655  0.3912  0.5804
 6181TIP3    H140034   5.237   2.672  14.345  0.4388  0.3400  0.5376
 6181TIP3    H240035   5.115   2.605  14.404  0.4716  0.4020  0.6733
 6182TIP3   OH240036   3.942   5.380   5.533  0.1061  0.5310  0.5324
 6182TIP3    H140037   3.847   5.385   5.525 -0.0837 -1.3941  1.0951
 6182TIP3    H240038   3.957   5.320   5.605  1.7036 -2.2464 -1.9086
 6183TIP3   OH240039   1.014   4.968  16.204 -0.8161  0.0496 -0.1492
 6183TIP3    H140040   1.068   4.985  16.126  0.0260 -2.8932 -0.3240
 6183TIP3    H240041   0.929   4.943  16.169 -0.8598  0.0947 -0.0737
 6184TIP3   OH240042   3.916   3.316  15.899  0.3212  0.1722 -0.1053
 6184TIP3    H140043   4.007   3.327  15.927  0.6322 -2.2420  0.1132
 6184TIP3    H240044   3.918   3.326  15.804  0.9734 -0.5774 -0.1805
 6185TIP3   OH240045   5.135   2.546  17.070  0.0050 -0.6230 -0.0459
 6185TIP3    H140046   5.102   2.635  17.063 -0.4288 -0.7909 -0.1917
 6185TIP3    H240047   5.073   2.502  17.128 -0.7231 -1.2649 -1.2761
 6186TIP3   OH240048   5.384   6.049   4.420  0.1258 -1.1297 -0.3546
 6186TIP3    H140049   5.321   5.986   4.384 -1.7554 -0.2432  1.1889
 6186TIP3    H240050   5.380   6.124   4.360 -0.3680 -1.0427 -0.2164
 6187TIP3   OH240051   6.452   5.950  14.399  0.1656  0.6765 -0.3539
 6187TIP3    H140052   6.524   5.922  14.343 -1.2837  0.0215 -1.9835
 6187TIP3    H240053   6.487   6.025  14.448  2.2993 -0.3719 -0.1747
 6188TIP3   OH240054   0.843   5.834   4.669 -0.0121  0.3432  0.2253
 6188TIP3    H140055   0.805   5.903   4.724 -0.2459 -0.9706  1.7709
 6188TIP3    H240056   0.778   5.765   4.667  0.0334  0.2813 -1.6710
 6189TIP3   OH240057   0.636   3.805   2.938 -0.0186 -0.5427  0.6984
 6189TIP3    H140058   0.580   3.856   2.996  0.3041  1.2140 -0.4547
 6189TIP3    H240059   0.724   3.842   2.950  0.1575 -0.5528 -0.4365
 6190TIP3   OH240060   4.150   5.839   2.272 -0.2419  0.2979  0.3205
 6190TIP3    H140061   4.170   5.860   2.364 -0.8992 -1.0438  0.8041
 6190TIP3    H240062   4.054   5.830   2.271 -0.2085  0.0037 -0.4432
 6191TIP3   OH240063   3.452   6.343  10.914 -0.9449  0.6798  0.5009
 6191TIP3    H140064   3.420   6.277  10.852  0.7492 -1.0247  1.3355
 6191TIP3    H240065   3.491   6.411  10.859  0.5080 -0.7870 -0.3742
 6192TIP3   OH240066   3.274   0.133  10.046 -0.0795  0.0431 -0.4399
 6192TIP3    H140067   3.258   0.162   9.957 -0.5744  1.5274  0.0911
 6192TIP3    H240068   3.363   0.098  10.045  0.7861  2.0785 -1.0910
 6193TIP3   OH240069   6.054   4.001   3.341 -0.3806  0.3946 -0.3918
 6193TIP3    H140070   6.038   3.958   3.257  1.1772 -1.0275 -0.0108
 6193TIP3    H240071   6.075   3.929   3.401 -1.7984  1.3263  1.3318
 6194TIP3   OH240072   5.350   0.116   1.739 -0.0670 -0.1227  0.3551
 6194TIP3    H140073   5.257   0.103   1.761 -0.5911  0.3434 -1.4685
 6194TIP3    H240074   5.388   0.150   1.820 -1.6624  0.4549  0.9182
 6195TIP3   OH240075   1.209   2.852  14.964 -0.2677  0.3234 -0.0585
 6195TIP3    H140076   1.121   2.886  14.946 -0.4101  0.4746  0.8564
 6195TIP3    H240077   1.251   2.921  15.015  0.3174  0.1702 -0.3335
 6196TIP3   OH240078   4.172   2.572   1.221  0.4000  0.0044 -0.2451
 6196TIP3    H140079   4.267   2.561   1.233  0.2973 -0.8409 -0.1422
 6196TIP3    H240080   4.164   2.641   1.155  1.0920 -0.0181 -0.3620
 6197TIP3   OH240081   5.358   2.364  14.115 -0.1764 -0.5007 -0.0573
 6197TIP3    H140082   5.357   2.425  14.189  0.5075 -0.1293 -0.3472
 6197TIP3    H240083   5.447   2.368  14.082 -0.1955 -1.4765 -0.2457
 6198TIP3   OH240084   0.027   0.182   1.583 -0.0218 -0.6123 -0.2941
 6198TIP3    H140085  -0.061   0.145   1.570 -0.4100  0.5475 -1.1395
 6198TIP3    H240086   0.045   0.228   1.502  1.1122 -0.2949  0.1288
 6199TIP3   OH240087   0.604   2.901  14.222  0.2111  0.3141  0.6978
 6199TIP3    H140088   0.649   2.839  14.279  0.1439 -1.3034 -0.9298
 6199TIP3    H240089   0.625   2.987  14.258  2.1016 -0.5392  1.7418
 6200TIP3   OH240090   0.253   0.992   2.481 -0.1727 -0.3070 -0.3589
 6200TIP3    H140091   0.218   0.919   2.429 -0.8476 -0.4991  0.3536
 6200TIP3    H240092   0.193   1.064   2.464 -0.9286 -0.6296  0.8459
 6201TIP3   OH240093   4.560   4.566   0.655 -0.2521 -0.1954 -0.5741
 6201TIP3    H140094   4.606   4.483   0.666  0.1792  0.1380  0.1996
 6201TIP3    H240095   4.531   4.565   0.564  2.0055 -0.0448 -1.3478
 6202TIP3   OH240096   5.982   5.938   1.093 -0.3959 -0.4023  0.0604
 6202TIP3    H140097   5.939   5.854   1.107 -1.8784  0.4022  0.5798
 6202TIP3    H240098   5.910   5.998   1.073  0.5207  0.9340  0.6717
 6203TIP3   OH240099   1.017   4.755  16.931  0.0926  0.1462 -0.0556
 6203TIP3    H140100   0.929   4.790  16.924  0.8155  1.8215 -1.7250
 6203TIP3    H240101   1.038   4.724  16.842  1.1966 -0.1963  0.3075
 6204TIP3   OH240102   6.465   2.117  15.740  0.4846 -0.7251 -0.0401
 6204TIP3    H140103   6.505   2.033  15.761  0.6491 -0.4007  0.9796
 6204TIP3    H240104   6.382   2.117  15.789 -0.8103 -1.3782 -2.0981
 6205TIP3   OH240105   2.182   6.361   4.017  0.4982 -0.1459  0.1468
 6205TIP3    H140106   2.119   6.292   3.995  0.6137 -0.6705  1.3782
 6205TIP3    H240107   2.131   6.428   4.061  0.3748  0.6199 -1.1101
 6206TIP3   OH240108   3.193   5.578  17.070 -0.4640 -0.2391 -0.1498
 6206TIP3    H140109   3.245   5.602  17.146  1.4625 -0.1990 -1.4162
 6206TIP3    H240110   3.220   5.488  17.050 -1.4020 -0.4706 -0.4213
 6207TIP3   OH240111   5.616   6.232   3.044 -0.0575 -0.0469 -0.4878
 6207TIP3    H140112   5.616   6.167   3.114  0.5709  0.0831 -0.3625
 6207TIP3    H240113   5.563   6.304   3.077  1.2323  0.5465  0.3652
 6208TIP3   OH240114   3.847   4.586  11.484 -0.3413 -0.2852 -0.2107
 6208TIP3    H140115   3.913   4.517  11.492  1.2926  1.2689  0.4206
 6208TIP3    H240116   3.836   4.619  11.574  0.1655  1.3780 -0.7353
 6209TIP3   OH240117   5.751   3.189  17.032 -0.0086  0.1613  0.0201
 6209TIP3    H140118   5.660   3.187  17.062 -0.3399 -0.7885 -0.9780
 6209TIP3    H240119   5.745   3.207  16.938  0.7497 -1.0131 -0.2755
 6210TIP3   OH240120   5.094   3.660   0.772 -0.1305  0.1070 -0.5395
 6210TIP3    H140121   5.143   3.661   0.689  1.8340  0.5683  0.5551
 6210TIP3    H240122   5.032   3.732   0.765  1.9021  1.9589 -0.6126
 6211TIP3   OH240123   0.806   4.974  14.868 -0.1262  0.0186 -0.1194
 6211TIP3    H140124   0.867   4.986  14.941  0.6930 -0.9558 -0.6234
 6211TIP3    H240125   0.721   4.997  14.905  0.3493  0.0795  0.9918
 6212TIP3   OH240126   1.590   6.597   6.196  0.2090  0.0468  0.2097
 6212TIP3    H140127   1.500   6.570   6.175  0.3505 -0.2561 -0.0257
 6212TIP3    H240128   1.594   6.596   6.291  0.3098 -1.1356  0.2091
 6213TIP3   OH240129   5.095   6.538  11.717  0.9166 -1.1972 -0.2373
 6213TIP3    H140130   5.101   6.546  11.622  0.4520  0.0604 -0.1853
 6213TIP3    H240131   5.111   6.627  11.750 -1.5573 -0.9867  0.6929
 6214TIP3   OH240132   3.835   5.122  14.196  0.3090 -0.2036  0.1026
 6214TIP3    H140133   3.743   5.094  14.201 -0.0088  0.9394  1.4335
 6214TIP3    H240134   3.830   5.217  14.186  1.3456 -0.1447  0.0964
 6215TIP3   OH240135   5.294   0.577   4.595  0.1052 -0.0660  0.0148
 6215TIP3    H140136   5.339   0.541   4.518 -0.7800  0.0687 -0.5811
 6215TIP3    H240137   5.278   0.501   4.651 -0.3133 -0.3499 -0.4892
 6216TIP3   OH240138   4.507   4.552  16.673 -0.0382 -0.0513  0.2728
 6216TIP3    H140139   4.584   4.496  16.674  0.1095 -0.0319 -2.6724
 6216TIP3    H240140   4.442   4.505  16.726  1.1372 -1.3771  0.5792
 6217TIP3   OH240141   5.233   6.206  16.420 -0.3148  0.7723 -0.1308
 6217TIP3    H140142   5.312   6.181  16.469 -0.9995  0.7400  1.0014
 6217TIP3    H240143   5.226   6.301  16.434 -0.8861  0.6555  0.4182
 6218TIP3   OH240144   2.082   4.421  16.094 -0.2108  0.8290  0.2594
 6218TIP3    H140145   2.002   4.380  16.125 -0.0989  0.3849 -0.0219
 6218TIP3    H240146   2.152   4.372  16.137 -0.0921  1.2596  0.5613
 6219TIP3   OH240147   5.825   3.658   0.722 -0.0543 -0.2977 -0.2328
 6219TIP3    H140148   5.766   3.717   0.676  0.2269  1.0060  1.0021
 6219TIP3    H240149   5.801   3.667   0.814  1.5069 -0.3541  0.2140
 6220TIP3   OH240150   5.748   4.867  16.535 -0.4131  0.2487  0.0026
 6220TIP3    H140151   5.704   4.809  16.597  0.3769 -0.6852 -0.2874
 6220TIP3    H240152   5.726   4.832  16.449  1.1161 -0.4628 -0.1493
 6221TIP3   OH240153   2.919   3.054  16.804  0.1737  0.0101  0.3515
 6221TIP3    H140154   2.993   3.023  16.751  0.9830 -0.7975  1.8769
 6221TIP3    H240155   2.841   3.024  16.757  0.7611  1.4113 -1.6205
 6222TIP3   OH240156   3.894   5.531  13.589 -0.1230  0.4563 -0.3082
 6222TIP3    H140157   3.983   5.501  13.609 -0.6186 -0.9291 -0.0911
 6222TIP3    H240158   3.877   5.600  13.654  1.1489  1.4932 -1.0144
 6223TIP3   OH240159   4.483   3.181  14.880 -1.1004  0.1054 -0.3663
 6223TIP3    H140160   4.513   3.146  14.964 -2.2018  1.3226  0.5812
 6223TIP3    H240161   4.557   3.232  14.847 -0.1328 -1.5600 -0.8926
 6224TIP3   OH240162   3.160   0.247   4.392  0.9393 -0.0929  0.2060
 6224TIP3    H140163   3.205   0.204   4.319 -0.6856  1.0315 -1.5303
 6224TIP3    H240164   3.211   0.326   4.409  0.7897  0.1466 -0.4112
 6225TIP3   OH240165   3.252   4.577   5.851  0.2826  0.0155  0.4249
 6225TIP3    H140166   3.257   4.672   5.847  2.9174 -0.0532  0.3091
 6225TIP3    H240167   3.271   4.556   5.942  0.4000 -0.4171  0.3032
 6226TIP3   OH240168   6.181   1.359   2.129 -0.1324 -0.2260  0.0715
 6226TIP3    H140169   6.093   1.350   2.167  0.5315 -0.9170  1.5158
 6226TIP3    H240170   6.179   1.445   2.085 -0.0367  2.2654  4.3560
 6227TIP3   OH240171   3.771   6.044   5.433 -0.0151 -0.2149  0.1118
 6227TIP3    H140172   3.680   6.029   5.457 -0.0431  0.4427  0.4371
 6227TIP3    H240173   3.767   6.086   5.348 -0.0150 -0.2425  0.0984
 6228TIP3   OH240174   5.338   0.226  14.109  0.2963  0.2813 -0.2012
 6228TIP3    H140175   5.384   0.156  14.064  0.7756 -0.0853  0.8143
 6228TIP3    H240176   5.387   0.306  14.089  1.2061 -0.0557  0.5975
 6229TIP3   OH240177   6.578   5.549   0.445  0.0424 -0.3288  0.1757
 6229TIP3    H140178   6.520   5.620   0.418  2.0680  0.9934 -0.9072
 6229TIP3    H240179   6.536   5.514   0.524 -0.6182  2.6558  1.3040
 6230TIP3   OH240180   0.609   1.318   2.449 -0.2283 -0.0119 -0.0804
 6230TIP3    H140181   0.662   1.365   2.513 -1.2729  0.5432  0.3912
 6230TIP3    H240182   0.649   1.339   2.364  1.2389 -0.8564  0.3766
 6231TIP3   OH240183   2.611   1.281   0.769  0.1803  0.1610  0.2379
 6231TIP3    H140184   2.647   1.285   0.858  1.7411 -0.0385 -0.3579
 6231TIP3    H240185   2.541   1.215   0.775 -0.3695  0.8144  1.5045
 6232TIP3   OH240186   3.519   6.296   3.080  0.1663  0.3152  0.7215
 6232TIP3    H140187   3.602   6.251   3.094 -0.7523 -1.0161  2.2377
 6232TIP3    H240188   3.472   6.242   3.017  0.0707  0.5728  0.5664
 6233TIP3   OH240189   5.367   6.605   1.600 -0.4231 -0.5269 -0.1813
 6233TIP3    H140190   5.375   6.694   1.564 -0.7540 -0.4980 -0.1836
 6233TIP3    H240191   5.294   6.610   1.662  0.3073 -0.5169  0.6871
 6234TIP3   OH240192   6.565   3.766  15.321  0.2688 -0.1354  0.7697
 6234TIP3    H140193   6.654   3.779  15.354  0.9983 -0.1949 -1.0592
 6234TIP3    H240194   6.561   3.673  15.299 -0.3373 -0.1863  1.0725
 6235TIP3   OH240195   5.068   2.589   0.705  0.2862  0.6476 -0.0876
 6235TIP3    H140196   4.977   2.565   0.719 -0.4786  3.5527  0.7347
 6235TIP3    H240197   5.067   2.645   0.628  0.9141  2.5609  1.1919
 6236TIP3   OH240198   1.324   3.952  12.763  0.2199 -0.2356  0.0384
 6236TIP3    H140199   1.256   3.887  12.748 -0.4236  0.6426 -0.9383
 6236TIP3    H240200   1.300   4.026  12.707 -0.6822  2.0566  3.1861
 6237TIP3   OH240201   4.455   4.546   4.541  0.3705  0.2452 -0.0229
 6237TIP3    H140202   4.507   4.581   4.468  0.2014 -0.2061 -0.3629
 6237TIP3    H240203   4.521   4.521   4.606  0.6388 -0.9476 -0.7245
 6238TIP3   OH240204   1.310   4.481  16.965  0.3151 -0.1758  0.0211
 6238TIP3    H140205   1.342   4.484  17.055  0.7464 -0.3587 -0.1280
 6238TIP3    H240206   1.319   4.571  16.933  0.1028 -0.0969  0.1764
 6239TIP3   OH240207   1.240   5.132   2.365 -0.0228 -0.2673  0.1401
 6239TIP3    H140208   1.290   5.169   2.438 -1.1971  0.8109  0.4454
 6239TIP3    H240209   1.304   5.086   2.312  0.9767 -0.4547  1.4695
 6240TIP3   OH240210   4.739   5.504  15.765 -0.3598 -0.3961  0.4021
 6240TIP3    H140211   4.732   5.529  15.857  0.7164 -0.0637  0.4054
 6240TIP3    H240212   4.791   5.574  15.724  0.2833 -1.1826 -0.1805
 6241TIP3   OH240213   2.175   5.332  12.266  0.3828 -0.6050  0.1042
 6241TIP3    H140214   2.204   5.321  12.176 -1.5278 -0.5409 -0.5741
 6241TIP3    H240215   2.223   5.265  12.315 -0.2658 -2.2422 -1.3835
 6242TIP3   OH240216   2.406   2.509   4.296 -0.8306  0.4030 -0.0141
 6242TIP3    H140217   2.395   2.450   4.222  1.0946  0.6971 -0.5971
 6242TIP3    H240218   2.501   2.520   4.304 -0.9417  0.0449  2.7843
 6243TIP3   OH240219   0.507   2.581   4.410 -0.6550 -1.1173 -0.1479
 6243TIP3    H140220   0.548   2.599   4.325 -0.0682 -1.0477  0.1430
 6243TIP3    H240221   0.543   2.496   4.436 -1.7356 -1.6993 -0.5043
 6244TIP3   OH240222   6.396   5.252  12.938 -0.1625  0.4700 -0.1749
 6244TIP3    H140223   6.356   5.254  13.025 -0.8354 -2.0388 -0.3456
 6244TIP3    H240224   6.324   5.275  12.879 -1.0429 -2.3154 -0.3419
 6245TIP3   OH240225   4.068   1.866  17.070 -0.4996 -0.1813 -0.0776
 6245TIP3    H140226   4.071   1.839  17.162  1.7256  0.8153  0.1914
 6245TIP3    H240227   4.080   1.961  17.072 -1.0207 -0.0646 -1.3871
 6246TIP3   OH240228   4.865   6.605  16.282  0.0784 -0.8274 -0.3945
 6246TIP3    H140229   4.800   6.552  16.235 -2.3867  1.0890  0.6017
 6246TIP3    H240230   4.872   6.685  16.230  3.1897 -1.6834 -1.4941
 6247TIP3   OH240231   3.132   5.463  12.167 -0.1189 -0.0762 -0.7044
 6247TIP3    H140232   3.084   5.431  12.091  0.5593  0.4440 -1.3660
 6247TIP3    H240233   3.068   5.515  12.216 -0.0953  1.1465 -1.9163
 6248TIP3   OH240234   3.749   0.167  11.964  0.6548 -0.3082 -0.5393
 6248TIP3    H140235   3.841   0.149  11.945  1.2659  0.0622  1.7217
 6248TIP3    H240236   3.734   0.125  12.049 -0.8566  0.8040 -0.2170
 6249TIP3   OH240237   0.135   2.975   1.249  0.0593 -0.0588 -0.2693
 6249TIP3    H140238   0.228   2.997   1.247 -0.1516  1.5347  2.5838
 6249TIP3    H240239   0.094   3.037   1.188  0.6670  0.3905 -0.2248
 6250TIP3   OH240240   0.524   4.990  16.426  0.0770 -0.5196 -0.4601
 6250TIP3    H140241   0.583   5.060  16.400 -0.7627 -0.3393 -2.0050
 6250TIP3    H240242   0.536   4.982  16.520  2.6237 -0.5660 -0.7190
 6251TIP3   OH240243   0.333   2.334  11.145 -0.1182  0.7249 -0.5573
 6251TIP3    H140244   0.280   2.277  11.091 -1.2332 -0.2191  1.4047
 6251TIP3    H240245   0.381   2.275  11.203  0.2775  1.7082  0.1558
 6252TIP3   OH240246   3.828   0.348   3.472  0.0668 -0.3647 -0.1943
 6252TIP3    H140247   3.787   0.280   3.526  0.5532  0.8527  1.7952
 6252TIP3    H240248   3.919   0.322   3.466 -0.1773 -1.0210 -1.3207
 6253TIP3   OH240249   4.655   1.968  10.713  0.2527  0.2130  0.0761
 6253TIP3    H140250   4.618   2.031  10.652 -1.0214 -0.3399  0.2495
 6253TIP3    H240251   4.710   1.911  10.659  0.4727  0.7519 -0.2702
 6254TIP3   OH240252   6.370   0.502   5.236 -0.3711  0.1616  0.8957
 6254TIP3    H140253   6.438   0.568   5.247  0.0712 -0.3549  1.2440
 6254TIP3    H240254   6.389   0.460   5.152 -2.5906  2.7311 -1.0961
 6255TIP3   OH240255   3.780   0.849   2.739  0.0553  0.2707  0.1440
 6255TIP3    H140256   3.846   0.918   2.741  0.1013  0.2325 -0.0691
 6255TIP3    H240257   3.714   0.877   2.802 -0.6665  1.2368 -0.9935
 6256TIP3   OH240258   6.790   3.580  12.876 -0.1341 -0.3283  0.1295
 6256TIP3    H140259   6.768   3.530  12.954 -1.1953  0.5380  0.4125
 6256TIP3    H240260   6.862   3.531  12.835  0.1577 -1.0129  1.4159
 6257TIP3   OH240261   2.577   6.351  13.781 -0.3806 -0.0795  0.0807
 6257TIP3    H140262   2.493   6.368  13.822 -0.8009 -2.3071  0.2563
 6257TIP3    H240263   2.638   6.412  13.823 -1.6700  0.7991  0.7235
 6258TIP3   OH240264   4.701   4.346  11.156 -0.0898  0.6134  0.1446
 6258TIP3    H140265   4.671   4.430  11.192 -2.8042 -0.5796  0.9244
 6258TIP3    H240266   4.715   4.363  11.063  2.1941  2.5670  0.7634
 6259TIP3   OH240267   6.617   0.247  11.824  0.6021 -0.5404 -0.6414
 6259TIP3    H140268   6.542   0.188  11.816 -0.4242  0.9034 -2.5073
 6259TIP3    H240269   6.587   0.315  11.885  0.4835 -0.1142 -1.1701
 6260TIP3   OH240270   3.509   2.111  12.799  0.3238  0.1925 -0.2061
 6260TIP3    H140271   3.476   2.158  12.875 -0.8542  2.3793 -1.9264
 6260TIP3    H240272   3.442   2.046  12.779  0.3597  0.0035  0.2959
 6261TIP3   OH240273   1.245   0.324   2.743  0.5013 -0.1306  0.3052
 6261TIP3    H140274   1.300   0.269   2.799 -3.6086 -2.6050  2.3890
 6261TIP3    H240275   1.268   0.413   2.769  2.9887 -0.9897  1.4610
 6262TIP3   OH240276   6.080   0.398  12.009 -0.4582 -0.0485  0.4641
 6262TIP3    H140277   6.128   0.440  12.080 -0.1582  0.6271 -0.1215
 6262TIP3    H240278   6.145   0.384  11.940 -1.1599  1.4058 -0.5646
 6263TIP3   OH240279   4.305   4.497  16.024 -0.4654 -0.5961 -0.0320
 6263TIP3    H140280   4.233   4.549  15.989  0.2160  0.7444  0.4497
 6263TIP3    H240281   4.292   4.498  16.119  1.0169  1.0584  0.2142
 6264TIP3   OH240282   4.329   6.434  15.803  0.6832  0.1469 -0.4596
 6264TIP3    H140283   4.390   6.367  15.772  0.4142 -0.5920  0.5583
 6264TIP3    H240284   4.385   6.504  15.837  0.9917 -0.5309  0.4772
 6265TIP3   OH240285   0.999   4.783  12.128  0.0058  0.4494 -0.0904
 6265TIP3    H140286   0.908   4.755  12.120 -0.2838  1.3675 -0.1056
 6265TIP3    H240287   1.008   4.813  12.218  0.0504  1.1507 -0.3167
 6266TIP3   OH240288   6.471   6.566   4.288  0.2078  0.2685 -0.5041
 6266TIP3    H140289   6.401   6.631   4.278 -0.3690 -0.4128 -0.9432
 6266TIP3    H240290   6.529   6.605   4.354 -0.5160  0.9027 -0.2118
 6267TIP3   OH240291   4.186   0.069  16.670  0.8737 -0.1508 -0.1631
 6267TIP3    H140292   4.141   0.045  16.588 -0.5172  0.4228  0.3991
 6267TIP3    H240293   4.167  -0.004  16.730 -2.5778  1.6948  1.2540
 6268TIP3   OH240294   0.650   4.429   1.022 -0.1630 -0.1307  0.4436
 6268TIP3    H140295   0.563   4.464   1.040  0.3607  1.3325  0.2835
 6268TIP3    H240296   0.649   4.408   0.929 -0.1348  0.5410  0.2886
 6269TIP3   OH240297   3.637   6.265   3.859  0.2755 -0.0834 -0.1873
 6269TIP3    H140298   3.665   6.309   3.939  1.0172  0.2053 -0.5960
 6269TIP3    H240299   3.604   6.336   3.803  1.0544 -0.1009 -0.6744
 6270TIP3   OH240300   0.904   6.826   3.399  0.0866 -0.1238 -0.2121
 6270TIP3    H140301   0.858   6.767   3.340 -1.5564 -0.7254  1.5340
 6270TIP3    H240302   0.953   6.768   3.457  0.9557  0.3970 -0.4198
 6271TIP3   OH240303   5.910   6.048  14.995  0.0500  0.5249  0.0666
 6271TIP3    H140304   5.844   5.980  14.978 -1.3351  1.0284  2.9373
 6271TIP3    H240305   5.869   6.129  14.965  0.2977  0.5676 -0.1660
 6272TIP3   OH240306   5.954   1.374  16.279  0.7171 -0.3946 -0.2883
 6272TIP3    H140307   6.000   1.410  16.204 -0.8204 -0.8505 -1.5255
 6272TIP3    H240308   5.890   1.314  16.240 -2.6673  2.0566  1.0421
 6273TIP3   OH240309   5.579   3.768  14.436  0.7631  0.1078  0.3968
 6273TIP3    H140310   5.656   3.710  14.443 -0.2003 -1.2162  0.3612
 6273TIP3    H240311   5.525   3.728  14.368  0.0232  1.0122  0.4424
 6274TIP3   OH240312   3.125   2.297   6.000  0.5362 -0.1361 -0.4442
 6274TIP3    H140313   3.040   2.317   5.959  0.9623 -0.3237 -1.4336
 6274TIP3    H240314   3.131   2.359   6.073 -0.7008 -0.4922 -0.0093
 6275TIP3   OH240315   5.869   3.514  16.969  0.2570 -0.0350  0.4295
 6275TIP3    H140316   5.957   3.494  17.001  0.5532  0.6347  0.0424
 6275TIP3    H240317   5.811   3.467  17.029  0.8979 -1.1400  0.2054
 6276TIP3   OH240318   5.255   6.008   0.328 -0.1347 -0.6371  0.2891
 6276TIP3    H140319   5.278   5.949   0.256  0.1300 -1.6024  1.1474
 6276TIP3    H240320   5.164   5.987   0.348  0.1773 -1.2807  1.0739
 6277TIP3   OH240321   1.801   1.928   0.514  0.2306  0.4348 -0.0148
 6277TIP3    H140322   1.741   1.986   0.468  1.4923 -0.4112 -2.9427
 6277TIP3    H240323   1.886   1.972   0.509  0.4480  0.2736  1.5597
 6278TIP3   OH240324   0.390   1.418  11.838 -0.1315 -0.6206 -0.0116
 6278TIP3    H140325   0.391   1.322  11.846 -1.3924 -0.6728 -0.2182
 6278TIP3    H240326   0.461   1.447  11.895 -0.1714 -1.6520  0.6098
 6279TIP3   OH240327   3.823   3.457   5.368  0.2790  0.2697 -0.1367
 6279TIP3    H140328   3.806   3.467   5.462 -2.3337 -0.6548 -0.4494
 6279TIP3    H240329   3.810   3.544   5.332  1.3092  0.6328  0.3211
 6280TIP3   OH240330   3.073   4.836   3.009 -0.4619 -0.7050  0.3110
 6280TIP3    H140331   3.014   4.872   3.075 -0.0482 -0.3787  0.5030
 6280TIP3    H240332   3.103   4.753   3.047  0.2591 -0.2258  0.8137
 6281TIP3   OH240333   4.998   2.045  14.372 -0.1719  0.3644 -0.6145
 6281TIP3    H140334   5.007   1.951  14.360 -0.3294  0.5816 -3.0289
 6281TIP3    H240335   5.079   2.082  14.337  0.1301  1.1442  0.7982
 6282TIP3   OH240336   5.031   3.056   2.776 -0.6129  0.2847  0.2472
 6282TIP3    H140337   5.078   2.982   2.816 -2.1916 -0.8422  0.1197
 6282TIP3    H240338   5.059   3.055   2.685 -1.4485 -0.8921 -0.0206
 6283TIP3   OH240339   6.793   3.325  11.027 -0.0478  0.2364 -0.1580
 6283TIP3    H140340   6.863   3.297  10.967 -2.0552 -1.7325 -1.7396
 6283TIP3    H240341   6.755   3.402  10.985 -1.2086 -0.9211 -1.3194
 6284TIP3   OH240342   4.088   4.456  13.962  0.8925  0.3305 -0.3962
 6284TIP3    H140343   4.049   4.431  14.046 -0.1261  0.6630 -0.7529
 6284TIP3    H240344   4.062   4.387  13.902  1.0758  0.4291 -0.5904
 6285TIP3   OH240345   6.089   0.240   4.034  0.5015  0.0801  0.3704
 6285TIP3    H140346   6.149   0.166   4.038 -1.0574 -1.3726 -1.3405
 6285TIP3    H240347   6.077   0.257   3.941 -1.5104  0.4548  0.6433
 6286TIP3   OH240348   6.314   4.275  14.871  0.9429 -0.2753 -1.0522
 6286TIP3    H140349   6.254   4.286  14.797 -0.5620  0.8666  0.2576
 6286TIP3    H240350   6.282   4.196  14.916  0.6308  0.1118 -0.5756
 6287TIP3   OH240351   6.007   2.429   3.035  0.1469  0.1414 -0.3495
 6287TIP3    H140352   6.066   2.483   2.983 -0.1844  0.1439 -0.7272
 6287TIP3    H240353   5.982   2.485   3.108  0.0229  0.4050 -0.5915
 6288TIP3   OH240354   5.764   0.681   1.793 -0.1487  0.3071 -0.2978
 6288TIP3    H140355   5.735   0.607   1.739 -1.4929  0.2062  0.5143
 6288TIP3    H240356   5.684   0.730   1.811  0.4269  0.8810  0.7683
 6289TIP3   OH240357   5.519   0.251  15.869  0.4683 -0.0410  0.2023
 6289TIP3    H140358   5.496   0.299  15.948  1.0352  1.4577 -0.5124
 6289TIP3    H240359   5.575   0.311  15.819  0.1657 -0.9613 -1.3129
 6290TIP3   OH240360   3.936   4.747   4.739  0.2679 -0.1848 -0.0080
 6290TIP3    H140361   3.888   4.779   4.662 -0.0183  0.7105  0.5255
 6290TIP3    H240362   4.023   4.784   4.730  0.7285 -1.3691 -0.6959
 6291TIP3   OH240363   2.195   4.993  11.327 -0.0200 -0.3812  0.5495
 6291TIP3    H140364   2.203   4.989  11.232 -0.8883 -0.1884  0.4598
 6291TIP3    H240365   2.212   4.903  11.356 -0.8447 -0.6867  0.1143
 6292TIP3   OH240366   1.665   0.540   0.007 -0.2889 -0.2045 -0.4600
 6292TIP3    H140367   1.680   0.544  -0.088  1.2809  0.5993 -0.1943
 6292TIP3    H240368   1.628   0.625   0.029  1.0910  0.3049 -0.0721
 6293TIP3   OH240369   3.339   2.492  14.292 -0.4483 -0.2747  0.2491
 6293TIP3    H140370   3.423   2.472  14.251 -0.6378 -1.3608  0.3727
 6293TIP3    H240371   3.335   2.588  14.293  1.5791 -0.1494  1.8611
 6294TIP3   OH240372   1.988   4.513  11.529  0.2308  0.0294 -0.3426
 6294TIP3    H140373   1.946   4.447  11.585  2.8944 -2.7620 -1.3352
 6294TIP3    H240374   2.035   4.570  11.590 -0.4067 -0.2723  0.4462
 6295TIP3   OH240375   5.501   6.378  11.577  0.6092 -0.2276 -0.4706
 6295TIP3    H140376   5.547   6.455  11.612 -3.9436  1.6237  2.3086
 6295TIP3    H240377   5.513   6.311  11.645  1.2768 -0.6566 -0.9991
 6296TIP3   OH240378   6.334   5.504  11.910  0.1081  0.3010  0.0709
 6296TIP3    H140379   6.420   5.509  11.867  0.4342 -1.2054  0.4767
 6296TIP3    H240380   6.354   5.480  12.001 -0.6934  1.1394  0.4887
 6297TIP3   OH240381   2.296   5.019   5.099  0.2100  0.1334 -0.4167
 6297TIP3    H140382   2.301   4.987   5.008  0.7571  2.1669 -1.1595
 6297TIP3    H240383   2.374   5.074   5.108 -2.3830  4.2028 -0.4776
 6298TIP3   OH240384   1.769   5.947   6.096  0.2160  0.1562  0.0842
 6298TIP3    H140385   1.794   6.007   6.166 -0.9626 -0.4665  1.0955
 6298TIP3    H240386   1.734   5.871   6.142 -3.0380  0.7673 -1.1118
 6299TIP3   OH240387   6.194   2.377   3.414 -0.4959  0.5705  0.1894
 6299TIP3    H140388   6.210   2.329   3.495  1.3204 -1.2923 -1.1601
 6299TIP3    H240389   6.267   2.438   3.408  0.0344 -0.1166 -0.5716
 6300TIP3   OH240390   6.408   2.726   1.103 -0.6586  0.1695  0.0755
 6300TIP3    H140391   6.369   2.803   1.060  1.0857  1.3443  0.4696
 6300TIP3    H240392   6.396   2.655   1.040 -3.9178  0.2592  0.4410
 6301TIP3   OH240393   3.633   2.772   2.039  0.4427  0.3398  0.2536
 6301TIP3    H140394   3.556   2.720   2.017  1.9923 -1.4046 -1.5085
 6301TIP3    H240395   3.648   2.827   1.962 -0.1714  2.2094  1.4100
 6302TIP3   OH240396   0.280   6.596   3.074  0.8319  0.2893 -0.5081
 6302TIP3    H140397   0.198   6.568   3.033  0.1905 -0.1916  1.0131
 6302TIP3    H240398   0.347   6.575   3.010  0.0866 -2.2162 -0.5868
 6303TIP3   OH240399   4.925   1.113  10.482  0.3230 -0.4415 -0.0632
 6303TIP3    H140400   4.874   1.061  10.543  2.2116  0.0352  2.0604
 6303TIP3    H240401   4.875   1.194  10.471 -0.3369 -0.7891  0.3383
 6304TIP3   OH240402   6.491   3.885  15.082  0.3004 -0.2515  0.2199
 6304TIP3    H140403   6.474   3.825  15.155  0.0191  2.1300  2.2516
 6304TIP3    H240404   6.582   3.869  15.058  0.6229 -0.6131  1.5948
 6305TIP3   OH240405   3.964   4.670   4.343  0.2249  0.0422 -0.1576
 6305TIP3    H140406   4.001   4.591   4.305  1.8233  0.6322  0.0837
 6305TIP3    H240407   4.032   4.701   4.405 -0.4668  1.4374 -0.0487
 6306TIP3   OH240408   5.625   5.576  16.974 -0.3384 -0.5074 -0.1880
 6306TIP3    H140409   5.618   5.644  16.907 -0.8995  0.2620  0.6238
 6306TIP3    H240410   5.706   5.596  17.020 -0.5829 -0.2804  0.1518
 6307TIP3   OH240411   5.867   3.150  14.956  0.1970 -0.3170 -0.1223
 6307TIP3    H140412   5.778   3.150  14.919 -0.3615  0.8042  1.1647
 6307TIP3    H240413   5.898   3.239  14.943  1.0492 -0.6251 -0.2877
 6308TIP3   OH240414   2.166   2.898  16.042 -0.0927 -0.0842  0.1088
 6308TIP3    H140415   2.167   2.954  15.965 -2.2156 -0.1575 -0.0131
 6308TIP3    H240416   2.240   2.838  16.029 -0.6791 -0.4151 -2.1291
 6309TIP3   OH240417   0.323   6.034   1.482 -0.0848  0.2118 -0.0080
 6309TIP3    H140418   0.272   6.084   1.545 -0.1897 -1.5666  1.4084
 6309TIP3    H240419   0.409   6.024   1.523 -0.0877 -0.8015 -0.2235
 6310TIP3   OH240420   3.021   3.238  11.655 -1.0697 -0.3501 -0.9631
 6310TIP3    H140421   2.961   3.167  11.681  0.1373 -1.8436 -2.0687
 6310TIP3    H240422   3.061   3.206  11.574 -0.7033  1.7600 -1.6568
 6311TIP3   OH240423   3.738   6.767  12.966  0.1577  0.1928  0.2085
 6311TIP3    H140424   3.663   6.731  13.013  0.2702 -0.4538 -0.1049
 6311TIP3    H240425   3.745   6.857  12.997 -0.5338  0.1469  0.4986
 6312TIP3   OH240426   5.014   0.648  11.957 -0.4495 -0.2099  0.3578
 6312TIP3    H140427   4.987   0.733  11.921  0.0062 -0.7015 -1.1968
 6312TIP3    H240428   4.947   0.587  11.929 -0.1588 -0.5838  0.4709
 6313TIP3   OH240429   3.598   2.419  14.185 -0.2097 -0.0087 -0.2919
 6313TIP3    H140430   3.692   2.422  14.165  0.0133 -0.0546  0.6835
 6313TIP3    H240431   3.561   2.362  14.118  0.4947 -0.1629 -0.5616
 6314TIP3   OH240432   4.693   0.861   0.425  0.4318 -0.1439  0.4404
 6314TIP3    H140433   4.620   0.815   0.467 -0.4414  0.0166 -0.8196
 6314TIP3    H240434   4.771   0.815   0.454 -0.2868 -1.2379  0.6837
 6315TIP3   OH240435   3.867   4.680   0.372  0.5089  0.3229 -0.2160
 6315TIP3    H140436   3.811   4.605   0.392  1.7087 -0.6020 -0.1957
 6315TIP3    H240437   3.926   4.686   0.447  1.6931  0.0438 -1.0947
 6316TIP3   OH240438   5.612   5.450  12.669 -0.2731 -0.0086  0.0619
 6316TIP3    H140439   5.559   5.498  12.605  1.1236 -0.4866 -1.5192
 6316TIP3    H240440   5.599   5.497  12.751 -2.8582  0.0730 -0.3325
 6317TIP3   OH240441   1.129   4.421   2.263 -0.7120 -0.1290  0.2344
 6317TIP3    H140442   1.122   4.354   2.195  1.6412 -0.1792 -0.0250
 6317TIP3    H240443   1.133   4.372   2.345  0.7729 -0.3412  0.0610
 6318TIP3   OH240444   1.376   1.994  11.357  0.7346 -0.1069  0.3908
 6318TIP3    H140445   1.330   2.076  11.341  1.1935  0.2452  0.8338
 6318TIP3    H240446   1.377   1.950  11.272  0.0354  0.1087  0.2678
 6319TIP3   OH240447   6.813   3.881  14.303 -0.2675  0.1605  0.0619
 6319TIP3    H140448   6.816   3.926  14.219  0.1369  0.4154  0.2106
 6319TIP3    H240449   6.721   3.856  14.313 -0.3041  0.0589 -0.4886
 6320TIP3   OH240450   1.616   3.424   5.303  0.0689  0.6496  0.0521
 6320TIP3    H140451   1.529   3.409   5.341 -0.1836 -1.2900 -1.1754
 6320TIP3    H240452   1.597   3.454   5.214  0.6085 -1.0230 -0.6634
 6321TIP3   OH240453   1.223   0.061   1.757 -0.1209  0.1404  0.2753
 6321TIP3    H140454   1.248   0.011   1.835  0.7207  3.0195  2.0275
 6321TIP3    H240455   1.191   0.144   1.792 -2.9888  0.3279 -2.3805
 6322TIP3   OH240456   2.439   5.892  11.826  0.3253 -0.3766 -0.0805
 6322TIP3    H140457   2.390   5.944  11.889  0.2023 -2.5760  1.7906
 6322TIP3    H240458   2.531   5.914  11.841  0.2195  0.0181 -0.0136
 6323TIP3   OH240459   2.597   3.166  14.125 -0.0502 -0.0974 -0.8811
 6323TIP3    H140460   2.558   3.236  14.177  0.2171 -0.5518 -0.0521
 6323TIP3    H240461   2.684   3.198  14.102  0.3371 -0.4322  0.0869
 6324TIP3   OH240462   6.483   6.211  14.738 -0.0884 -0.2839 -0.2148
 6324TIP3    H140463   6.550   6.155  14.698 -1.1882 -0.0471 -2.5631
 6324TIP3    H240464   6.404   6.158  14.735 -0.6069  0.4855 -0.1748
 6325TIP3   OH240465   3.897   5.988   0.626 -0.2454  0.3965  0.0904
 6325TIP3    H140466   3.987   5.962   0.647  0.4684  2.5692 -0.0903
 6325TIP3    H240467   3.888   5.970   0.532 -1.0600 -2.5753  0.6195
 6326TIP3   OH240468   4.658   1.993   2.469 -0.8397 -0.1999  0.5992
 6326TIP3    H140469   4.646   1.914   2.523 -0.2997 -0.8807 -0.2507
 6326TIP3    H240470   4.569   2.013   2.438 -0.7243 -1.7803 -0.9305
 6327TIP3   OH240471   2.610   4.143  13.711  0.6812 -0.3493  0.6243
 6327TIP3    H140472   2.613   4.184  13.625  1.6959 -0.9482  0.3573
 6327TIP3    H240473   2.519   4.153  13.740  0.8745  2.0386  0.5571
 6328TIP3   OH240474   5.025   3.293  10.899  0.0064 -0.7591  0.2868
 6328TIP3    H140475   4.950   3.350  10.887  0.8471  0.1138 -1.0224
 6328TIP3    H240476   5.062   3.319  10.983 -1.0135 -1.0742  0.8577
 6329TIP3   OH240477   6.022   3.472  14.668  0.3541 -0.0845  0.1534
 6329TIP3    H140478   6.085   3.404  14.644 -0.4897 -0.4582 -1.1172
 6329TIP3    H240479   5.951   3.463  14.603 -2.3578 -1.4591  3.0267
 6330TIP3   OH240480   6.038   4.735  13.874 -0.6938  0.0825  0.1811
 6330TIP3    H140481   5.995   4.650  13.867 -1.2221  0.3707 -0.1236
 6330TIP3    H240482   6.130   4.714  13.893 -0.8232 -0.5509  0.1229
 6331TIP3   OH240483   2.985   1.170   3.078 -0.2687 -0.5156  0.5877
 6331TIP3    H140484   2.938   1.232   3.134  0.6259  0.2910  0.4797
 6331TIP3    H240485   3.070   1.212   3.063 -0.9949  0.0482 -2.6045
 6332TIP3   OH240486   5.011   3.446   2.224 -0.3188 -0.5150  0.0815
 6332TIP3    H140487   4.988   3.485   2.308 -0.0051 -1.6343  0.7174
 6332TIP3    H240488   5.033   3.355   2.246  1.9281 -0.2537 -0.8942
 6333TIP3   OH240489   1.554   5.761   1.223  0.0152 -0.3504 -0.2935
 6333TIP3    H140490   1.514   5.746   1.309 -0.7960 -1.9156 -0.8989
 6333TIP3    H240491   1.630   5.816   1.242 -0.8107  0.3360  1.2597
 6334TIP3   OH240492   1.360   1.694   5.734  0.1108 -0.1903  0.0718
 6334TIP3    H140493   1.308   1.758   5.684  3.4478  2.4927 -0.3646
 6334TIP3    H240494   1.378   1.624   5.671 -0.4215  0.3500 -0.7038
 6335TIP3   OH240495   5.324   2.435  12.754 -0.3081 -0.5311  0.3944
 6335TIP3    H140496   5.293   2.345  12.753 -0.6647 -0.4067 -0.1794
 6335TIP3    H240497   5.352   2.452  12.664 -0.6293  0.0619  0.4045
 6336TIP3   OH240498   6.597   0.768  15.254  0.6427  0.1409  0.4910
 6336TIP3    H140499   6.680   0.797  15.292 -0.5340 -0.2016  3.5846
 6336TIP3    H240500   6.589   0.676  15.281 -0.7927  0.2087  0.3649
 6337TIP3   OH240501   5.318   0.997  13.486  0.5384  0.1050 -0.0047
 6337TIP3    H140502   5.228   0.979  13.462  0.1796 -1.2819  2.1563
 6337TIP3    H240503   5.370   0.941  13.429  0.0084  0.2624 -0.6533
 6338TIP3   OH240504   0.457   4.332  10.782 -0.0217 -0.0681 -0.4252
 6338TIP3    H140505   0.548   4.361  10.772  0.1043 -0.6381 -0.9886
 6338TIP3    H240506   0.434   4.298  10.696 -0.8940  0.4029 -0.3850
 6339TIP3   OH240507   0.754   6.763  15.880 -0.6457  0.2761  0.3422
 6339TIP3    H140508   0.753   6.826  15.808  0.0141 -1.6474 -1.4446
 6339TIP3    H240509   0.662   6.743  15.896 -0.7953  0.6676 -0.0036
 6340TIP3   OH240510   3.936   5.930   4.069 -0.1106  0.9410  0.7265
 6340TIP3    H140511   3.853   5.927   4.117 -0.6443  1.5484 -0.1140
 6340TIP3    H240512   4.002   5.947   4.135 -0.7554  1.2083  1.3159
 6341TIP3   OH240513   1.920   1.045  16.504 -0.0390 -0.4237  0.5702
 6341TIP3    H140514   1.978   0.974  16.532  1.4390  0.8104  0.7779
 6341TIP3    H240515   1.920   1.040  16.409  1.5097  0.3364  0.4875
 6342TIP3   OH240516   2.332   6.491  13.259 -0.4719 -0.6192  0.2987
 6342TIP3    H140517   2.345   6.398  13.276  0.6272 -0.5458 -0.0813
 6342TIP3    H240518   2.312   6.495  13.166  0.6975 -0.3775  0.0456
 6343TIP3   OH240519   2.484   0.918  13.485  0.5993  0.3297 -0.3781
 6343TIP3    H140520   2.405   0.953  13.527 -0.8918 -0.0533 -2.6788
 6343TIP3    H240521   2.501   0.835  13.529 -1.2247 -0.3242 -0.8271
 6344TIP3   OH240522   0.365   5.656   2.401 -0.5129  0.2749  0.0553
 6344TIP3    H140523   0.429   5.585   2.408 -0.3488  0.4869  0.8483
 6344TIP3    H240524   0.282   5.616   2.428 -0.6607  0.0831 -0.6603
 6345TIP3   OH240525   4.459   6.280   0.050 -0.3211  0.1834  0.1622
 6345TIP3    H140526   4.507   6.258   0.130 -1.1442  1.8732  1.1585
 6345TIP3    H240527   4.459   6.375   0.047 -2.1916  0.1986 -0.6782
 6346TIP3   OH240528   2.067   4.977   5.231  0.1012  0.4733 -0.5322
 6346TIP3    H140529   2.154   4.998   5.197  1.0823  0.0445  1.5869
 6346TIP3    H240530   2.065   4.881   5.233  0.7749  0.4493  2.1608
 6347TIP3   OH240531   5.407   5.397  11.122 -0.3684  0.3258  0.1825
 6347TIP3    H140532   5.449   5.373  11.039 -0.0229  2.0276 -0.1661
 6347TIP3    H240533   5.322   5.434  11.096  0.1955  1.9040  0.4596
 6348TIP3   OH240534   0.706   1.337   4.965  0.2450 -0.1318 -0.0262
 6348TIP3    H140535   0.698   1.393   4.888 -2.1438 -0.4934 -0.1128
 6348TIP3    H240536   0.694   1.396   5.039 -0.5115 -0.2431 -0.0550
 6349TIP3   OH240537   0.238   1.503  15.983  0.6512  0.2111  0.3674
 6349TIP3    H140538   0.157   1.458  15.959  0.7649 -0.7371  1.6105
 6349TIP3    H240539   0.305   1.434  15.983  1.3297  0.8534 -0.0142
 6350TIP3   OH240540   0.290   2.669   3.799 -0.3521 -0.0661  0.2845
 6350TIP3    H140541   0.272   2.714   3.717 -0.2090 -1.7090 -0.6934
 6350TIP3    H240542   0.294   2.739   3.864  0.0300  1.3436 -1.1753
 6351TIP3   OH240543   4.927   4.236   1.800 -0.1256  0.2353 -0.4303
 6351TIP3    H140544   4.837   4.252   1.828 -0.1974 -1.0633  0.1572
 6351TIP3    H240545   4.926   4.253   1.706 -0.7721  1.0724 -0.2869
 6352TIP3   OH240546   5.816   4.561  11.206  0.1681 -0.3845 -0.4935
 6352TIP3    H140547   5.726   4.568  11.174  0.5558 -1.2619 -1.8452
 6352TIP3    H240548   5.852   4.649  11.197 -0.3240 -0.1935 -0.6445
 6353TIP3   OH240549   2.672   2.251   5.427  0.3842 -0.1273 -0.0884
 6353TIP3    H140550   2.622   2.326   5.457 -0.3881 -1.2411  1.5536
 6353TIP3    H240551   2.691   2.201   5.506  0.9788 -1.6019 -1.1076
 6354TIP3   OH240552   3.943   1.787  12.573  0.3121 -0.1369 -0.0473
 6354TIP3    H140553   3.937   1.876  12.539 -1.4777  0.6786  2.1481
 6354TIP3    H240554   4.022   1.787  12.627 -0.6365  0.6984  1.3783
 6355TIP3   OH240555   1.706   4.044  16.412  0.4168 -0.1068 -0.1253
 6355TIP3    H140556   1.752   4.123  16.442  0.9315 -0.8124  0.9972
 6355TIP3    H240557   1.614   4.066  16.420  0.5070  1.0241 -1.5942
 6356TIP3   OH240558   3.389   2.609   4.237 -0.1053  0.1085  0.4995
 6356TIP3    H140559   3.432   2.557   4.305  0.5161  0.7129  0.5815
 6356TIP3    H240560   3.410   2.700   4.259  0.1413  0.3144 -0.5157
 6357TIP3   OH240561   6.527   0.138   1.232 -0.1079 -0.8423  0.4892
 6357TIP3    H140562   6.517   0.057   1.182 -1.9056 -1.6013  1.9413
 6357TIP3    H240563   6.452   0.192   1.205 -0.3992 -0.7632  1.3938
 6358TIP3   OH240564   0.998   0.646  16.756 -0.2122 -0.6314  0.0969
 6358TIP3    H140565   0.957   0.604  16.831 -0.4626  0.4079  0.5714
 6358TIP3    H240566   0.925   0.688  16.710  0.1543  0.2375  0.2865
 6359TIP3   OH240567   5.228   3.234   1.846 -0.9055  0.0810 -0.7182
 6359TIP3    H140568   5.313   3.198   1.872 -0.6834  1.5084  0.7361
 6359TIP3    H240569   5.209   3.193   1.762  1.9050  0.7469 -1.8097
 6360TIP3   OH240570   1.033   5.991  11.581 -0.3552 -0.0071 -0.3903
 6360TIP3    H140571   1.054   6.083  11.564 -0.2000  0.1426  0.5754
 6360TIP3    H240572   0.943   5.993  11.614  0.2367  0.0103  1.3354
 6361TIP3   OH240573   5.976   0.764  11.353 -0.7902 -0.5363  1.0409
 6361TIP3    H140574   6.006   0.675  11.372  0.6037  0.2232  2.5747
 6361TIP3    H240575   5.895   0.751  11.303 -0.1606 -2.6515  0.4522
 6362TIP3   OH240576   2.179   2.560  14.833  0.3386 -0.1430  0.1083
 6362TIP3    H140577   2.086   2.581  14.842  0.1748 -0.8759  0.2181
 6362TIP3    H240578   2.179   2.468  14.804  1.0657 -1.0391  2.6630
 6363TIP3   OH240579   6.511   1.505  13.941  0.0270  0.6844 -0.2429
 6363TIP3    H140580   6.540   1.458  14.018 -2.0332 -1.1428 -0.4754
 6363TIP3    H240581   6.572   1.480  13.872 -0.0502 -0.3250  0.0471
 6364TIP3   OH240582   2.929   2.371   6.487 -0.4351 -0.0590  0.6148
 6364TIP3    H140583   3.011   2.391   6.532 -1.1410 -0.2600  2.0633
 6364TIP3    H240584   2.955   2.318   6.412  0.9485  1.6324 -0.1827
 6365TIP3   OH240585   4.381   5.945  16.602 -0.0549 -0.2286 -0.1053
 6365TIP3    H140586   4.349   6.018  16.654 -2.7747 -0.7241 -0.9432
 6365TIP3    H240587   4.364   5.970  16.511  2.0160 -0.5695 -0.6518
 6366TIP3   OH240588   2.751   2.940  16.574 -0.1494 -0.5793 -0.3606
 6366TIP3    H140589   2.780   2.885  16.502  1.5220  1.1916 -1.1485
 6366TIP3    H240590   2.687   3.000  16.535  1.4145  0.9736 -0.6883
 6367TIP3   OH240591   2.166   5.669   5.810 -0.2636 -0.0828 -0.2755
 6367TIP3    H140592   2.125   5.744   5.766 -0.5887 -0.5025 -0.6969
 6367TIP3    H240593   2.169   5.600   5.743  0.7591 -0.1975 -0.1363
 6368TIP3   OH240594   4.602   3.067  11.136  0.3018  0.3290 -0.5818
 6368TIP3    H140595   4.627   3.155  11.107  0.7401 -0.2751 -2.1539
 6368TIP3    H240596   4.679   3.014  11.119 -0.6606 -0.7747 -1.6641
 6369TIP3   OH240597   3.027   2.830  15.508  0.3089 -0.7259  0.4056
 6369TIP3    H140598   3.024   2.926  15.510  0.3927 -0.7123 -0.0861
 6369TIP3    H240599   3.088   2.807  15.578 -0.3590 -0.4615  1.0975
 6370TIP3   OH240600   1.849   0.390  15.337  0.0601 -0.1033 -0.1873
 6370TIP3    H140601   1.842   0.459  15.272 -1.6226 -1.4605 -1.5364
 6370TIP3    H240602   1.854   0.436  15.421  1.3431  1.6653 -1.1572
 6371TIP3   OH240603   1.730   3.399   4.326  0.0790 -0.2477  0.2813
 6371TIP3    H140604   1.760   3.456   4.396 -0.7975  0.5336  0.0575
 6371TIP3    H240605   1.727   3.456   4.249  1.5872 -1.2293 -0.5489
 6372TIP3   OH240606   6.299   3.533   3.998  0.2342 -0.1290 -0.2407
 6372TIP3    H140607   6.357   3.533   3.923  0.7222 -0.4521  0.1292
 6372TIP3    H240608   6.216   3.498   3.965 -0.2618  1.7987 -1.1417
 6373TIP3   OH240609   3.464   2.088   0.750 -0.3114 -0.2806 -0.3024
 6373TIP3    H140610   3.377   2.075   0.787 -1.1820  1.8149 -1.4779
 6373TIP3    H240611   3.454   2.068   0.657  0.8066 -1.2821 -0.2339
 6374TIP3   OH240612   3.669   0.197  11.372  0.0503  0.4102 -0.1892
 6374TIP3    H140613   3.690   0.264  11.438  1.4958  1.3306 -1.5190
 6374TIP3    H240614   3.590   0.231  11.328  0.2989  0.8443 -0.3095
 6375TIP3   OH240615   4.515   0.035  17.031 -0.2441  0.0466 -0.2937
 6375TIP3    H140616   4.557   0.118  17.009 -1.4750  0.7049 -0.2402
 6375TIP3    H240617   4.516  -0.015  16.949 -2.4704  1.4571 -1.2711
 6376TIP3   OH240618   0.344   1.788   1.297 -0.3770  0.3191  0.5444
 6376TIP3    H140619   0.283   1.800   1.370 -0.7530 -0.3711  0.3543
 6376TIP3    H240620   0.341   1.871   1.249 -2.6541 -0.3421 -0.5685
 6377TIP3   OH240621   1.111   1.253  15.794 -0.1225 -0.5610  0.1293
 6377TIP3    H140622   1.144   1.245  15.705  0.6787 -1.4270  0.4848
 6377TIP3    H240623   1.140   1.339  15.823 -0.4309 -0.2557 -0.4516
 6378TIP3   OH240624   6.291   6.392   3.000  0.5480 -0.1158 -0.3047
 6378TIP3    H140625   6.339   6.470   3.029  1.0542 -1.1691  1.9692
 6378TIP3    H240626   6.210   6.394   3.051  0.1580 -0.6238 -0.8945
 6379TIP3   OH240627   4.193   0.350  16.094  0.5110  0.1387  0.3611
 6379TIP3    H140628   4.188   0.441  16.124  0.2205  0.1228  0.3680
 6379TIP3    H240629   4.140   0.349  16.014  1.9642  0.3759 -0.6389
 6380TIP3   OH240630   2.082   4.638  16.986 -0.0032  0.0072 -0.1552
 6380TIP3    H140631   1.997   4.597  16.978  0.0336  0.2860 -4.9599
 6380TIP3    H240632   2.140   4.568  17.015 -1.3858 -0.9291  0.4315
 6381TIP3   OH240633   0.720   0.552  11.700 -0.1788  0.0153  0.1884
 6381TIP3    H140634   0.658   0.482  11.679  0.3398 -0.9382  1.6504
 6381TIP3    H240635   0.781   0.512  11.761 -0.0578  1.8492  1.3448
 6382TIP3   OH240636   2.442   5.279   5.400 -0.3104 -0.3439  0.1673
 6382TIP3    H140637   2.378   5.211   5.420 -4.2085  2.5676 -0.9916
 6382TIP3    H240638   2.464   5.265   5.308 -0.0047 -0.8350  0.3141
 6383TIP3   OH240639   5.225   6.251  11.380  0.7826  0.5998  0.1017
 6383TIP3    H140640   5.151   6.192  11.369  0.0461  1.7666 -1.6103
 6383TIP3    H240641   5.285   6.203  11.436  0.2435 -1.7855 -1.2080
 6384TIP3   OH240642   6.156   2.954   1.415 -0.0431 -0.0538  0.3632
 6384TIP3    H140643   6.184   3.013   1.485 -0.1198 -0.0877  0.4216
 6384TIP3    H240644   6.122   2.877   1.460 -1.1256  0.3842  0.3170
 6385TIP3   OH240645   5.426   2.043   6.045  0.1638  0.1981  0.7449
 6385TIP3    H140646   5.504   2.098   6.037  0.6506 -0.3762  1.3691
 6385TIP3    H240647   5.419   1.997   5.962  1.2466 -0.7032  1.1341
 6386TIP3   OH240648   0.798   5.948  16.611 -0.5368  0.1175 -0.2011
 6386TIP3    H140649   0.795   5.860  16.573 -0.7491 -0.4010  0.9595
 6386TIP3    H240650   0.891   5.962  16.630 -0.3340  0.6646 -1.5137
 6387TIP3   OH240651   3.298   5.918  12.718  0.0579  0.1716 -0.2535
 6387TIP3    H140652   3.315   5.928  12.812  1.9492  1.5626 -0.6757
 6387TIP3    H240653   3.356   5.847  12.691 -1.9976 -1.6807 -0.0691
 6388TIP3   OH240654   0.818   5.474  16.678 -0.0916 -0.7969  0.1364
 6388TIP3    H140655   0.854   5.486  16.766 -0.2267 -0.5940  0.1654
 6388TIP3    H240656   0.737   5.424  16.692 -0.0534 -0.8646  0.1166
 6389TIP3   OH240657   4.437   4.309  15.889 -0.4233  0.3647 -0.5572
 6389TIP3    H140658   4.386   4.381  15.927 -0.6902 -1.1242  2.1197
 6389TIP3    H240659   4.527   4.340  15.890 -0.5622  0.7700  0.3547
 6390TIP3   OH240660   5.943   2.039   5.298  0.1644  0.0488  0.0587
 6390TIP3    H140661   5.960   1.945   5.291 -3.9631 -0.7590 -2.7216
 6390TIP3    H240662   5.918   2.053   5.389 -0.4649 -1.8871  0.2148
 6391TIP3   OH240663   4.172   1.230  13.545  0.6947  0.0406  0.0146
 6391TIP3    H140664   4.217   1.310  13.518 -1.0864  1.0675 -0.0567
 6391TIP3    H240665   4.215   1.161  13.494  1.8262  1.0255 -0.4279
 6392TIP3   OH240666   3.967   6.175   2.802 -0.3354 -0.3233 -0.3305
 6392TIP3    H140667   3.945   6.210   2.889  0.4003  4.1206 -1.6514
 6392TIP3    H240668   4.055   6.139   2.812 -0.9994 -1.6395  1.1064
 6393TIP3   OH240669   5.305   6.395  11.886 -0.6443  0.3424 -0.0504
 6393TIP3    H140670   5.246   6.321  11.877 -0.3532 -0.1948  1.9656
 6393TIP3    H240671   5.263   6.466  11.836 -1.0120 -1.0828 -1.8601
 6394TIP3   OH240672   3.970   4.411   6.459  0.1473 -0.5654 -0.3232
 6394TIP3    H140673   4.052   4.416   6.410  0.6077 -0.2852  0.4613
 6394TIP3    H240674   3.980   4.474   6.530 -1.1587  0.2243 -0.8046
 6395TIP3   OH240675   1.694   6.735  12.740 -0.6733  0.3026  0.2013
 6395TIP3    H140676   1.604   6.708  12.761 -0.7541  0.5162  0.1398
 6395TIP3    H240677   1.748   6.659  12.762 -0.9790 -0.1878 -0.7053
 6396TIP3   OH240678   0.087   4.262   5.596  0.3678 -0.1123  0.5917
 6396TIP3    H140679   0.162   4.273   5.538  0.0343  2.5500  0.5206
 6396TIP3    H240680   0.098   4.175   5.634  2.2176 -0.7152 -1.1488
 6397TIP3   OH240681   0.096   3.671  11.899 -0.1748  0.7814  0.3130
 6397TIP3    H140682   0.129   3.755  11.869 -0.1344  1.0222  1.0079
 6397TIP3    H240683   0.121   3.609  11.830  0.9007  1.1172  0.3742
 6398TIP3   OH240684   4.589   3.621   4.156  0.2119 -1.0773 -0.5775
 6398TIP3    H140685   4.679   3.651   4.161  0.6603 -2.2985 -0.9886
 6398TIP3    H240686   4.575   3.603   4.063 -0.7357 -0.0947 -0.6431
 6399TIP3   OH240687   0.733   5.654   0.121  0.6596  0.1225 -0.6433
 6399TIP3    H140688   0.761   5.569   0.155  0.1668  0.5893  1.0289
 6399TIP3    H240689   0.654   5.635   0.071  0.4201 -0.3800 -0.0843
 6400TIP3   OH240690   4.456   3.263   1.803  0.1759  0.1331  0.4308
 6400TIP3    H140691   4.405   3.276   1.883 -1.4510  0.0558 -0.5621
 6400TIP3    H240692   4.469   3.350   1.767  2.4910  0.3800  1.6545
 6401TIP3   OH240693   3.917   5.222   5.167 -0.1069  0.1718  0.6041
 6401TIP3    H140694   3.996   5.272   5.189  0.7117 -0.6848 -0.3369
 6401TIP3    H240695   3.899   5.170   5.245  0.5678 -0.0221  0.6350
 6402TIP3   OH240696   0.195   4.878  14.890  0.5047 -0.3151  0.1321
 6402TIP3    H140697   0.156   4.961  14.916 -0.4803 -0.5841 -0.4027
 6402TIP3    H240698   0.272   4.902  14.838 -1.7295  0.4581 -3.1575
 6403TIP3   OH240699   0.951   6.451  11.506  0.1202  0.3229  0.0575
 6403TIP3    H140700   0.857   6.443  11.490  0.0940  0.5886  0.0615
 6403TIP3    H240701   0.977   6.529  11.456  0.2545  0.4992  0.3949
 6404TIP3   OH240702   3.072   0.407  16.671 -0.2200  0.1792 -0.6327
 6404TIP3    H140703   3.120   0.339  16.623  0.9514 -0.4774  1.3455
 6404TIP3    H240704   3.073   0.483  16.613 -0.3790 -1.0718 -2.3420
 6405TIP3   OH240705   0.984   0.737  12.693 -0.4154  0.2753 -0.5986
 6405TIP3    H140706   0.906   0.728  12.638 -1.5763  1.2670  0.7750
 6405TIP3    H240707   0.986   0.657  12.745  0.3322 -0.3898 -1.6268
 6406TIP3   OH240708   4.962   2.113  15.114 -0.0185  0.4289  0.1856
 6406TIP3    H140709   4.910   2.073  15.045 -0.0782  1.1217 -0.1774
 6406TIP3    H240710   4.903   2.177  15.155 -0.0257 -0.0725  0.9637
 6407TIP3   OH240711   4.788   5.841  16.855 -0.4515 -0.5624 -0.2286
 6407TIP3    H140712   4.847   5.767  16.871 -0.4021 -0.4455  0.1625
 6407TIP3    H240713   4.841   5.918  16.876 -0.7811 -0.4628  0.2710
 6408TIP3   OH240714   1.250   6.596   2.769 -0.1887  0.1506  0.0790
 6408TIP3    H140715   1.262   6.652   2.846  1.2711  2.4991 -1.7248
 6408TIP3    H240716   1.156   6.597   2.753 -0.1520  3.4577 -0.7140
 6409TIP3   OH240717   4.621   1.873   0.270 -0.3598  0.2554 -0.3139
 6409TIP3    H140718   4.702   1.822   0.278  0.2952  1.4177  0.8477
 6409TIP3    H240719   4.651   1.962   0.250 -1.2582  1.0071  1.5149
 6410TIP3   OH240720   5.440   1.754   2.500  0.5385 -0.3991  0.5010
 6410TIP3    H140721   5.392   1.837   2.501  0.2960 -0.4910 -1.1086
 6410TIP3    H240722   5.389   1.695   2.555 -1.1443 -0.4427 -1.0129
 6411TIP3   OH240723   1.230   0.036   3.850  0.6475 -0.0073  0.2514
 6411TIP3    H140724   1.156   0.020   3.792  0.6644 -2.4390  0.7737
 6411TIP3    H240725   1.300   0.067   3.793  0.2980 -1.2028 -0.8678
 6412TIP3   OH240726   0.391   2.688  12.393  0.2406  0.4774 -0.3092
 6412TIP3    H140727   0.358   2.605  12.359 -1.9414  1.6786 -1.3439
 6412TIP3    H240728   0.324   2.718  12.454  1.9703  0.5605  1.6707
 6413TIP3   OH240729   3.409   2.017   3.979 -0.1163 -0.0192  0.1969
 6413TIP3    H140730   3.408   1.970   4.062  0.5923 -2.6352 -1.1599
 6413TIP3    H240731   3.501   2.017   3.952  0.2938  3.8940  0.9043
 6414TIP3   OH240732   6.299   4.285   0.376  0.0457 -0.0934 -0.2405
 6414TIP3    H140733   6.270   4.290   0.467  0.4214  0.6621 -0.1516
 6414TIP3    H240734   6.273   4.369   0.338 -0.3305 -0.4978 -0.9066
 6415TIP3   OH240735   4.429   6.816   5.843  0.2067 -0.5112  0.2090
 6415TIP3    H140736   4.415   6.751   5.911 -0.8224  0.8420  1.3499
 6415TIP3    H240737   4.341   6.838   5.811  0.4505  0.9086  0.4404
 6416TIP3   OH240738   1.449   2.370  13.132 -0.1773  0.5443  0.1344
 6416TIP3    H140739   1.408   2.289  13.101 -1.8574  1.3818  0.0772
 6416TIP3    H240740   1.473   2.417  13.052 -0.6134  0.7957  0.1520
 6417TIP3   OH240741   3.510   3.479  15.576 -0.2091  0.5217  0.2772
 6417TIP3    H140742   3.562   3.503  15.653 -0.1848  1.1186  0.0781
 6417TIP3    H240743   3.440   3.544  15.572 -0.2789  0.4286 -0.1392
 6418TIP3   OH240744   0.659   3.802   5.157  0.3745  0.7845  0.0274
 6418TIP3    H140745   0.684   3.894   5.172 -1.4027  1.2104  0.6370
 6418TIP3    H240746   0.578   3.808   5.107  0.2360 -0.4700  0.0854
 6419TIP3   OH240747   2.257   6.311   0.121  0.2098  0.1252  0.4517
 6419TIP3    H140748   2.293   6.291   0.035 -0.6698  1.6960 -0.3318
 6419TIP3    H240749   2.314   6.266   0.183  2.2275  0.7980 -0.8380
 6420TIP3   OH240750   0.119   5.281   2.651  0.1048 -0.7102 -0.1339
 6420TIP3    H140751   0.047   5.218   2.651 -0.5828  0.0558  0.0083
 6420TIP3    H240752   0.184   5.245   2.590  0.2298 -2.1086  0.7779
 6421TIP3   OH240753   4.546   6.765   3.398  0.5417  0.6011 -0.4353
 6421TIP3    H140754   4.597   6.685   3.394 -0.0771  0.2164 -0.6775
 6421TIP3    H240755   4.600   6.830   3.353  0.3495 -0.0582 -1.6465
 6422TIP3   OH240756   3.125   0.018  12.891 -0.1088 -0.0407  0.4348
 6422TIP3    H140757   3.096  -0.019  12.974  0.1803 -0.6026  0.2893
 6422TIP3    H240758   3.215  -0.014  12.881 -0.2372 -0.1925 -0.2243
 6423TIP3   OH240759   2.212   5.747   2.821 -0.1988  0.7884 -0.2731
 6423TIP3    H140760   2.299   5.715   2.795 -0.6368 -0.1639 -0.6443
 6423TIP3    H240761   2.211   5.838   2.794  1.4751  1.4857  1.7284
 6424TIP3   OH240762   6.511   1.054  11.695 -0.1853 -0.0077  0.4255
 6424TIP3    H140763   6.538   1.145  11.680 -1.9705  0.5900  0.5353
 6424TIP3    H240764   6.531   1.038  11.787 -1.7941  1.0600  1.0207
 6425TIP3   OH240765   1.098   3.550  11.155  0.0392  0.1563 -0.9839
 6425TIP3    H140766   1.170   3.604  11.123  0.8319  0.0496  0.5336
 6425TIP3    H240767   1.035   3.613  11.192  0.0798  0.1469 -0.9003
 6426TIP3   OH240768   4.542   6.370  11.857 -0.5540 -0.9158 -0.5181
 6426TIP3    H140769   4.470   6.432  11.844 -2.3414 -2.9374 -0.8775
 6426TIP3    H240770   4.537   6.346  11.949 -0.7094 -1.4447 -0.6572
 6427TIP3   OH240771   3.828   1.212  16.398  0.2114 -0.0653  0.1269
 6427TIP3    H140772   3.815   1.145  16.331 -0.8141 -0.7436  0.9665
 6427TIP3    H240773   3.741   1.226  16.436  0.6248  0.8654  0.7871
 6428TIP3   OH240774   2.298   3.653   1.458  0.2850 -0.1395  0.3091
 6428TIP3    H140775   2.328   3.729   1.409  0.8810 -0.1379  0.6644
 6428TIP3    H240776   2.203   3.663   1.462  0.3225  0.3731  0.0124
 6429TIP3   OH240777   6.707   0.034  13.121 -0.9057 -0.0670 -0.1381
 6429TIP3    H140778   6.733   0.040  13.029 -1.0182  1.3354 -0.0996
 6429TIP3    H240779   6.622   0.078  13.125  0.3142  2.4311  1.0770
 6430TIP3   OH240780   3.677   5.796   2.614  0.4225 -0.1692 -0.3811
 6430TIP3    H140781   3.599   5.832   2.572  0.8401  0.8479 -0.3030
 6430TIP3    H240782   3.743   5.795   2.544  0.4494 -0.6851 -0.3509
 6431TIP3   OH240783   5.277   1.493  15.008 -0.0678  0.0403 -0.2222
 6431TIP3    H140784   5.247   1.417  15.058  1.2208 -1.2322 -1.3015
 6431TIP3    H240785   5.216   1.500  14.935  0.2901 -0.4847 -0.5772
 6432TIP3   OH240786   3.324   6.303  16.033 -0.0429  0.3759 -0.2151
 6432TIP3    H140787   3.256   6.318  15.966  0.4126 -0.5204 -0.9009
 6432TIP3    H240788   3.340   6.208  16.030  0.6638  0.4612  0.5130
 6433TIP3   OH240789   6.401   5.305  11.088 -0.4066 -0.3973 -0.5638
 6433TIP3    H140790   6.364   5.324  11.001 -0.2413 -0.1374 -0.5773
 6433TIP3    H240791   6.490   5.338  11.084 -0.3269 -0.5898 -0.3671
 6434TIP3   OH240792   4.988   4.942   4.322 -0.4628 -0.1092 -0.3515
 6434TIP3    H140793   5.080   4.959   4.340 -0.5302  0.7530 -0.7852
 6434TIP3    H240794   4.944   5.025   4.343 -1.1513 -0.5362 -0.0739
 6435TIP3   OH240795   3.098   4.417   4.973 -1.1847 -0.3911 -0.5415
 6435TIP3    H140796   3.149   4.409   4.892  0.8456  0.8523  0.5268
 6435TIP3    H240797   3.105   4.330   5.014 -1.6020 -0.8060 -1.3339
 6436TIP3   OH240798   1.712   1.307   5.884 -0.1914 -0.1851 -0.3164
 6436TIP3    H140799   1.635   1.286   5.831 -0.0536 -0.5537 -0.3704
 6436TIP3    H240800   1.709   1.245   5.957 -0.5664  0.5425  0.2987
 6437TIP3   OH240801   4.121   6.448  14.648 -0.1577 -0.0772 -0.1838
 6437TIP3    H140802   4.055   6.516  14.636 -1.8289 -1.5894 -0.0398
 6437TIP3    H240803   4.084   6.371  14.605  1.6145 -0.9576 -0.2362
 6438TIP3   OH240804   4.753   1.668   0.017  0.3818  0.0383  0.1551
 6438TIP3    H140805   4.815   1.642  -0.051 -0.9433  0.5345 -1.2948
 6438TIP3    H240806   4.673   1.691  -0.031 -0.3392  1.1874  1.8277
 6439TIP3   OH240807   1.838   4.484   1.261  0.6241 -0.0691  0.0906
 6439TIP3    H140808   1.835   4.578   1.246  1.9514  0.4317  2.4337
 6439TIP3    H240809   1.905   4.452   1.200  1.4253  0.8186  0.4705
 6440TIP3   OH240810   5.490   1.183   3.794  0.4684 -0.1577  0.1930
 6440TIP3    H140811   5.571   1.165   3.842 -0.1099  1.2621  1.7973
 6440TIP3    H240812   5.502   1.271   3.759 -0.4104  0.1125  0.5414
 6441TIP3   OH240813   2.299   0.390   2.109 -0.2706  0.0431  0.3548
 6441TIP3    H140814   2.345   0.459   2.158  0.7531  0.4961 -1.1633
 6441TIP3    H240815   2.315   0.412   2.017 -1.1199 -1.4505 -0.1790
 6442TIP3   OH240816   6.494   5.943   0.578  0.2080 -0.0336 -0.2836
 6442TIP3    H140817   6.544   5.886   0.636 -0.7591 -0.5718  0.0287
 6442TIP3    H240818   6.482   5.892   0.498  0.0588  0.0565 -0.3185
 6443TIP3   OH240819   5.993   4.342   2.555 -0.7249 -0.9657  0.3697
 6443TIP3    H140820   6.001   4.418   2.613  0.8169  0.1117 -1.1314
 6443TIP3    H240821   6.083   4.321   2.530 -1.3310 -0.3815 -2.7737
 6444TIP3   OH240822   6.425   6.023  13.140  0.2622  0.3622 -0.1096
 6444TIP3    H140823   6.415   5.955  13.074  1.3874 -0.3068  0.3681
 6444TIP3    H240824   6.343   6.073  13.137 -0.2711 -0.5374 -0.9974
 6445TIP3   OH240825   5.861   4.800   2.982 -0.0062  0.2776  0.5120
 6445TIP3    H140826   5.821   4.849   3.054  1.6814 -1.0994  2.5246
 6445TIP3    H240827   5.871   4.711   3.015 -0.3687 -0.7810 -1.9747
 6446TIP3   OH240828   0.161   3.214  15.700 -0.2520  0.1417 -0.0225
 6446TIP3    H140829   0.201   3.243  15.618 -1.3409 -2.2354 -1.4867
 6446TIP3    H240830   0.233   3.216  15.763  0.1978  3.9382 -0.3818
 6447TIP3   OH240831   3.000   5.471  14.827 -1.2234 -0.2332  0.0976
 6447TIP3    H140832   2.976   5.408  14.896  1.0091  0.0021  1.1709
 6447TIP3    H240833   2.916   5.504  14.796 -2.4454 -2.8160  0.3420
 6448TIP3   OH240834   2.284   3.286  11.577  0.2233  0.0100  0.2264
 6448TIP3    H140835   2.326   3.305  11.493  0.6464  0.1318  0.4647
 6448TIP3    H240836   2.285   3.190  11.583 -2.3316 -0.2044 -1.1921
 6449TIP3   OH240837   3.106   3.926   0.149 -0.4416 -0.2241  0.6586
 6449TIP3    H140838   3.191   3.886   0.165 -0.0314  0.4541  0.1726
 6449TIP3    H240839   3.068   3.934   0.237  0.4882  0.5626  1.0034
 6450TIP3   OH240840   3.816   6.208  16.804  0.2107  0.0343 -0.2679
 6450TIP3    H140841   3.797   6.290  16.850  0.5746  0.3546 -0.6848
 6450TIP3    H240842   3.737   6.190  16.753  0.5687  0.7645 -1.1116
 6451TIP3   OH240843   1.351   1.421  14.278 -0.6282 -0.2238 -0.1600
 6451TIP3    H140844   1.272   1.448  14.231  0.3975  0.9762 -1.2551
 6451TIP3    H240845   1.419   1.481  14.248  0.1153  0.6667  2.8748
 6452TIP3   OH240846   4.837   0.044   3.168  0.2171 -0.0421 -0.8353
 6452TIP3    H140847   4.840   0.139   3.179  0.2823  0.0371 -1.4835
 6452TIP3    H240848   4.881   0.009   3.245  0.6538  0.4749 -0.8458
 6453TIP3   OH240849   3.749   0.341   4.148  0.3583  0.3118 -0.2237
 6453TIP3    H140850   3.791   0.355   4.063  1.7224 -3.0166 -0.2470
 6453TIP3    H240851   3.655   0.336   4.128  0.4738  1.5305 -1.1835
 6454TIP3   OH240852   0.946   3.317  12.003  0.4637 -0.1595 -1.1690
 6454TIP3    H140853   0.868   3.301  12.057  0.3286  0.7501 -1.0631
 6454TIP3    H240854   0.912   3.329  11.915  0.2366  2.0039 -0.8533
 6455TIP3   OH240855   0.751   4.502   2.175  0.1885  0.2763  0.0750
 6455TIP3    H140856   0.812   4.433   2.152 -2.0486 -1.3370 -1.4599
 6455TIP3    H240857   0.689   4.461   2.235 -1.2369  0.8767 -0.9280
 6456TIP3   OH240858   0.646   6.273   3.005 -0.1041 -0.4101 -0.4440
 6456TIP3    H140859   0.577   6.289   3.069  0.1920 -0.0510 -0.2095
 6456TIP3    H240860   0.618   6.320   2.927 -1.5802 -2.6390 -1.3792
 6457TIP3   OH240861   2.317   6.480   4.377  0.4809  0.4927 -0.1341
 6457TIP3    H140862   2.405   6.518   4.384  0.5878  0.0334  1.6861
 6457TIP3    H240863   2.332   6.390   4.348  0.6421  0.4032  0.2118
 6458TIP3   OH240864   5.098   2.647  13.527 -0.5606 -0.5538  0.6705
 6458TIP3    H140865   5.144   2.563  13.518 -2.4031 -1.5445 -0.1668
 6458TIP3    H240866   5.044   2.653  13.448  1.1483  2.5418 -0.4168
 6459TIP3   OH240867   0.412   1.109   1.409  0.4113  0.6501  0.1451
 6459TIP3    H140868   0.455   1.054   1.343 -0.2180  0.7727 -0.3704
 6459TIP3    H240869   0.320   1.082   1.406  0.8990 -2.1950  3.7356
 6460TIP3   OH240870   6.171   5.711  12.030 -0.1709  0.0447  0.5442
 6460TIP3    H140871   6.212   5.625  12.014 -0.1122  0.4461 -1.9594
 6460TIP3    H240872   6.245   5.770  12.044 -0.1077 -0.0233  0.5012
 6461TIP3   OH240873   4.312   0.625   3.231 -0.4850 -0.7371  1.2017
 6461TIP3    H140874   4.355   0.548   3.195  0.1521 -0.3604  1.1376
 6461TIP3    H240875   4.346   0.632   3.321 -0.3042 -0.3617  1.1077
 6462TIP3   OH240876   3.911   0.394  14.287 -0.6176  0.1243  0.2994
 6462TIP3    H140877   3.886   0.486  14.297 -0.9217  0.0697  0.0657
 6462TIP3    H240878   3.921   0.362  14.377 -0.5721  0.3675  0.3833
 6463TIP3   OH240879   2.934   3.430   6.119 -0.2755 -0.4369  0.4012
 6463TIP3    H140880   3.007   3.492   6.127  0.1205 -0.5664 -1.7652
 6463TIP3    H240881   2.862   3.482   6.083 -0.7019 -0.7271  0.8169
 6464TIP3   OH240882   5.570   0.465  13.516  0.4315 -0.1787  0.6078
 6464TIP3    H140883   5.556   0.371  13.514 -1.6805  0.0957  0.0921
 6464TIP3    H240884   5.650   0.479  13.465  0.6006 -1.6506  0.4367
 6465TIP3   OH240885   3.018   1.574  13.232  0.3589 -0.0840  0.2486
 6465TIP3    H140886   3.103   1.617  13.220  1.5130 -1.8475  1.5515
 6465TIP3    H240887   2.998   1.584  13.325 -0.8284  0.1866 -0.0146
 6466TIP3   OH240888   5.254   0.995   1.154 -0.4969 -0.1135  0.1325
 6466TIP3    H140889   5.284   0.921   1.101  1.2600  0.6243  0.0092
 6466TIP3    H240890   5.200   0.956   1.222  0.2757 -1.4919 -0.0163
 6467TIP3   OH240891   2.664   3.507  14.454 -0.8146 -0.2308  1.3139
 6467TIP3    H140892   2.648   3.496  14.360  1.8554  1.1834  0.5713
 6467TIP3    H240893   2.586   3.552  14.487 -0.9425  1.1422 -0.6926
 6468TIP3   OH240894   0.566   1.711  15.768  0.0681  0.3798  0.5154
 6468TIP3    H140895   0.555   1.618  15.752 -1.4353  0.2838  1.8610
 6468TIP3    H240896   0.497   1.753  15.716 -0.2678  0.5932  1.1116
 6469TIP3   OH240897   6.742   3.770   2.524 -0.0458 -0.0788  0.1809
 6469TIP3    H140898   6.749   3.699   2.460  1.0652  2.1572 -2.3989
 6469TIP3    H240899   6.680   3.831   2.485 -0.7091  0.5605  2.1532
 6470TIP3   OH240900   0.167   5.981  15.916  0.3832 -0.2164  0.0362
 6470TIP3    H140901   0.247   5.929  15.920  0.9343  0.6570  2.6243
 6470TIP3    H240902   0.192   6.062  15.873  0.7299 -0.2366  0.1969
 6471TIP3   OH240903   4.302   1.191  15.569  0.0033 -0.5149  0.5315
 6471TIP3    H140904   4.373   1.227  15.622 -0.4466 -0.7095  1.2918
 6471TIP3    H240905   4.330   1.203  15.479  0.4538  0.5459  0.7934
 6472TIP3   OH240906   4.135   4.954   3.700 -0.5040  0.1877 -0.3014
 6472TIP3    H140907   4.058   4.906   3.670 -1.1228  0.4727  0.7646
 6472TIP3    H240908   4.180   4.892   3.758 -1.1793  0.7702  0.8925
 6473TIP3   OH240909   4.967   5.049   2.046 -0.5631  0.2021  0.0486
 6473TIP3    H140910   4.945   5.142   2.059 -1.3171  0.1315 -0.6494
 6473TIP3    H240911   4.883   5.004   2.051 -0.1825 -0.4608  0.4955
 6474TIP3   OH240912   2.518   4.130   4.921 -0.1661  0.1859 -0.4868
 6474TIP3    H140913   2.434   4.086   4.932  0.5479 -1.0686  0.1491
 6474TIP3    H240914   2.583   4.065   4.948  0.9943  1.2329 -0.6766
 6475TIP3   OH240915   5.919   3.325   2.756  0.2461  0.6013  0.2011
 6475TIP3    H140916   5.870   3.358   2.832  1.9182 -1.0499  2.0999
 6475TIP3    H240917   6.009   3.354   2.770  0.9182 -1.1307 -0.2481
 6476TIP3   OH240918   6.331   5.257   5.945  0.0873  0.2227  0.3055
 6476TIP3    H140919   6.405   5.271   5.886  0.8492 -1.5692  0.7498
 6476TIP3    H240920   6.371   5.226   6.026 -1.1842 -2.1468  0.1114
 6477TIP3   OH240921   2.014   5.701   2.641 -0.2707 -0.1107  0.2250
 6477TIP3    H140922   2.101   5.673   2.670  0.4194  0.5275 -1.1501
 6477TIP3    H240923   1.959   5.694   2.719  1.1208 -0.0481  1.2405
 6478TIP3   OH240924   1.624   4.912   3.330 -0.5721 -0.1979 -0.3674
 6478TIP3    H140925   1.567   4.937   3.257  2.1098  1.4501 -2.0765
 6478TIP3    H240926   1.676   4.839   3.296 -1.2633 -1.4029  1.0179
 6479TIP3   OH240927   0.347   0.587   0.055 -0.2460 -0.3114  0.2885
 6479TIP3    H140928   0.391   0.507   0.085 -1.5732 -1.2311 -0.1535
 6479TIP3    H240929   0.347   0.645   0.131  2.5070  0.1270  0.0859
 6480TIP3   OH240930   0.948   4.863  13.336 -1.0060  0.2889 -0.3011
 6480TIP3    H140931   0.889   4.908  13.277 -1.9384 -1.2593 -0.6105
 6480TIP3    H240932   0.994   4.800  13.280 -0.5414  0.0921  0.2935
 6481TIP3   OH240933   3.943   1.909   3.522  0.1422 -0.4592  0.2142
 6481TIP3    H140934   3.883   1.835   3.518  2.3225 -2.3228 -0.0871
 6481TIP3    H240935   4.029   1.871   3.505  1.3702  2.1585  0.1066
 6482TIP3   OH240936   0.058   1.778  16.182 -0.3271 -0.4353  0.8788
 6482TIP3    H140937   0.058   1.682  16.174 -0.7827 -0.2927 -1.5768
 6482TIP3    H240938   0.082   1.809  16.095 -2.0247  1.7087  1.0957
 6483TIP3   OH240939   4.578   3.597   3.437  0.3214 -0.2713 -0.2078
 6483TIP3    H140940   4.580   3.633   3.348  0.9073 -1.5582 -0.7406
 6483TIP3    H240941   4.663   3.621   3.474 -0.3657  1.2859  0.4642
 6484TIP3   OH240942   4.362   0.210   0.990  0.5744  0.8695  0.5332
 6484TIP3    H140943   4.317   0.286   0.955  1.4016  2.5343  2.8524
 6484TIP3    H240944   4.441   0.202   0.937 -0.1008  0.8780 -0.4866
 6485TIP3   OH240945   5.171   0.178   2.157 -0.1254 -0.1436 -0.3965
 6485TIP3    H140946   5.094   0.122   2.164 -1.4278  1.5076 -0.8850
 6485TIP3    H240947   5.145   0.259   2.200  2.3082 -0.4286  1.8738
 6486TIP3   OH240948   4.603   4.345   5.865 -0.0178 -0.4310  0.2943
 6486TIP3    H140949   4.529   4.310   5.914 -0.5164 -0.8509 -0.7368
 6486TIP3    H240950   4.676   4.286   5.885  0.1478  0.1449  1.5354
 6487TIP3   OH240951   3.061   1.631  11.248  0.0824 -0.0023  0.4732
 6487TIP3    H140952   3.156   1.630  11.236 -0.0432 -1.7656 -0.9398
 6487TIP3    H240953   3.048   1.639  11.343  1.6230  0.3796  0.6746
 6488TIP3   OH240954   5.486   5.603   0.056  0.7913  0.5315  0.3937
 6488TIP3    H140955   5.542   5.592   0.133 -0.7496  0.0985  1.4986
 6488TIP3    H240956   5.547   5.624  -0.015  2.3506 -0.0278  1.5097
 6489TIP3   OH240957   4.697   1.329  14.159  0.1090  0.1300 -0.4013
 6489TIP3    H140958   4.604   1.334  14.179  0.5385 -0.0959  1.8741
 6489TIP3    H240959   4.709   1.392  14.088 -2.0916 -1.3821 -2.2796
 6490TIP3   OH240960   2.966   0.708  14.236  0.2705 -0.1702 -0.0832
 6490TIP3    H140961   2.872   0.704  14.257 -0.1644  1.3977 -1.5230
 6490TIP3    H240962   2.981   0.630  14.184  0.1130 -1.1575  1.2833
 6491TIP3   OH240963   5.966   4.986   1.737  0.3960  0.0488 -0.7290
 6491TIP3    H140964   5.999   5.061   1.687 -1.5929 -0.0919 -2.3842
 6491TIP3    H240965   6.022   4.913   1.711  2.1960  0.8282  0.7117
 6492TIP3   OH240966   5.878   5.645  14.427  0.5062 -0.3662  0.0718
 6492TIP3    H140967   5.869   5.559  14.386  0.9068 -0.6777  0.6186
 6492TIP3    H240968   5.794   5.688  14.412  0.3249 -0.8315 -0.2594
 6493TIP3   OH240969   0.870   4.863  14.411 -0.0820 -0.0593  0.3463
 6493TIP3    H140970   0.920   4.883  14.490 -0.2093 -0.4354  0.5216
 6493TIP3    H240971   0.796   4.811  14.441  0.8736 -1.8486 -0.2181
 6494TIP3   OH240972   6.238   3.859  12.378 -0.0939 -0.5970 -0.1492
 6494TIP3    H140973   6.313   3.888  12.327 -2.1359 -0.1621 -3.1189
 6494TIP3    H240974   6.207   3.938  12.422  1.0436 -0.7665  1.0473
 6495TIP3   OH240975   6.294   3.542  15.993 -0.3584  0.2756  0.3588
 6495TIP3    H140976   6.281   3.501  16.078 -0.0977  0.7182  0.6170
 6495TIP3    H240977   6.269   3.634  16.006  0.6559  0.5839  0.2427
 6496TIP3   OH240978   5.164   3.139   4.401 -0.4831  0.2732 -0.8096
 6496TIP3    H140979   5.212   3.151   4.483  1.8439  1.5265 -2.2429
 6496TIP3    H240980   5.163   3.226   4.360 -2.2439 -0.1566 -1.8166
 6497TIP3   OH240981   2.819   4.494  13.882 -1.0494  0.5772 -0.4615
 6497TIP3    H140982   2.845   4.566  13.940  1.2555  0.1991 -0.9278
 6497TIP3    H240983   2.884   4.496  13.811 -1.9601 -0.9154 -1.3857
 6498TIP3   OH240984   3.351   3.458   3.824  0.1689  0.1431 -0.4987
 6498TIP3    H140985   3.429   3.511   3.839  0.1605 -0.4804  2.5106
 6498TIP3    H240986   3.376   3.396   3.755  1.2935  1.8425 -1.6772
 6499TIP3   OH240987   1.256   5.515   4.216 -0.3255  0.7423  0.4844
 6499TIP3    H140988   1.325   5.516   4.283 -0.1786 -1.5360  0.4721
 6499TIP3    H240989   1.177   5.490   4.263 -0.6309  0.9754  0.1042
 6500TIP3   OH240990   5.992   4.704   3.392  0.4671 -0.2916  0.6222
 6500TIP3    H140991   5.921   4.764   3.412 -0.2522 -0.8455 -0.1954
 6500TIP3    H240992   6.060   4.724   3.456 -1.3550 -1.3606  3.0491
 6501TIP3   OH240993   1.336   1.744  16.666 -0.4715  0.6912  0.0044
 6501TIP3    H140994   1.361   1.684  16.596  0.5979 -1.0768  1.8063
 6501TIP3    H240995   1.414   1.752  16.721 -1.5834  1.1475  1.6019
 6502TIP3   OH240996   6.588   3.255  14.068 -0.5432  0.1018  0.6034
 6502TIP3    H140997   6.618   3.327  14.123  0.5554 -0.3122  0.5641
 6502TIP3    H240998   6.665   3.200  14.056 -0.8566 -0.0339 -1.0169
 6503TIP3   OH240999   5.193   5.573   1.198  0.9119  0.7412 -0.0445
 6503TIP3    H141000   5.198   5.496   1.255  2.7477  0.1566 -0.9153
 6503TIP3    H241001   5.134   5.633   1.243 -1.0308 -1.3634  0.4058
 6504TIP3   OH241002   6.430   2.121   4.071 -0.3729  0.0413  0.2229
 6504TIP3    H141003   6.444   2.214   4.053 -1.2164  0.0642 -0.3537
 6504TIP3    H241004   6.503   2.078   4.025  0.4541  0.4494  1.1165
 6505TIP3   OH241005   5.434   6.495  16.620 -0.3341  0.3686 -0.1254
 6505TIP3    H141006   5.461   6.587  16.622 -0.1019  0.3346 -1.1312
 6505TIP3    H241007   5.435   6.472  16.528 -0.7362 -0.5508  0.0893
 6506TIP3   OH241008   2.282   4.769   0.338 -0.5452  0.0475 -0.6517
 6506TIP3    H141009   2.343   4.837   0.309 -0.7753  0.3085 -0.5285
 6506TIP3    H241010   2.261   4.720   0.259 -0.5965  0.2952 -0.7911
 6507TIP3   OH241011   2.483   4.807  12.166  0.1193  0.1054 -0.2457
 6507TIP3    H141012   2.471   4.712  12.159 -1.0034  0.3197 -1.5624
 6507TIP3    H241013   2.567   4.823  12.124  0.0004 -0.2252 -0.6133
 6508TIP3   OH241014   3.717   0.785  12.062 -0.1669  0.1853 -0.3622
 6508TIP3    H141015   3.684   0.696  12.068 -0.3082  0.2407 -0.3265
 6508TIP3    H241016   3.660   0.836  12.120 -0.2553  0.3503 -0.5937
 6509TIP3   OH241017   0.873   1.388   1.765  0.0054  0.0931  0.0711
 6509TIP3    H141018   0.845   1.417   1.852 -0.9066 -0.7723  0.0880
 6509TIP3    H241019   0.841   1.457   1.706 -0.4869  0.0684  0.3006
 6510TIP3   OH241020   0.658   6.274  12.457 -0.0607  0.3981 -0.5475
 6510TIP3    H141021   0.640   6.207  12.523 -1.4847  1.4566  0.1940
 6510TIP3    H241022   0.752   6.291  12.465  0.6298 -2.3598 -1.6343
 6511TIP3   OH241023   2.134   2.764  13.955  0.6189  0.1789  0.0688
 6511TIP3    H141024   2.204   2.753  14.019 -1.9995 -1.9446  2.8026
 6511TIP3    H241025   2.084   2.682  13.958 -1.6456  1.3083 -2.2393
 6512TIP3   OH241026   1.297   6.777   4.736  0.0584  0.3044 -0.0581
 6512TIP3    H141027   1.203   6.767   4.752  0.3817  0.4522  2.3827
 6512TIP3    H241028   1.312   6.731   4.653 -2.2655  0.9760 -0.9273
 6513TIP3   OH241029   6.168   3.287  13.404  0.0636  0.3009  0.8555
 6513TIP3    H141030   6.107   3.359  13.422 -0.1721 -0.1246  1.8314
 6513TIP3    H241031   6.238   3.299  13.467 -0.7502 -1.1988  2.1011
 6514TIP3   OH241032   2.957   0.337   6.021  0.5511  0.2633 -0.6308
 6514TIP3    H141033   2.993   0.315   6.106  0.5043 -0.3018 -0.7531
 6514TIP3    H241034   2.884   0.395   6.040 -0.2150 -0.8069 -0.1995
 6515TIP3   OH241035   1.864   5.149  15.765 -0.0820  0.6808  0.2416
 6515TIP3    H141036   1.858   5.242  15.789 -1.9294  0.5645  0.3305
 6515TIP3    H241037   1.778   5.127  15.729  0.3043 -1.0197  0.2642
 6516TIP3   OH241038   5.331   6.538   5.624 -0.3419 -0.3130  0.4786
 6516TIP3    H141039   5.278   6.481   5.680  0.6261 -1.1336  0.5981
 6516TIP3    H241040   5.348   6.615   5.678  0.2209 -0.9096  1.1867
 6517TIP3   OH241041   4.979   4.496  12.547  0.6676  0.8556 -0.6133
 6517TIP3    H141042   4.930   4.578  12.556  1.4974  1.1458  2.2063
 6517TIP3    H241043   5.065   4.516  12.585  0.8742 -1.3369  0.1972
 6518TIP3   OH241044   2.967   6.126   0.855  0.0852 -0.0168 -0.3119
 6518TIP3    H141045   3.031   6.194   0.875  1.0403 -0.8356 -0.5425
 6518TIP3    H241046   3.016   6.044   0.861 -1.1301 -0.7334  0.3604
 6519TIP3   OH241047   1.862   4.099   0.350  0.3191 -0.1487 -0.1721
 6519TIP3    H141048   1.823   4.181   0.381  0.3161 -0.6915  1.3693
 6519TIP3    H241049   1.870   4.045   0.429 -1.6272 -2.4830 -1.4416
 6520TIP3   OH241050   0.706   4.320   6.364  0.8377  0.1118  0.0966
 6520TIP3    H141051   0.675   4.304   6.274  0.4588  0.3425  0.1831
 6520TIP3    H241052   0.758   4.400   6.357 -0.6022  1.1146  0.3719
 6521TIP3   OH241053   1.725   2.576  15.637  0.0880 -0.3510  0.2210
 6521TIP3    H141054   1.730   2.614  15.725  1.7572  0.0962 -0.0405
 6521TIP3    H241055   1.654   2.624  15.594  0.9900  1.2617  0.4764
 6522TIP3   OH241056   1.309   3.295   0.359 -0.6243  0.6794  0.2540
 6522TIP3    H141057   1.284   3.316   0.269 -0.8592 -0.0492  0.1386
 6522TIP3    H241058   1.296   3.376   0.407 -0.9198  0.9603 -0.2827
 6523TIP3   OH241059   0.260   3.430   3.275 -0.1047 -0.0175  0.1630
 6523TIP3    H141060   0.277   3.386   3.358  1.2835  0.0554 -0.0565
 6523TIP3    H241061   0.277   3.522   3.292  0.8920 -0.0967 -0.3749
 6524TIP3   OH241062   6.235   6.760   2.309  0.1049 -0.0809 -0.3541
 6524TIP3    H141063   6.274   6.674   2.293  1.3931  0.6575 -1.4575
 6524TIP3    H241064   6.255   6.779   2.400  2.6064  0.3323 -0.9104
 6525TIP3   OH241065   6.805   4.058  12.819  0.3772 -1.0014 -0.3564
 6525TIP3    H141066   6.854   3.982  12.849  2.5251  1.1162  1.9493
 6525TIP3    H241067   6.735   4.070  12.883  1.3585  0.1334  0.5448
 6526TIP3   OH241068   5.888   4.753   2.716 -0.3458  0.2884  0.0104
 6526TIP3    H141069   5.889   4.791   2.804  1.0997  1.1816 -0.3563
 6526TIP3    H241070   5.854   4.823   2.660  0.9540  0.5697 -0.4624
 6527TIP3   OH241071   6.188   1.771  15.362  0.4056 -0.0073 -0.7544
 6527TIP3    H141072   6.119   1.837  15.365  0.6324  0.2169 -0.3650
 6527TIP3    H241073   6.182   1.725  15.446  1.7811  1.1238  0.0088
 6528TIP3   OH241074   1.621   0.780   0.988  0.1560 -0.2167 -0.2401
 6528TIP3    H141075   1.531   0.792   0.957 -0.3654 -1.4795  0.6568
 6528TIP3    H241076   1.624   0.826   1.072  0.0207 -0.9892  0.2045
 6529TIP3   OH241077   0.882   4.634   0.870 -0.3206 -0.1853 -0.0046
 6529TIP3    H141078   0.892   4.725   0.899  1.2585  0.0727 -1.2655
 6529TIP3    H241079   0.896   4.583   0.949  0.5147  0.6070  0.3765
 6530TIP3   OH241080   0.292   2.150  13.394  0.4132 -0.3109  0.0266
 6530TIP3    H141081   0.281   2.079  13.458  4.0515 -1.0833 -0.0126
 6530TIP3    H241082   0.365   2.122  13.339  0.3774  2.4109 -1.6045
 6531TIP3   OH241083   0.266   1.520   3.716  0.0965 -0.6430  0.2759
 6531TIP3    H141084   0.177   1.545   3.741  0.2408 -2.0297  2.4463
 6531TIP3    H241085   0.300   1.597   3.670 -1.8115  0.3636  0.4261
 6532TIP3   OH241086   2.156   3.261   2.342  0.4268 -0.3809  0.3739
 6532TIP3    H141087   2.192   3.328   2.284  0.2880  1.3182  2.1612
 6532TIP3    H241088   2.178   3.178   2.300  0.0358  0.7546 -2.2593
 6533TIP3   OH241089   5.999   3.172  10.702 -0.0570  0.0425  0.1960
 6533TIP3    H141090   6.072   3.210  10.654  0.4833  0.6733  1.4717
 6533TIP3    H241091   6.040   3.107  10.760 -0.5664  0.0148  0.5339
 6534TIP3   OH241092   6.613   2.894  10.647 -0.1611 -0.4687 -0.2476
 6534TIP3    H141093   6.597   2.947  10.569 -1.0088  0.4107  0.4792
 6534TIP3    H241094   6.526   2.884  10.687  0.5577  1.6639  2.1454
 6535TIP3   OH241095   4.418   3.109  16.319  0.5089 -0.0634  0.1647
 6535TIP3    H141096   4.346   3.134  16.262 -0.3266  2.5570  2.2162
 6535TIP3    H241097   4.494   3.105  16.261 -0.4364  1.7087 -1.2879
 6536TIP3   OH241098   6.825   6.168   0.074  0.2733  0.1715 -0.1287
 6536TIP3    H141099   6.901   6.226   0.079  0.0919  0.5783 -1.4316
 6536TIP3    H241100   6.847   6.106   0.004 -0.2020 -0.2999  0.1380
 6537TIP3   OH241101   5.155   4.117  15.948 -0.5312 -0.2823 -0.1042
 6537TIP3    H141102   5.090   4.185  15.967  0.7480  1.0970 -0.5128
 6537TIP3    H241103   5.229   4.138  16.005  0.1711 -0.9161 -0.7632
 6538TIP3   OH241104   2.598   0.570  17.103  0.3976  0.2124  0.2030
 6538TIP3    H141105   2.577   0.482  17.133  1.9851  0.3987  2.0200
 6538TIP3    H241106   2.605   0.561  17.007 -0.2348 -1.4302  0.2742
 6539TIP3   OH241107   6.272   5.411   4.013 -0.0361 -0.0321  0.0004
 6539TIP3    H141108   6.194   5.463   3.991  0.2173  0.7064  0.7733
 6539TIP3    H241109   6.240   5.321   4.017 -0.7114  0.1819 -0.3517
 6540TIP3   OH241110   5.518   1.723   1.962  0.0519 -0.1763  0.1548
 6540TIP3    H141111   5.530   1.734   1.868  0.6732 -0.5749  0.1749
 6540TIP3    H241112   5.596   1.764   2.001  0.0934 -0.5393  0.4595
 6541TIP3   OH241113   4.236   3.652   1.876  0.3044  0.1583 -0.5712
 6541TIP3    H141114   4.180   3.642   1.953  1.4154  0.8066  0.3593
 6541TIP3    H241115   4.321   3.617   1.904  0.8189  0.7398 -1.3706
 6542TIP3   OH241116   5.091   4.363  16.316 -0.0866 -0.0476 -0.0004
 6542TIP3    H141117   5.024   4.307  16.278  0.6330 -0.6564 -0.3894
 6542TIP3    H241118   5.051   4.398  16.395  0.0008 -2.3853  1.1455
 6543TIP3   OH241119   4.650   1.483   2.121 -0.7760  0.0696 -0.5391
 6543TIP3    H141120   4.730   1.503   2.073 -1.2972  0.2797 -1.3280
 6543TIP3    H241121   4.579   1.514   2.065 -1.4093  0.0438  0.2277
 6544TIP3   OH241122   3.256   4.154   0.066  0.0980 -0.3070  0.1387
 6544TIP3    H141123   3.314   4.116   0.001 -0.5295 -0.7114 -0.1961
 6544TIP3    H241124   3.182   4.093   0.072 -0.6025  0.5116  0.0849
 6545TIP3   OH241125   0.618   0.896   3.196 -0.3735 -0.3480 -0.0610
 6545TIP3    H141126   0.587   0.977   3.155 -0.0520 -0.0732  0.2260
 6545TIP3    H241127   0.576   0.826   3.146  1.3125 -0.0852 -1.9978
 6546TIP3   OH241128   1.288   4.383  12.364 -0.2967  0.2092 -0.2021
 6546TIP3    H141129   1.229   4.389  12.289 -1.1596  0.3236  0.4803
 6546TIP3    H241130   1.317   4.473  12.379 -1.3635  0.4413  0.5709
 6547TIP3   OH241131   5.697   2.911   5.466 -0.1923  0.1157 -0.1148
 6547TIP3    H141132   5.674   2.916   5.559 -0.0534  2.9293 -0.1421
 6547TIP3    H241133   5.612   2.908   5.421 -0.3701  1.7966  0.0518
 6548TIP3   OH241134   5.114   0.788  13.042  0.1084 -0.8160  0.0386
 6548TIP3    H141135   5.094   0.694  13.037  0.1937 -0.8013 -0.7998
 6548TIP3    H241136   5.206   0.794  13.016  0.3297 -0.5706  0.8559
 6549TIP3   OH241137   2.231   2.120   1.405  0.4000  0.6895 -0.1894
 6549TIP3    H141138   2.250   2.198   1.353 -1.8140  1.7627  0.4977
 6549TIP3    H241139   2.148   2.139   1.448 -0.5065 -2.2713 -0.4171
 6550TIP3   OH241140   5.484   5.878  14.691  0.1939  0.7863 -0.1321
 6550TIP3    H141141   5.450   5.965  14.712 -0.4538  0.1686  1.5980
 6550TIP3    H241142   5.409   5.820  14.700  0.6184  0.0364 -1.2852
 6551TIP3   OH241143   2.964   2.877  14.549 -0.4327  0.1844 -0.4657
 6551TIP3    H141144   3.022   2.803  14.532  1.8261  2.1927 -2.1333
 6551TIP3    H241145   2.897   2.842  14.609  2.9190 -2.0871  2.3262
 6552TIP3   OH241146   2.684   4.554   2.452 -0.4003  0.5599 -0.4270
 6552TIP3    H141147   2.663   4.590   2.366 -0.8015  1.0626 -0.1269
 6552TIP3    H241148   2.617   4.591   2.510 -2.0936 -2.2081 -0.4220
 6553TIP3   OH241149   3.699   0.193   6.353 -0.5602 -0.5675 -0.7925
 6553TIP3    H141150   3.791   0.174   6.334 -0.1057  0.3841  0.3638
 6553TIP3    H241151   3.698   0.286   6.373 -1.8822 -0.4574 -1.3256
 6554TIP3   OH241152   3.471   3.363  12.260  0.3049  0.3782  0.0441
 6554TIP3    H141153   3.544   3.414  12.225  0.2776  1.2817  1.2312
 6554TIP3    H241154   3.393   3.414  12.238  0.0950 -0.1545 -0.4736
 6555TIP3   OH241155   5.651   3.450  14.881  0.3115 -0.5457  0.2543
 6555TIP3    H141156   5.601   3.518  14.927  1.9357  0.6397  0.3806
 6555TIP3    H241157   5.742   3.463  14.910  0.4423 -4.2074  1.9954
 6556TIP3   OH241158   5.429   5.084  11.531 -0.1571 -0.2517  0.4939
 6556TIP3    H141159   5.367   5.155  11.515 -2.0605 -1.7328  0.9481
 6556TIP3    H241160   5.414   5.059  11.622  0.9864 -0.7792  0.5458
 6557TIP3   OH241161   4.540   0.583  11.770  0.1125  0.3317 -0.7293
 6557TIP3    H141162   4.535   0.557  11.678 -2.0183 -3.8656  0.3316
 6557TIP3    H241163   4.452   0.615  11.790  0.3743  0.6004 -0.0006
 6558TIP3   OH241164   5.718   1.784  16.197  0.2233 -0.8407  0.5372
 6558TIP3    H141165   5.725   1.840  16.120 -3.0854  0.3083  0.9191
 6558TIP3    H241166   5.657   1.715  16.171  0.5059 -1.4936  1.5572
 6559TIP3   OH241167   3.372   4.350   2.507  0.1835  0.6462  0.3300
 6559TIP3    H141168   3.456   4.336   2.551 -0.2293 -1.5943  0.5079
 6559TIP3    H241169   3.312   4.377   2.577  0.1060 -0.5287  0.7323
 6560TIP3   OH241170   5.233   5.669  16.011 -0.1879  0.3699  0.4927
 6560TIP3    H141171   5.181   5.594  16.041  0.0312  0.4396  1.0450
 6560TIP3    H241172   5.267   5.640  15.926  1.5467 -0.9766  1.5729
 6561TIP3   OH241173   4.223   1.080   0.074 -0.0908 -0.0245 -0.3427
 6561TIP3    H141174   4.152   1.053   0.132  2.1479 -2.0666  1.6816
 6561TIP3    H241175   4.277   1.138   0.128  0.7967 -0.0440 -1.1871
 6562TIP3   OH241176   0.856   6.227   6.364  0.1469  0.2738 -0.2439
 6562TIP3    H141177   0.810   6.177   6.431  0.2393  0.9504  0.3341
 6562TIP3    H241178   0.789   6.284   6.325  0.6139  1.9217  1.2165
 6563TIP3   OH241179   6.174   4.421  15.356 -0.2533  0.5494 -0.9332
 6563TIP3    H141180   6.148   4.374  15.277  1.1022  1.1321 -1.7772
 6563TIP3    H241181   6.190   4.353  15.421 -0.5489  0.0043 -1.4301
 6564TIP3   OH241182   5.856   3.551   4.096  0.0847  0.5182  0.6789
 6564TIP3    H141183   5.889   3.628   4.050  0.0583  0.8617  1.2290
 6564TIP3    H241184   5.761   3.561   4.093  0.1005  0.9728  1.5282
 6565TIP3   OH241185   0.557   4.898  14.495  0.1614  0.3947  0.0596
 6565TIP3    H141186   0.586   4.808  14.506  1.7695  0.9381  0.5979
 6565TIP3    H241187   0.471   4.891  14.453 -0.7706 -1.4259  2.0774
 6566TIP3   OH241188   3.138   3.192  11.399  0.7396 -0.2864 -0.7268
 6566TIP3    H141189   3.200   3.169  11.330  2.5584  1.2218  0.3142
 6566TIP3    H241190   3.144   3.287  11.406  0.0406 -0.3272  0.9962
 6567TIP3   OH241191   5.027   1.728   1.876  0.3324 -0.1118 -0.2229
 6567TIP3    H141192   5.035   1.756   1.785  0.6757 -0.0396 -0.1703
 6567TIP3    H241193   5.013   1.809   1.925  1.1639 -0.0446 -0.0902
 6568TIP3   OH241194   5.357   2.030   0.955 -0.1409 -0.0709 -0.7437
 6568TIP3    H141195   5.314   1.995   1.033  1.0510  2.3078  1.0878
 6568TIP3    H241196   5.284   2.062   0.901 -0.9324 -0.9726 -0.2499
 6569TIP3   OH241197   3.978   5.173   5.682 -0.2725 -0.6170 -0.1580
 6569TIP3    H141198   3.950   5.084   5.661  1.5569 -1.3650  0.4062
 6569TIP3    H241199   4.071   5.165   5.702 -0.4096  1.1780  1.4612
 6570TIP3   OH241200   4.701   1.993   0.013  0.0195 -0.3866  0.0130
 6570TIP3    H141201   4.789   1.972   0.043  0.2293  0.2127 -0.1773
 6570TIP3    H241202   4.669   1.910  -0.024  0.5903 -0.5501 -0.1335
 6571TIP3   OH241203   1.800   3.015  13.470  0.2807 -0.7423  0.0228
 6571TIP3    H141204   1.713   2.985  13.497  0.1384 -0.8832 -0.5701
 6571TIP3    H241205   1.822   3.083  13.533 -0.5110 -0.3028 -0.1539
 6572TIP3   OH241206   1.111   0.161  16.975 -0.1848 -0.0879 -0.1883
 6572TIP3    H141207   1.157   0.091  16.929  1.2122  0.4129  0.4061
 6572TIP3    H241208   1.173   0.234  16.976 -0.9997  0.6120  0.6267
 6573TIP3   OH241209   4.588   6.496  15.096 -0.4756 -0.0884  0.1358
 6573TIP3    H141210   4.622   6.526  15.180 -0.9971  0.4955  0.1461
 6573TIP3    H241211   4.493   6.497  15.106 -0.6258  1.5273 -0.9493
 6574TIP3   OH241212   6.788   3.327   2.065 -0.0458  0.5413 -0.6067
 6574TIP3    H141213   6.724   3.397   2.080 -0.0446  0.2720  0.7718
 6574TIP3    H241214   6.801   3.326   1.970 -0.1122  2.3486 -0.6626
 6575TIP3   OH241215   1.050   5.908   0.502  0.2017 -0.4749  0.1798
 6575TIP3    H141216   1.067   5.825   0.459  1.1255 -0.5197  0.6084
 6575TIP3    H241217   1.054   5.973   0.432  1.1400 -0.6071  0.0980
 6576TIP3   OH241218   2.990   1.850   5.578  0.1367  0.4073  0.2564
 6576TIP3    H141219   2.929   1.780   5.600 -0.0127 -0.5144 -2.6245
 6576TIP3    H241220   3.076   1.808   5.575  0.0544  0.2731 -1.4342
 6577TIP3   OH241221   0.720   2.434   3.953  0.1113  0.2890 -0.3588
 6577TIP3    H141222   0.716   2.342   3.978 -0.8518  0.9363  2.1832
 6577TIP3    H241223   0.806   2.444   3.912  0.3204 -1.6717 -0.5100
 6578TIP3   OH241224   1.097   0.903  14.216 -0.0234  0.3487  0.6734
 6578TIP3    H141225   1.019   0.849  14.223 -0.1457  0.4268 -0.0101
 6578TIP3    H241226   1.064   0.992  14.208  0.1410  0.3955  0.5182
 6579TIP3   OH241227   4.083   2.288  14.559 -0.3389 -0.4794  0.0659
 6579TIP3    H141228   4.111   2.357  14.498 -0.6718 -0.0575  0.3796
 6579TIP3    H241229   4.052   2.217  14.503  0.8635 -0.7437 -0.2786
 6580TIP3   OH241230   0.129   0.176   5.101 -0.8371 -0.5133  0.3088
 6580TIP3    H141231   0.137   0.171   5.005 -1.7047  1.0941  0.1300
 6580TIP3    H241232   0.195   0.240   5.127 -0.7484 -0.7934  0.7763
 6581TIP3   OH241233   5.999   0.311   3.783  0.8885  0.0627 -0.0518
 6581TIP3    H141234   6.003   0.389   3.727 -0.9743 -0.7285 -1.4270
 6581TIP3    H241235   5.992   0.238   3.721  2.1266 -1.1751  1.2155
 6582TIP3   OH241236   3.649   6.533   2.787 -0.4166 -0.0614  0.6346
 6582TIP3    H141237   3.707   6.543   2.863  0.3725 -0.6048  0.1119
 6582TIP3    H241238   3.704   6.554   2.712 -1.2746  0.7802  0.2109
 6583TIP3   OH241239   2.780   1.099   4.160 -0.1941  0.4982 -0.3887
 6583TIP3    H141240   2.796   1.193   4.168  1.6363  0.3095 -1.4350
 6583TIP3    H241241   2.703   1.092   4.104 -1.0129  1.3659  0.5896
 6584TIP3   OH241242   4.944   0.496   0.001 -0.2724  0.0625  0.1560
 6584TIP3    H141243   4.997   0.418  -0.014 -0.4948 -0.1269  0.3469
 6584TIP3    H241244   4.856   0.463   0.019 -0.4426  0.3715 -0.0901
 6585TIP3   OH241245   0.648   1.644   2.609  0.0873  0.3132 -0.0682
 6585TIP3    H141246   0.588   1.622   2.538  0.7339  1.7968 -1.1556
 6585TIP3    H241247   0.735   1.634   2.570  0.4601  3.8195 -0.5246
 6586TIP3   OH241248   3.264   2.789   1.220  0.0952 -0.0561 -0.0911
 6586TIP3    H141249   3.216   2.760   1.298  2.1964  0.7167  1.6068
 6586TIP3    H241250   3.274   2.709   1.168 -2.1469 -0.4066 -0.0887
 6587TIP3   OH241251   1.742   3.756   5.860  0.0154 -0.2758 -0.6479
 6587TIP3    H141252   1.793   3.836   5.867 -0.9775  0.6383 -2.8508
 6587TIP3    H241253   1.771   3.716   5.778  1.0341 -2.6257  0.7717
 6588TIP3   OH241254   6.782   4.115   5.332 -0.1566 -0.0223 -0.4619
 6588TIP3    H141255   6.742   4.079   5.411 -1.4999 -2.2756 -2.0341
 6588TIP3    H241256   6.873   4.087   5.336 -0.1086  0.2400  0.4602
 6589TIP3   OH241257   0.016   0.945   6.500  0.0848  0.8178 -0.6028
 6589TIP3    H141258  -0.077   0.924   6.512  0.5395 -1.5452 -0.6642
 6589TIP3    H241259   0.020   0.990   6.416 -0.9034  0.0254 -1.0988
 6590TIP3   OH241260   4.099   0.941  13.009  0.4076  0.0884 -0.1407
 6590TIP3    H141261   4.059   0.877  12.950  0.4045  0.5645 -0.6575
 6590TIP3    H241262   4.096   1.023  12.961  0.7673  0.4022  0.3683
 6591TIP3   OH241263   4.481   5.127   4.604 -0.5539 -0.3806 -0.3527
 6591TIP3    H141264   4.456   5.153   4.693 -1.1599 -1.5431 -0.1661
 6591TIP3    H241265   4.497   5.033   4.609 -1.2208 -0.5911 -1.5923
 6592TIP3   OH241266   2.646   4.122   5.909  0.2638 -0.1173 -0.0970
 6592TIP3    H141267   2.638   4.035   5.948  0.3965 -0.7257 -1.4049
 6592TIP3    H241268   2.734   4.123   5.872 -0.4139 -0.1354 -1.7591
 6593TIP3   OH241269   2.585   4.013  12.640 -0.3112  0.4450  0.2246
 6593TIP3    H141270   2.503   4.054  12.670 -1.0342 -0.0092 -1.0467
 6593TIP3    H241271   2.585   4.026  12.545 -0.8997 -2.9676 -0.3614
 6594TIP3   OH241272   2.043   4.770  15.866  0.5935 -0.3696 -0.1406
 6594TIP3    H141273   2.026   4.679  15.843 -0.1332 -0.3577  0.3236
 6594TIP3    H241274   2.096   4.803  15.794  2.5544 -1.6902  0.5915
 6595TIP3   OH241275   4.370   6.633   5.619  0.0614  0.2620  0.1746
 6595TIP3    H141276   4.279   6.623   5.592 -0.1970 -0.9855  1.3690
 6595TIP3    H241277   4.368   6.625   5.715  1.1628  2.4837  0.4513
 6596TIP3   OH241278   0.063   3.616   1.623  0.1632  0.0634 -0.0684
 6596TIP3    H141279  -0.024   3.638   1.590  1.2983  2.0993 -1.9891
 6596TIP3    H241280   0.087   3.690   1.679 -0.0670 -1.4290  2.1291
 6597TIP3   OH241281   0.266   3.819  10.730  0.1318  0.3013 -0.4038
 6597TIP3    H141282   0.337   3.760  10.707 -0.0976 -0.4600  0.7546
 6597TIP3    H241283   0.206   3.765  10.781  0.6409  1.8236  1.9886
 6598TIP3   OH241284   1.213   2.524   1.930  0.4206 -0.2100  0.0621
 6598TIP3    H141285   1.207   2.443   1.980 -0.3089  0.2319  0.7133
 6598TIP3    H241286   1.186   2.499   1.841 -1.3339 -0.3790  0.6111
 6599TIP3   OH241287   5.147   0.942   5.009  0.3203  0.6828 -0.3503
 6599TIP3    H141288   5.212   0.955   4.939  2.7907 -3.3692  0.8655
 6599TIP3    H241289   5.071   0.906   4.965  1.5442 -1.0587 -1.1260
 6600TIP3   OH241290   3.007   1.874   5.241 -0.0051 -0.6586 -0.0391
 6600TIP3    H141291   2.915   1.871   5.217  0.1378 -0.9994 -0.5742
 6600TIP3    H241292   3.017   1.806   5.308 -0.2295 -0.3187  0.3403
 6601TIP3   OH241293   3.910   4.210  11.320  0.6077 -0.3427  0.0224
 6601TIP3    H141294   3.952   4.287  11.282  1.9683 -1.9029 -1.8412
 6601TIP3    H241295   3.850   4.180  11.252 -1.0029 -0.1357  1.3080
 6602TIP3   OH241296   5.541   6.174  15.779  0.1383  0.4754 -0.1401
 6602TIP3    H141297   5.455   6.140  15.754 -0.4216 -0.2341  2.3910
 6602TIP3    H241298   5.540   6.265  15.750 -1.1789  0.2742 -0.7928
 6603TIP3   OH241299   1.990   0.042  15.650 -0.0994 -0.2362 -0.2416
 6603TIP3    H141300   1.954   0.082  15.571  1.5111 -2.2363 -2.1275
 6603TIP3    H241301   2.081   0.074  15.654 -0.9629  2.4014  2.7579
 6604TIP3   OH241302   1.973   6.576   1.508 -0.5082  0.3107 -1.3313
 6604TIP3    H141303   2.014   6.583   1.422  2.6428 -1.8049 -0.1510
 6604TIP3    H241304   2.043   6.597   1.570 -2.8559  2.4968  0.8238
 6605TIP3   OH241305   2.432   1.034  11.829  0.4296  0.4631 -0.3781
 6605TIP3    H141306   2.417   0.960  11.888  2.0662 -0.5692 -1.1811
 6605TIP3    H241307   2.442   1.110  11.887  1.0501 -0.3609  0.6164
 6606TIP3   OH241308   5.210   0.445  11.990 -0.4599  0.2743  0.0221
 6606TIP3    H141309   5.191   0.357  11.958 -0.2188  0.7851 -1.6179
 6606TIP3    H241310   5.138   0.499  11.957 -0.0481  0.8850  0.0891
 6607TIP3   OH241311   6.095   3.916  11.510 -0.1976  0.2280 -0.4145
 6607TIP3    H141312   6.018   3.969  11.532 -0.1422  0.6895 -1.2784
 6607TIP3    H241313   6.167   3.957  11.558 -0.3415  0.2912 -0.2486
 6608TIP3   OH241314   4.098   1.491   0.008  0.4801 -0.0262  0.0697
 6608TIP3    H141315   4.069   1.418   0.063  1.8010 -1.3263 -0.8675
 6608TIP3    H241316   4.049   1.566   0.040 -0.2111 -1.1212  1.7300
 6609TIP3   OH241317   0.368   5.131  12.178  0.1346 -0.6989  0.4874
 6609TIP3    H141318   0.380   5.153  12.270 -0.1747 -0.2049  0.4136
 6609TIP3    H241319   0.456   5.131  12.141  0.0625  2.4374  0.0515
 6610TIP3   OH241320   1.971   3.598  16.137  0.2458 -0.5488  1.1826
 6610TIP3    H141321   1.886   3.632  16.110  1.1054  1.5138  0.9175
 6610TIP3    H241322   1.990   3.528  16.074 -0.2270  0.5376 -0.2255
 6611TIP3   OH241323   2.557   5.944   6.717  0.2105 -0.0370  0.5489
 6611TIP3    H141324   2.537   5.870   6.774 -0.8363  0.1446  0.4431
 6611TIP3    H241325   2.479   5.953   6.662  0.1393  1.3851  0.8375
 6612TIP3   OH241326   1.894   3.206  13.685 -0.2992 -0.1947  0.2541
 6612TIP3    H141327   1.830   3.161  13.740 -0.7194 -0.0096 -0.0788
 6612TIP3    H241328   1.860   3.295  13.677  0.8969  0.4139  1.5240
 6613TIP3   OH241329   6.061   6.219  16.253 -0.5613  0.1716  0.3187
 6613TIP3    H141330   6.113   6.246  16.177 -1.7313  0.9029 -0.2398
 6613TIP3    H241331   6.025   6.300  16.288 -1.9195 -0.3820  0.2619
 6614TIP3   OH241332   6.465   4.951   5.750 -0.4120 -0.4640 -0.4427
 6614TIP3    H141333   6.553   4.931   5.718  0.6899  1.3155  1.2026
 6614TIP3    H241334   6.430   5.014   5.687  0.6139  0.8784  0.2717
 6615TIP3   OH241335   2.454   4.238   4.483  0.1493 -0.2248  0.3988
 6615TIP3    H141336   2.466   4.254   4.390 -0.4243  0.1664  0.3815
 6615TIP3    H241337   2.460   4.325   4.523 -0.5035 -0.2737  0.6153
 6616TIP3   OH241338   3.120   0.189  15.588  0.2468 -0.5967 -0.6081
 6616TIP3    H141339   3.164   0.200  15.672  0.5471 -1.9276 -0.5641
 6616TIP3    H241340   3.187   0.152  15.531 -0.4283 -1.3824 -0.9166
 6617TIP3   OH241341   4.744   2.198   0.724 -0.2130  0.3468  0.3445
 6617TIP3    H141342   4.817   2.151   0.764  0.4910 -0.1786 -1.4381
 6617TIP3    H241343   4.713   2.140   0.655 -1.6188  1.0364  0.3604
 6618TIP3   OH241344   2.881   5.246   3.024 -0.1359  0.7765 -0.0121
 6618TIP3    H141345   2.825   5.188   3.075  0.9550  0.3594  0.7559
 6618TIP3    H241346   2.821   5.296   2.969 -0.9969 -2.7303 -2.5343
 6619TIP3   OH241347   5.769   1.962  13.334  0.6471 -0.4122  0.7126
 6619TIP3    H141348   5.686   1.960  13.381 -0.6029  0.1593 -1.3525
 6619TIP3    H241349   5.745   1.962  13.242  2.9995 -1.8588  0.0106
 6620TIP3   OH241350   3.206   2.456   0.407  0.1740  0.3418 -0.1589
 6620TIP3    H141351   3.302   2.450   0.415  0.3309  0.8680 -1.2940
 6620TIP3    H241352   3.188   2.429   0.317 -0.8662 -0.7180  0.3455
 6621TIP3   OH241353   3.127   2.712  15.757  0.6637  0.3426 -0.3252
 6621TIP3    H141354   3.035   2.697  15.733  0.7120 -1.8361  0.6137
 6621TIP3    H241355   3.170   2.629  15.736  2.1642  0.9028  0.4486
 6622TIP3   OH241356   0.292   1.636  13.344 -0.0797 -0.5508  0.1038
 6622TIP3    H141357   0.272   1.718  13.389  0.5370 -1.5063  2.2848
 6622TIP3    H241358   0.361   1.659  13.282  1.7065  0.2470  2.2396
 6623TIP3   OH241359   3.784   1.301   3.436  0.2917  0.3160  0.1023
 6623TIP3    H141360   3.799   1.238   3.366  3.6981  0.0871  0.8648
 6623TIP3    H241361   3.788   1.249   3.516  1.8816  1.2384  0.6745
 6624TIP3   OH241362   1.861   1.061  12.394  0.1551  0.0119 -0.1387
 6624TIP3    H141363   1.908   0.978  12.398  0.1267  0.0117  0.2720
 6624TIP3    H241364   1.862   1.093  12.485  0.4376  0.6078 -0.3470
 6625TIP3   OH241365   6.116   4.801   1.636 -0.0775  0.2810  0.1200
 6625TIP3    H141366   6.165   4.845   1.566 -0.9716 -0.4247 -0.9932
 6625TIP3    H241367   6.182   4.771   1.697  0.5760  3.4819  1.1601
 6626TIP3   OH241368   4.813   1.199  12.282  0.2996 -0.1408 -0.1732
 6626TIP3    H141369   4.772   1.268  12.230  0.4972 -0.2385 -0.4560
 6626TIP3    H241370   4.881   1.163  12.226  0.1934 -0.5727 -0.0258
 6627TIP3   OH241371   1.268   0.921  14.447  0.1702  0.2135  0.1939
 6627TIP3    H141372   1.213   0.867  14.503  2.7234 -1.5380  1.2110
 6627TIP3    H241373   1.227   0.918  14.361 -0.2202 -2.7565  0.4032
 6628TIP3   OH241374   6.299   1.472  15.797  0.6106 -0.8315 -0.1797
 6628TIP3    H141375   6.330   1.398  15.746 -1.0057 -0.9508 -1.0365
 6628TIP3    H241376   6.234   1.435  15.857  1.3384 -0.4323  0.8998
 6629TIP3   OH241377   3.953   3.181  11.705  0.3009  0.0697 -0.3468
 6629TIP3    H141378   3.953   3.258  11.648  1.2496 -0.4137 -1.0132
 6629TIP3    H241379   4.021   3.124  11.669  0.2208 -0.6917  0.6715
 6630TIP3   OH241380   1.969   2.875   3.463  0.0123 -0.6952  0.3004
 6630TIP3    H141381   1.912   2.952   3.472  0.5773 -0.2232 -0.0227
 6630TIP3    H241382   2.049   2.910   3.423 -0.0335 -1.6086 -0.6066
 6631TIP3   OH241383   3.528   0.269   0.368 -0.0361 -0.4002 -0.5185
 6631TIP3    H141384   3.565   0.283   0.280 -0.9293 -2.2912 -1.2591
 6631TIP3    H241385   3.604   0.264   0.425  0.6305 -0.2374 -1.3698
 6632TIP3   OH241386   1.526   4.608   6.669  0.2737  0.5580  0.1667
 6632TIP3    H141387   1.569   4.646   6.746  2.6851  1.7483 -1.6326
 6632TIP3    H241388   1.439   4.647   6.668 -0.1406 -0.1147  2.6714
 6633TIP3   OH241389   0.275   1.985   4.124  0.5195 -0.1083  0.2921
 6633TIP3    H141390   0.358   2.033   4.132 -0.3809  1.3941  1.0449
 6633TIP3    H241391   0.300   1.902   4.085  2.3461  0.4298  0.1933
 6634TIP3   OH241392   2.487   6.221  16.600  0.1635  0.2377 -0.2712
 6634TIP3    H141393   2.544   6.146  16.613  0.4653  0.6797  1.0636
 6634TIP3    H241394   2.544   6.297  16.604 -0.1344  0.5727 -1.6415
 6635TIP3   OH241395   3.366   5.218   4.211 -0.5395 -0.6935 -0.1098
 6635TIP3    H141396   3.417   5.161   4.269  0.5059 -0.3776 -0.6826
 6635TIP3    H241397   3.279   5.178   4.208  0.3459 -2.6854 -1.0470
 6636TIP3   OH241398   4.169   4.190  17.034  0.0401 -0.3050 -0.0911
 6636TIP3    H141399   4.228   4.252  17.077  1.1468  0.2357 -2.2515
 6636TIP3    H241400   4.150   4.125  17.101  1.3496  0.6786  1.3205
 6637TIP3   OH241401   3.484   0.127   5.472 -0.7889 -0.0328 -0.1854
 6637TIP3    H141402   3.502   0.220   5.464 -1.7204  0.2051  0.3726
 6637TIP3    H241403   3.413   0.110   5.411 -2.7003  0.2737  1.8004
 6638TIP3   OH241404   2.250   2.723  10.783  0.0491 -0.2403  0.0497
 6638TIP3    H141405   2.345   2.718  10.779  0.1186  0.4459  0.6580
 6638TIP3    H241406   2.220   2.667  10.712  0.8965 -0.9630  0.2367
 6639TIP3   OH241407   3.714   1.005   4.282  0.6776 -0.5356 -0.5123
 6639TIP3    H141408   3.688   0.942   4.215  2.5893  1.6245 -3.5156
 6639TIP3    H241409   3.635   1.057   4.298  0.0018 -1.5362 -0.4766
 6640TIP3   OH241410   5.169   2.430   0.442  0.5256  0.1955 -0.2221
 6640TIP3    H141411   5.219   2.349   0.446 -0.4510 -0.4801 -1.2570
 6640TIP3    H241412   5.080   2.403   0.421 -0.0495  1.4619  0.4270
 6641TIP3   OH241413   0.868   0.636   1.443  0.4403  0.5396  0.2347
 6641TIP3    H141414   0.890   0.579   1.370 -2.2079 -1.0069  0.5033
 6641TIP3    H241415   0.845   0.576   1.514  0.3753  1.9840  1.4930
 6642TIP3   OH241416   2.000   2.498   1.712 -0.3838 -0.1869  0.5873
 6642TIP3    H141417   1.971   2.545   1.633  0.5220  0.3998  0.5859
 6642TIP3    H241418   1.920   2.486   1.763 -1.2534 -1.8123 -1.0325
 6643TIP3   OH241419   0.244   1.112  15.785  0.1179  0.1550 -0.5324
 6643TIP3    H141420   0.288   1.197  15.776  0.9066 -0.0031  1.4014
 6643TIP3    H241421   0.297   1.064  15.848  0.0640 -2.0683 -2.0929
 6644TIP3   OH241422   2.692   5.439  14.305 -0.3689 -0.5137  0.9834
 6644TIP3    H141423   2.645   5.449  14.388 -1.9667 -2.3061  0.3702
 6644TIP3    H241424   2.646   5.368  14.260  2.9123 -2.3425  0.2426
 6645TIP3   OH241425   4.644   1.877   4.476  0.0583  0.1085 -0.2969
 6645TIP3    H141426   4.654   1.957   4.424 -0.6442  0.6917  0.4395
 6645TIP3    H241427   4.731   1.860   4.511  0.5001 -0.1795 -1.4801
 6646TIP3   OH241428   1.140   6.151  16.864 -0.2707  0.0987  0.7223
 6646TIP3    H141429   1.140   6.078  16.801 -0.5523  0.6919  0.0237
 6646TIP3    H241430   1.210   6.209  16.833 -0.0255  0.1210  1.2955
 6647TIP3   OH241431   2.046   4.828   1.824  0.0009 -0.5759 -0.5272
 6647TIP3    H141432   2.058   4.740   1.860 -1.8228 -0.7088 -0.1601
 6647TIP3    H241433   2.074   4.820   1.733  0.9473 -1.2357 -0.1973
 6648TIP3   OH241434   3.972   2.056   3.212  0.6233  0.0265 -0.8384
 6648TIP3    H141435   4.052   2.004   3.224 -0.3584 -1.7263 -1.5453
 6648TIP3    H241436   3.913   1.999   3.162 -0.8014  1.5616 -1.0069
 6649TIP3   OH241437   0.138   0.674   6.341 -0.6319  0.1981  0.3336
 6649TIP3    H141438   0.092   0.609   6.288 -0.6892  0.8869 -0.4823
 6649TIP3    H241439   0.068   0.719   6.389 -0.4782 -1.5144  2.3377
 6650TIP3   OH241440   5.489   1.442  14.610 -0.3001 -0.5158 -0.0032
 6650TIP3    H141441   5.496   1.359  14.657 -1.4833 -0.4415  0.3379
 6650TIP3    H241442   5.554   1.435  14.540 -0.0660 -1.5384  0.2959
 6651TIP3   OH241443   5.107   6.442   3.471 -0.7683  0.4930 -0.3050
 6651TIP3    H141444   5.141   6.503   3.537  1.2249 -0.0020 -0.7980
 6651TIP3    H241445   5.037   6.395   3.516 -0.2791  1.0144  1.0627
 6652TIP3   OH241446   0.700   1.057  16.966 -0.2935  0.3223  0.0325
 6652TIP3    H141447   0.699   1.079  17.059  1.9437  1.7417 -0.2034
 6652TIP3    H241448   0.658   0.972  16.961 -0.6348  0.2953  2.3164
 6653TIP3   OH241449   0.927   4.944  12.739 -0.1134 -0.3004  0.0565
 6653TIP3    H141450   0.890   5.019  12.785  1.6475  1.0149 -0.5509
 6653TIP3    H241451   0.880   4.868  12.774 -2.4622  1.1126  0.1685
 6654TIP3   OH241452   1.315   6.167  15.482  0.1905 -0.0594  0.3116
 6654TIP3    H141453   1.274   6.212  15.408 -1.6625 -0.5029  1.0144
 6654TIP3    H241454   1.363   6.095  15.442 -0.7333 -0.2591 -0.4739
 6655TIP3   OH241455   5.985   1.525  11.439 -0.7109  0.0023 -0.8605
 6655TIP3    H141456   5.971   1.430  11.446  0.2934 -0.1858 -1.1537
 6655TIP3    H241457   5.949   1.548  11.353 -3.0260  0.3254  0.1204
 6656TIP3   OH241458   1.410   4.651  13.410 -0.4509  0.0912 -0.4162
 6656TIP3    H141459   1.328   4.683  13.374 -0.0908  1.2738 -0.2477
 6656TIP3    H241460   1.385   4.580  13.469 -1.1082 -1.3138 -2.3174
 6657TIP3   OH241461   1.660   0.610  14.246  0.2910 -0.0064 -0.0460
 6657TIP3    H141462   1.676   0.699  14.214 -0.6235  0.2835  0.2625
 6657TIP3    H241463   1.588   0.620  14.308  0.1308 -0.9832 -0.0608
 6658TIP3   OH241464   1.031   1.696   1.304 -0.5906 -0.2459 -0.0207
 6658TIP3    H141465   1.095   1.627   1.324  1.3885  1.0925 -1.4211
 6658TIP3    H241466   1.062   1.735   1.223 -2.1352  1.7501  0.2762
 6659TIP3   OH241467   4.663   0.306   1.755  0.3702 -0.1192  0.2040
 6659TIP3    H141468   4.702   0.314   1.842  2.0940 -1.3287 -0.4012
 6659TIP3    H241469   4.584   0.254   1.769  0.0935  0.5294  1.1676
 6660TIP3   OH241470   3.855   0.681   1.825 -0.0823  0.0242 -0.1742
 6660TIP3    H141471   3.900   0.761   1.852 -0.1793  0.0872 -0.1996
 6660TIP3    H241472   3.902   0.653   1.746  0.4814 -0.4004  0.3016
 6661TIP3   OH241473   3.575   6.790   6.356 -0.0903 -0.8300 -0.0631
 6661TIP3    H141474   3.654   6.754   6.395  1.2738  1.1877 -0.8180
 6661TIP3    H241475   3.590   6.884   6.353 -2.7535 -0.3086  0.2302
 6662TIP3   OH241476   4.599   4.219  13.906 -0.1586 -0.1366  0.0400
 6662TIP3    H141477   4.646   4.250  13.984 -1.4894 -0.5554  1.0624
 6662TIP3    H241478   4.536   4.156  13.941 -1.5250  0.4756 -1.2387
 6663TIP3   OH241479   6.077   1.537   0.872 -0.2604  0.2367  0.3447
 6663TIP3    H141480   6.126   1.456   0.885  0.2906  0.6048  0.6170
 6663TIP3    H241481   5.986   1.513   0.889 -0.1481 -0.3968  0.0955
 6664TIP3   OH241482   3.780   6.526  15.255  0.0573 -0.0640 -0.2316
 6664TIP3    H141483   3.748   6.561  15.338  1.9515 -0.9573  0.9431
 6664TIP3    H241484   3.702   6.511  15.203 -1.0867  1.8903  0.8170
 6665TIP3   OH241485   6.167   6.633  13.307  0.5246 -0.2134  0.3053
 6665TIP3    H141486   6.089   6.667  13.350  0.9197 -0.5263  1.2926
 6665TIP3    H241487   6.150   6.539  13.298  0.2479 -0.0793 -0.6645
 6666TIP3   OH241488   2.045   2.383   4.128  0.5949 -0.2638  0.5487
 6666TIP3    H141489   1.995   2.302   4.121  2.5905 -1.4133 -1.7615
 6666TIP3    H241490   1.997   2.445   4.073  1.1750 -1.1011 -0.9531
 6667TIP3   OH241491   1.479   5.410   3.770  0.7624  0.2848 -0.3067
 6667TIP3    H141492   1.439   5.466   3.836  3.5067  0.5909  1.2134
 6667TIP3    H241493   1.474   5.322   3.806  1.0880  0.2639 -0.3140
 6668TIP3   OH241494   5.640   2.952  12.509  0.1838 -0.5088 -0.1580
 6668TIP3    H141495   5.554   2.916  12.532 -0.3002 -0.7225 -2.1810
 6668TIP3    H241496   5.702   2.892  12.552 -0.6454 -0.9172  0.5103
 6669TIP3   OH241497   2.748   2.217  15.118 -0.0529  0.2371  0.0232
 6669TIP3    H141498   2.769   2.167  15.039 -0.3108 -1.7116  1.1288
 6669TIP3    H241499   2.663   2.184  15.146  0.2348  0.5456  1.3591
 6670TIP3   OH241500   6.122   0.643   3.943 -0.2442 -0.3635 -0.9556
 6670TIP3    H141501   6.108   0.636   4.037 -1.2175 -1.5918 -1.1645
 6670TIP3    H241502   6.108   0.736   3.923 -2.2974 -0.4693 -0.2204
 6671TIP3   OH241503   5.991   5.263  10.554  0.5393 -0.2166  0.5482
 6671TIP3    H141504   6.039   5.183  10.576 -0.7056 -0.6030  2.0404
 6671TIP3    H241505   6.059   5.329  10.539  1.5581 -1.2047  0.6934
 6672TIP3   OH241506   5.894   2.357   3.631 -0.2341 -0.4720  0.3091
 6672TIP3    H141507   5.845   2.424   3.678  0.1598  0.4582 -0.5727
 6672TIP3    H241508   5.847   2.276   3.650  0.1191 -0.2227  2.6108
 6673TIP3   OH241509   2.561   5.102  13.304 -0.4657 -0.8320  0.2413
 6673TIP3    H141510   2.495   5.109  13.234 -0.4088  2.0476  0.3562
 6673TIP3    H241511   2.510   5.080  13.382 -1.2829  0.6133  0.1737
 6674TIP3   OH241512   6.690   6.388  17.033 -0.1914 -0.7245 -0.0451
 6674TIP3    H141513   6.784   6.376  17.039  0.1408  1.2660 -0.7246
 6674TIP3    H241514   6.657   6.305  16.998  1.6285 -0.5611 -2.3505
 6675TIP3   OH241515   2.467   6.643   2.553  0.7947 -0.3749  0.5958
 6675TIP3    H141516   2.513   6.633   2.469 -0.5093 -0.3067 -0.1489
 6675TIP3    H241517   2.531   6.615   2.618  0.8886 -3.3799 -0.6224
 6676TIP3   OH241518   6.201   5.892   6.271 -0.1502 -0.4132  0.7375
 6676TIP3    H141519   6.221   5.856   6.185 -0.2178 -0.7379  0.8549
 6676TIP3    H241520   6.110   5.866   6.287 -1.5542  3.0254 -0.8126
 6677TIP3   OH241521   3.959   1.963  11.831  0.1432  0.0210 -0.3193
 6677TIP3    H141522   3.946   2.057  11.816 -1.5476  0.1129  1.2700
 6677TIP3    H241523   4.040   1.958  11.882 -0.4961  0.8023  0.8364
 6678TIP3   OH241524   6.615   5.739   5.960 -0.3099  0.2687  0.0383
 6678TIP3    H141525   6.683   5.807   5.959 -0.2069  0.1652 -1.2106
 6678TIP3    H241526   6.564   5.758   6.039  0.8973  0.6080  0.7701
 6679TIP3   OH241527   1.165   0.595   0.208  0.5359 -0.5897 -0.6697
 6679TIP3    H141528   1.155   0.633   0.121 -0.6685  0.4043 -0.1343
 6679TIP3    H241529   1.205   0.665   0.260 -0.3901 -0.5241 -0.0135
 6680TIP3   OH241530   5.931   6.771  12.655  0.0900  0.2059 -0.1978
 6680TIP3    H141531   6.027   6.770  12.659  0.0822 -1.8369  0.8458
 6680TIP3    H241532   5.907   6.860  12.679  1.7316  0.9522 -1.1563
 6681TIP3   OH241533   2.690   0.726  13.385 -0.1219 -0.2293  0.2649
 6681TIP3    H141534   2.674   0.681  13.301  0.9756 -1.1583  0.5301
 6681TIP3    H241535   2.770   0.686  13.419 -0.1005  0.7105  1.3804
 6682TIP3   OH241536   1.768   1.900   4.730 -0.1561 -0.0025 -0.2054
 6682TIP3    H141537   1.824   1.839   4.682  2.2091 -0.8321  3.2084
 6682TIP3    H241538   1.804   1.986   4.708  0.1798 -0.2702 -0.7380
 6683TIP3   OH241539   4.639   0.914  14.477 -0.0564 -0.1882 -0.0254
 6683TIP3    H141540   4.613   0.911  14.569 -0.6000 -1.1086 -0.2020
 6683TIP3    H241541   4.711   0.851  14.471  0.2143  0.1330 -0.1598
 6684TIP3   OH241542   6.213   0.979  10.178  0.0766 -0.4656 -0.3347
 6684TIP3    H141543   6.179   0.894  10.149  0.0309 -0.0629 -1.5309
 6684TIP3    H241544   6.186   0.986  10.270  1.2801 -2.3390  0.2081
 6685TIP3   OH241545   1.556   6.742  17.078  0.1452  0.1901 -0.1997
 6685TIP3    H141546   1.532   6.741  17.171 -1.3096 -0.2749 -0.5621
 6685TIP3    H241547   1.638   6.792  17.076  0.6028 -0.4123  1.4166
 6686TIP3   OH241548   2.772   2.257   2.100  0.1846  0.0895 -0.5239
 6686TIP3    H141549   2.755   2.177   2.050 -0.1462 -0.3741  0.3069
 6686TIP3    H241550   2.709   2.320   2.065 -2.4630 -1.2046  1.5407
 6687TIP3   OH241551   5.704   2.784  13.325  0.0012  0.3347  0.1209
 6687TIP3    H141552   5.708   2.815  13.416  1.5587  2.7555 -0.6859
 6687TIP3    H241553   5.790   2.745  13.309 -0.8237 -1.6059  0.1034
 6688TIP3   OH241554   1.404   0.139   0.943 -0.0346  0.3016  0.7220
 6688TIP3    H141555   1.468   0.107   0.879  1.8870 -0.7574  3.0489
 6688TIP3    H241556   1.331   0.170   0.889  0.8422 -1.8254 -1.9454
 6689TIP3   OH241557   3.864   5.430  11.621  0.2904 -0.3767  0.3923
 6689TIP3    H141558   3.826   5.342  11.617 -1.6919  0.4902 -2.0632
 6689TIP3    H241559   3.943   5.425  11.568  0.0926 -0.6502  0.1208
 6690TIP3   OH241560   3.796   2.012   2.193  0.0275 -0.4983  0.1442
 6690TIP3    H141561   3.718   1.972   2.233 -0.3651  0.0288 -0.0755
 6690TIP3    H241562   3.811   2.092   2.245  0.1711 -0.3827 -0.0757
 6691TIP3   OH241563   2.514   5.426  11.112 -0.1151  0.5883  0.1397
 6691TIP3    H141564   2.524   5.489  11.183  0.8888  0.0498  0.5031
 6691TIP3    H241565   2.596   5.432  11.063 -0.5003  0.4279 -0.5382
 6692TIP3   OH241566   2.460   1.139  16.337  0.0318 -1.1295 -0.1431
 6692TIP3    H141567   2.498   1.064  16.383 -0.8711 -2.4266 -1.4147
 6692TIP3    H241568   2.533   1.200  16.326  0.7915 -1.8249  0.9049
 6693TIP3   OH241569   0.451   5.860   2.011  0.3739 -0.1619  0.1179
 6693TIP3    H141570   0.484   5.776   2.045  1.8008  0.6433  0.8034
 6693TIP3    H241571   0.485   5.865   1.922  1.9255  0.5173  0.7135
 6694TIP3   OH241572   2.242   3.178  12.579  0.1041 -0.0432  0.2459
 6694TIP3    H141573   2.276   3.237  12.646  1.3050 -1.7546  1.2091
 6694TIP3    H241574   2.233   3.093  12.623  1.5968 -1.4212 -1.8856
 6695TIP3   OH241575   0.061   2.125   2.613 -0.1287 -0.6301 -0.1893
 6695TIP3    H141576   0.036   2.154   2.525  0.7983  0.1557 -0.2051
 6695TIP3    H241577   0.132   2.063   2.598  0.8121  0.3658  0.0420
 6696TIP3   OH241578   1.580   5.007  15.815 -0.2696  0.0486  0.1886
 6696TIP3    H141579   1.587   5.092  15.858 -0.5535 -0.2381  0.8252
 6696TIP3    H241580   1.493   5.005  15.777 -0.1897  0.1207  0.0025
 6697TIP3   OH241581   6.277   1.287  10.692 -0.3880 -0.1906 -0.6468
 6697TIP3    H141582   6.298   1.217  10.631 -0.9576 -0.2476 -0.7788
 6697TIP3    H241583   6.325   1.363  10.659 -0.0604 -0.4237 -0.7088
 6698TIP3   OH241584   4.842   6.046  14.503  0.2418 -0.0761  0.4536
 6698TIP3    H141585   4.776   6.112  14.525  0.7236  0.3387  0.6825
 6698TIP3    H241586   4.864   6.063  14.412  1.5700  1.1875  0.9535
 6699TIP3   OH241587   5.489   4.251   3.014 -0.0553 -0.8382 -0.2228
 6699TIP3    H141588   5.464   4.175   2.961 -0.5186 -0.9602  0.1703
 6699TIP3    H241589   5.509   4.319   2.949  0.5354 -1.3389 -0.5832
 6700TIP3   OH241590   6.520   6.080   1.762  0.6848 -0.5292 -0.0655
 6700TIP3    H141591   6.442   6.065   1.708 -1.2273  0.1105  2.3474
 6700TIP3    H241592   6.532   5.997   1.809  1.0810 -0.4106  0.0433
 6701TIP3   OH241593   3.462   1.971   0.499  0.0657  0.0412  0.2701
 6701TIP3    H141594   3.390   2.003   0.444  1.8467  0.9683 -1.6317
 6701TIP3    H241595   3.431   1.886   0.531 -0.9457 -0.7387 -2.5005
 6702TIP3   OH241596   5.215   4.810  15.358 -0.3455  0.0898  0.7031
 6702TIP3    H141597   5.160   4.767  15.292 -1.1346  1.4837  0.4112
 6702TIP3    H241598   5.273   4.866  15.307 -0.5129  0.6807  1.1627
 6703TIP3   OH241599   5.971   3.291   0.707 -0.4092 -0.2204  0.1451
 6703TIP3    H141600   5.996   3.281   0.615  0.2288 -0.1479  0.3127
 6703TIP3    H241601   6.011   3.217   0.751  0.6521  0.6187  0.6366
 6704TIP3   OH241602   6.647   3.703   5.971 -0.4789  0.2856 -0.0938
 6704TIP3    H141603   6.604   3.676   5.890 -0.3802 -0.7452  0.1786
 6704TIP3    H241604   6.662   3.621   6.019 -0.0481  0.8229  0.7242
 6705TIP3   OH241605   3.129   2.960  15.847  0.0547 -0.0968  0.1922
 6705TIP3    H141606   3.143   2.873  15.810 -1.0430  0.1339 -0.8370
 6705TIP3    H241607   3.173   2.958  15.932  0.8726 -1.3280 -0.2373
 6706TIP3   OH241608   2.507   0.587   3.489 -0.1657 -0.2142 -0.5929
 6706TIP3    H141609   2.440   0.548   3.545  0.0672 -0.6663 -0.6299
 6706TIP3    H241610   2.502   0.538   3.408  2.1205 -2.1971  0.3636
 6707TIP3   OH241611   3.136   1.573  15.381  0.0953 -0.0859  0.1230
 6707TIP3    H141612   3.056   1.521  15.395  0.4282 -1.2663 -2.0229
 6707TIP3    H241613   3.193   1.547  15.453 -1.6574  1.3854  2.1874
 6708TIP3   OH241614   5.982   4.241   5.849 -0.3520 -0.6887 -0.2307
 6708TIP3    H141615   5.905   4.288   5.880 -0.4496 -0.6205 -0.5710
 6708TIP3    H241616   5.964   4.225   5.756 -0.5727 -1.8917  0.0074
 6709TIP3   OH241617   4.425   6.246   2.799 -0.5276  0.1504 -0.3037
 6709TIP3    H141618   4.515   6.252   2.830 -0.0335  0.3321 -1.7009
 6709TIP3    H241619   4.398   6.336   2.786 -1.2900  0.1393  1.1173
 6710TIP3   OH241620   2.075   1.573  12.524 -0.3357  0.4163 -0.3068
 6710TIP3    H141621   2.012   1.588  12.453 -1.9375  1.4159  1.2339
 6710TIP3    H241622   2.105   1.483  12.511 -0.8904  0.4338 -1.9807
 6711TIP3   OH241623   4.599   3.796   3.667  0.2455 -0.7118 -0.2437
 6711TIP3    H141624   4.598   3.708   3.707 -2.0450 -1.3780 -1.6001
 6711TIP3    H241625   4.631   3.781   3.578  1.0529  0.0508 -0.0907
 6712TIP3   OH241626   5.894   0.464  10.525  0.6009  0.0430  0.3502
 6712TIP3    H141627   5.844   0.399  10.574  0.6839  0.8125  1.4807
 6712TIP3    H241628   5.986   0.443  10.546  0.6862 -0.2057 -0.2403
 6713TIP3   OH241629   4.456   3.730  11.408 -0.1224  0.2308  0.3679
 6713TIP3    H141630   4.531   3.707  11.353  1.5215  1.0339  2.1222
 6713TIP3    H241631   4.477   3.818  11.441 -1.5986  0.2595  1.3133
 6714TIP3   OH241632   5.562   1.420  14.919  0.2071  0.3197 -0.1349
 6714TIP3    H141633   5.581   1.497  14.866  1.9811 -0.3647 -0.5670
 6714TIP3    H241634   5.467   1.421  14.930  0.1821  2.5314 -0.1435
 6715TIP3   OH241635   2.529   5.562   4.018 -0.2311  0.1378 -0.4600
 6715TIP3    H141636   2.460   5.628   4.005  0.4553  0.6057 -1.9980
 6715TIP3    H241637   2.609   5.613   4.029 -0.3204 -0.3210  3.4921
 6716TIP3   OH241638   1.709   0.039   2.163  0.2482  0.0467 -0.2333
 6716TIP3    H141639   1.620   0.030   2.129 -0.0189  1.1271  0.1476
 6716TIP3    H241640   1.731  -0.048   2.196 -0.9579 -0.0444  0.3758
 6717TIP3   OH241641   5.619   1.787   5.767 -0.4505  0.3857  0.2117
 6717TIP3    H141642   5.670   1.800   5.687 -1.2594  0.4186 -0.3046
 6717TIP3    H241643   5.558   1.860   5.769 -2.0682 -0.8894 -0.4220
 6718TIP3   OH241644   0.081   0.016   0.135  0.0777  0.0589  0.0464
 6718TIP3    H141645   0.015  -0.054   0.136 -0.2715  0.3779 -0.3397
 6718TIP3    H241646   0.156  -0.021   0.182 -0.4439 -0.2409  0.6526
 6719TIP3   OH241647   3.301   6.396  16.848 -0.3544 -0.0025  0.5481
 6719TIP3    H141648   3.353   6.351  16.915  0.1688  1.2198  0.9859
 6719TIP3    H241649   3.247   6.326  16.809  3.2812 -1.9053 -1.6343
 6720TIP3   OH241650   4.855   5.587   3.444 -0.1121  0.4406  0.0598
 6720TIP3    H141651   4.854   5.554   3.354 -0.8573  0.2588  0.1285
 6720TIP3    H241652   4.831   5.511   3.498  3.3468 -0.3707  0.7606
 6721TIP3   OH241653   0.691   0.554   0.018 -0.0342  0.3579 -0.1426
 6721TIP3    H141654   0.654   0.585   0.101  1.1194  0.7396  0.2470
 6721TIP3    H241655   0.736   0.473   0.040 -0.7000 -0.1545 -0.6337
 6722TIP3   OH241656   0.800   3.985   0.907 -0.5032 -0.1872  0.0231
 6722TIP3    H141657   0.754   4.007   0.826  0.7014 -1.5856 -1.1036
 6722TIP3    H241658   0.770   3.896   0.928 -1.8455  0.6479  1.9251
 6723TIP3   OH241659   2.782   1.054   4.444  0.2269 -0.1024  0.1531
 6723TIP3    H141660   2.752   1.079   4.356 -0.3658 -1.3773 -0.0282
 6723TIP3    H241661   2.821   0.968   4.432  0.5129 -0.1099  1.0854
 6724TIP3   OH241662   1.462   5.867  15.760  0.3605  0.0039 -0.4054
 6724TIP3    H141663   1.408   5.946  15.771 -0.0867 -0.3474 -0.0800
 6724TIP3    H241664   1.522   5.869  15.834 -0.0865 -0.3104 -0.0347
 6725TIP3   OH241665   4.705   4.473   1.491 -0.2601  0.4152  0.2555
 6725TIP3    H141666   4.768   4.539   1.463 -0.6106  1.2933  1.4747
 6725TIP3    H241667   4.756   4.393   1.502  0.1501  0.4232 -1.3477
 6726TIP3   OH241668   3.556   2.933   5.723  0.0051  0.3275  0.4413
 6726TIP3    H141669   3.505   2.980   5.657 -0.1678  0.0572  0.3795
 6726TIP3    H241670   3.507   2.851   5.737  0.6444 -0.1202  0.0811
 6727TIP3   OH241671   2.629   0.257  11.575  0.3006 -0.0786 -0.7442
 6727TIP3    H141672   2.635   0.208  11.493 -0.5371  0.3078 -1.0452
 6727TIP3    H241673   2.595   0.193  11.638  2.6751 -0.9199 -0.1926
 6728TIP3   OH241674   6.774   1.669  10.467  0.5534  0.3999  0.5681
 6728TIP3    H141675   6.853   1.645  10.515  0.8928  0.6715  0.1590
 6728TIP3    H241676   6.733   1.585  10.444  0.1041  0.2711  1.7671
 6729TIP3   OH241677   6.803   4.985   3.973  0.0712  0.4912 -0.2951
 6729TIP3    H141678   6.865   5.040   3.925  0.0316 -0.1331 -1.0934
 6729TIP3    H241679   6.810   4.899   3.931  1.5447 -0.6808  2.1363
 6730TIP3   OH241680   0.845   5.178  13.575 -0.3145 -0.1538 -0.3232
 6730TIP3    H141681   0.855   5.223  13.659  1.7373 -0.4290 -0.3601
 6730TIP3    H241682   0.774   5.115  13.590 -0.8668  0.7028  0.7879
 6731TIP3   OH241683   6.583   4.493  13.316 -0.3955  0.4558 -0.7897
 6731TIP3    H141684   6.594   4.517  13.408  0.1913  0.4582 -0.8583
 6731TIP3    H241685   6.671   4.501  13.278 -0.3046 -1.0938 -0.9694
 6732TIP3   OH241686   3.736   1.303  13.257 -0.4162 -0.0515 -0.2498
 6732TIP3    H141687   3.828   1.283  13.242 -0.2439  1.1103 -0.8251
 6732TIP3    H241688   3.731   1.323  13.351 -0.1481 -0.3955 -0.1593
 6733TIP3   OH241689   2.929   2.502   4.601 -0.0206 -0.2063 -0.6703
 6733TIP3    H141690   2.840   2.504   4.567 -0.7598  1.7773  1.1908
 6733TIP3    H241691   2.927   2.438   4.672  0.0189 -0.1083 -0.5803
 6734TIP3   OH241692   3.486   4.662  11.766  0.5695 -0.2147  0.2511
 6734TIP3    H141693   3.471   4.654  11.672  0.7264  0.7237  0.1364
 6734TIP3    H241694   3.402   4.688  11.802  0.9331  1.2244  0.1161
 6735TIP3   OH241695   2.993   5.281   1.247  0.1321  0.5686 -0.4846
 6735TIP3    H141696   3.020   5.338   1.175  0.1821  1.6850  0.3890
 6735TIP3    H241697   2.898   5.294   1.253  0.1103  0.3814 -0.4213
 6736TIP3   OH241698   3.037   4.867  11.714  0.1693  0.4456 -0.3212
 6736TIP3    H141699   2.999   4.874  11.626 -0.4575  2.4385  0.0445
 6736TIP3    H241700   2.987   4.929  11.766  0.7701 -0.4471  1.3773
 6737TIP3   OH241701   4.059   5.554   6.071  0.0969  0.1315 -0.1549
 6737TIP3    H141702   4.070   5.595   5.985  0.7079  0.1879 -0.0588
 6737TIP3    H241703   4.024   5.623   6.126  2.7197  1.1171  0.4418
 6738TIP3   OH241704   3.709   2.092  15.384  0.5580  0.1029  0.4548
 6738TIP3    H141705   3.775   2.035  15.346  0.7447 -0.8322  2.1081
 6738TIP3    H241706   3.751   2.131  15.460 -1.0408 -1.3237  2.1751
 6739TIP3   OH241707   5.609   6.589   1.781 -0.0298 -0.3367  0.9365
 6739TIP3    H141708   5.623   6.672   1.736  0.9388 -1.1572 -0.3694
 6739TIP3    H241709   5.529   6.553   1.743  0.1167 -0.4711  0.7545
 6740TIP3   OH241710   4.554   2.218   2.191  0.4913 -0.4464  0.2265
 6740TIP3    H141711   4.573   2.124   2.199  0.9260 -0.2757  1.4463
 6740TIP3    H241712   4.461   2.222   2.170 -0.2664 -1.1347  2.9771
 6741TIP3   OH241713   0.897   1.754  12.045 -0.9138  0.4375  0.3013
 6741TIP3    H141714   0.982   1.797  12.050 -0.8636  0.4400 -0.3994
 6741TIP3    H241715   0.917   1.661  12.037 -0.9683  0.4469  0.0301
 6742TIP3   OH241716   3.195   6.724  13.896  0.4308  0.5662 -0.3142
 6742TIP3    H141717   3.109   6.710  13.936  0.1185  1.3127 -0.6910
 6742TIP3    H241718   3.199   6.819  13.883  1.8603  0.7051  0.9026
 6743TIP3   OH241719   5.156   2.485   0.948 -0.5204  0.1458 -0.1995
 6743TIP3    H141720   5.096   2.413   0.967  0.6138 -0.7626  0.1051
 6743TIP3    H241721   5.129   2.517   0.861 -1.5202 -0.1301 -0.0000
 6744TIP3   OH241722   5.741   0.817  15.780  0.1535 -0.8556  0.7803
 6744TIP3    H141723   5.654   0.793  15.747 -0.0260  0.3108  0.3538
 6744TIP3    H241724   5.802   0.779  15.718 -0.1836  1.5257 -1.1716
 6745TIP3   OH241725   2.798   4.190  16.946  0.5541 -0.6609 -0.0515
 6745TIP3    H141726   2.740   4.123  16.982  1.7768 -0.0039  3.5140
 6745TIP3    H241727   2.873   4.141  16.912  1.2686 -1.2346  2.1917
 6746TIP3   OH241728   0.327   5.584  12.697 -0.0125  0.4739 -0.0929
 6746TIP3    H141729   0.311   5.678  12.690 -2.6523  0.0574 -0.7041
 6746TIP3    H241730   0.418   5.573  12.671  0.4159  2.8565  0.1733
 6747TIP3   OH241731   2.214   4.812  14.367 -0.1157 -0.0242 -0.2424
 6747TIP3    H141732   2.162   4.879  14.323 -0.1564 -0.7348 -1.3022
 6747TIP3    H241733   2.260   4.766  14.297  0.9811 -0.2282  0.5758
 6748TIP3   OH241734   2.680   1.167   1.503 -0.2921  0.2265  0.0758
 6748TIP3    H141735   2.605   1.113   1.479  0.0809  0.1832 -1.0867
 6748TIP3    H241736   2.675   1.176   1.598 -0.4661 -1.7104  0.2859
 6749TIP3   OH241737   1.856   0.627   0.779 -0.2432  0.2899 -0.8975
 6749TIP3    H141738   1.933   0.643   0.835  0.3921 -1.6009 -1.1813
 6749TIP3    H241739   1.855   0.533   0.765 -1.9023  0.4268 -1.9689
 6750TIP3   OH241740   0.720   4.687   6.395  0.3393 -0.1269 -0.2514
 6750TIP3    H141741   0.780   4.734   6.453 -1.1568  1.7561 -0.1390
 6750TIP3    H241742   0.650   4.657   6.453  0.0695 -0.3867 -0.7091
 6751TIP3   OH241743   5.862   3.544   5.305  0.3058  0.4763 -0.4924
 6751TIP3    H141744   5.802   3.472   5.325  0.3784  0.2724 -1.0019
 6751TIP3    H241745   5.805   3.620   5.297  0.0898  0.2535 -1.1351
 6752TIP3   OH241746   2.423   1.577   1.472  0.2889  0.3697  0.1950
 6752TIP3    H141747   2.410   1.659   1.424 -1.3370  1.5057  2.4149
 6752TIP3    H241748   2.518   1.561   1.467  0.6858  2.5338 -0.0668
 6753TIP3   OH241749   4.557   2.299  16.086 -0.0835  0.2126  0.3402
 6753TIP3    H141750   4.532   2.391  16.080 -0.5081  0.0035 -2.6097
 6753TIP3    H241751   4.529   2.272  16.174 -3.2348  2.0048  0.0428
 6754TIP3   OH241752   4.359   0.517   5.000  0.1648  0.4740 -0.2257
 6754TIP3    H141753   4.411   0.437   5.006 -0.7617 -0.1116  0.3194
 6754TIP3    H241754   4.398   0.565   4.927 -0.7767 -1.6345 -2.2945
 6755TIP3   OH241755   2.105   6.191  14.158  0.2537  0.2803 -0.1884
 6755TIP3    H141756   2.039   6.141  14.109  0.7048  0.3692 -0.9135
 6755TIP3    H241757   2.160   6.230  14.089  1.0575  0.2114  0.4026
 6756TIP3   OH241758   0.965   3.721  14.080 -0.1498  0.1869  0.1289
 6756TIP3    H141759   1.008   3.798  14.042 -0.9829  0.8599  0.4969
 6756TIP3    H241760   1.028   3.687  14.143 -0.3777  1.5512  1.1496
 6757TIP3   OH241761   6.659   0.151   2.548 -0.2105 -0.2221 -0.4618
 6757TIP3    H141762   6.592   0.163   2.480 -0.0991  2.5313 -0.1968
 6757TIP3    H241763   6.617   0.181   2.628  1.2445  1.4231 -0.2673
 6758TIP3   OH241764   2.149   4.867  16.849  0.4820  0.3319  0.5275
 6758TIP3    H141765   2.129   4.797  16.911  0.4509  1.0865  1.3913
 6758TIP3    H241766   2.081   4.933  16.865 -0.2359  0.0405 -1.1420
 6759TIP3   OH241767   1.625   6.692  14.537 -0.1362  0.9312 -0.3685
 6759TIP3    H141768   1.714   6.726  14.524  0.3231  0.7158  1.8082
 6759TIP3    H241769   1.623   6.664  14.628 -2.0000 -0.4555 -0.7585
 6760TIP3   OH241770   4.421   4.486  12.419 -0.2679 -0.4580 -0.6233
 6760TIP3    H141771   4.500   4.445  12.384  0.9145 -0.4822  1.8361
 6760TIP3    H241772   4.396   4.431  12.493 -3.0502 -0.8254 -1.7077
 6761TIP3   OH241773   2.331   0.240   5.104  0.0368 -0.0832  0.7350
 6761TIP3    H141774   2.243   0.258   5.073  0.5690 -0.0431 -0.8656
 6761TIP3    H241775   2.366   0.177   5.041  1.8433  1.4202  0.1558
 6762TIP3   OH241776   4.068   4.650   2.982 -0.2175 -0.3089 -0.3052
 6762TIP3    H141777   4.017   4.668   3.060 -1.3864 -2.6239 -0.4626
 6762TIP3    H241778   4.157   4.676   3.005 -0.6219 -0.5115  1.6285
 6763TIP3   OH241779   6.739   2.488   6.942  0.3267  0.4990 -0.8293
 6763TIP3    H141780   6.673   2.443   6.995  1.1815  1.1083  0.8411
 6763TIP3    H241781   6.690   2.523   6.868 -0.9141 -0.4528 -0.5095
 6764TIP3   OH241782   4.126   4.063   3.337  0.2123 -0.2874  0.3349
 6764TIP3    H141783   4.052   4.123   3.349 -0.9460 -1.5397 -0.2121
 6764TIP3    H241784   4.141   4.062   3.242 -0.4327 -1.5581  0.2186
 6765TIP3   OH241785   5.049   0.312   4.097  0.1378 -0.6305  0.0890
 6765TIP3    H141786   5.026   0.390   4.046 -1.1018 -0.1520  1.3072
 6765TIP3    H241787   5.085   0.347   4.179  1.5895 -1.3779 -0.2012
 6766TIP3   OH241788   1.514   4.909  15.311  0.3381 -0.0015 -0.4156
 6766TIP3    H141789   1.594   4.960  15.323 -0.2593  1.3021 -1.5244
 6766TIP3    H241790   1.532   4.824  15.350  1.7444  0.7413  0.6275
 6767TIP3   OH241791   4.976   1.311   4.112  0.0481  0.2847  0.1694
 6767TIP3    H141792   5.061   1.315   4.155  1.4787 -0.6575 -2.3439
 6767TIP3    H241793   4.955   1.402   4.091  0.2487  0.5525  1.1071
 6768TIP3   OH241794   4.520   3.052   3.553  0.1450 -0.4166  0.4879
 6768TIP3    H141795   4.600   3.016   3.591  1.2605  2.1646  0.8587
 6768TIP3    H241796   4.478   3.098   3.626  0.7168  2.0103 -0.6184
 6769TIP3   OH241797   0.518   0.647   5.399 -0.0893  0.4234  0.2340
 6769TIP3    H141798   0.573   0.574   5.371 -0.0670  0.9894 -1.2746
 6769TIP3    H241799   0.574   0.700   5.456 -0.3109 -1.0483  1.9194
 6770TIP3   OH241800   6.627   1.809  14.331  0.3039 -0.9338 -0.0048
 6770TIP3    H141801   6.715   1.841  14.347  0.5485 -1.3703 -0.4416
 6770TIP3    H241802   6.639   1.723  14.289 -0.3171 -0.8855 -0.3062
 6771TIP3   OH241803   1.630   2.379  11.096 -0.2158  0.1066  0.2835
 6771TIP3    H141804   1.607   2.370  11.004  0.2459  0.9557  0.0709
 6771TIP3    H241805   1.723   2.401  11.095 -0.2147  0.1559  0.9503
 6772TIP3   OH241806   3.712   6.540   1.019 -0.0371  0.3275 -0.0078
 6772TIP3    H141807   3.767   6.584   0.954 -0.4138  0.9555  0.0934
 6772TIP3    H241808   3.770   6.475   1.060  1.1074  2.0437  1.2189
 6773TIP3   OH241809   0.669   2.254   4.801 -0.4384  0.1152  0.2770
 6773TIP3    H141810   0.760   2.275   4.824 -0.6105 -0.6400  1.7822
 6773TIP3    H241811   0.641   2.193   4.869 -1.7078 -0.5889 -0.8386
 6774TIP3   OH241812   1.783   5.331  16.812 -0.8212 -0.0596 -0.4941
 6774TIP3    H141813   1.691   5.353  16.800 -0.5658  1.2803 -0.1735
 6774TIP3    H241814   1.819   5.406  16.859  0.2795 -0.8845  0.0225
 6775TIP3   OH241815   1.970   0.549   5.122  0.1335 -0.7396  0.2088
 6775TIP3    H141816   2.009   0.600   5.051 -0.3948  0.8476  1.0188
 6775TIP3    H241817   1.882   0.585   5.132  0.2080 -0.9053  1.6834
 6776TIP3   OH241818   4.483   5.877   2.357 -0.1704 -0.4530 -0.2550
 6776TIP3    H141819   4.439   5.825   2.424 -0.1461  2.0997  1.9379
 6776TIP3    H241820   4.536   5.814   2.308 -0.1050 -2.4708  2.2190
 6777TIP3   OH241821   2.257   6.286   3.587 -0.3643  0.4933  0.2865
 6777TIP3    H141822   2.184   6.273   3.647  1.0722  0.1258  2.0498
 6777TIP3    H241823   2.309   6.356   3.628 -0.2714  1.5339 -1.4917
 6778TIP3   OH241824   2.903   5.041  14.870 -0.1781  0.1785 -0.5013
 6778TIP3    H141825   2.888   4.985  14.946 -1.2704  0.5333 -0.4454
 6778TIP3    H241826   2.863   4.993  14.797 -0.5664  0.5913 -0.5607
 6779TIP3   OH241827   0.120   4.469  14.302 -0.1426 -0.3868 -0.3100
 6779TIP3    H141828   0.205   4.425  14.295  0.4428  0.8799 -1.4129
 6779TIP3    H241829   0.084   4.439  14.386  1.6774 -0.4326  0.4823
 6780TIP3   OH241830   1.964   3.273  11.328  0.0903  0.3619  0.3058
 6780TIP3    H141831   1.946   3.179  11.329  0.0798  0.3448  2.2566
 6780TIP3    H241832   1.885   3.312  11.291 -1.4688 -0.1819  2.8383
 6781TIP3   OH241833   2.820   1.893  11.005  0.2013  0.1730  0.5244
 6781TIP3    H141834   2.871   1.849  10.937  1.9685  1.2453  1.1101
 6781TIP3    H241835   2.848   1.984  11.003 -0.5116  0.4671  1.9646
 6782TIP3   OH241836   6.580   3.410  11.433 -0.4431 -0.0648  0.1046
 6782TIP3    H141837   6.596   3.375  11.346 -0.9542 -0.8047  0.3033
 6782TIP3    H241838   6.593   3.504  11.424 -0.5910 -0.1271 -0.7914
 6783TIP3   OH241839   3.274   5.592   4.707 -0.3561 -0.1237 -0.1308
 6783TIP3    H141840   3.202   5.545   4.749  0.2735 -1.3929 -0.4106
 6783TIP3    H241841   3.334   5.613   4.778 -1.0345  1.0370  0.1201
 6784TIP3   OH241842   4.564   2.256  15.053  0.3856 -0.2822 -0.3479
 6784TIP3    H141843   4.559   2.324  15.120 -1.3541 -0.8673  0.1597
 6784TIP3    H241844   4.476   2.219  15.048  0.9085 -1.4838 -1.6896
 6785TIP3   OH241845   2.899   6.688  16.107 -0.5394 -0.4879 -0.3318
 6785TIP3    H141846   2.884   6.774  16.147  0.7646 -0.5663  0.3873
 6785TIP3    H241847   2.930   6.633  16.179 -1.7309 -1.6977 -0.6948
 6786TIP3   OH241848   1.006   0.284   5.776 -0.4192  0.2495 -0.2162
 6786TIP3    H141849   0.998   0.252   5.687 -0.2735 -0.4979  0.0334
 6786TIP3    H241850   1.057   0.217   5.822 -0.8982  0.3832  0.5391
 6787TIP3   OH241851   2.981   1.384  11.938  0.1747  0.3666  0.3204
 6787TIP3    H141852   2.937   1.422  11.863  1.2602  1.2437  0.0962
 6787TIP3    H241853   2.943   1.428  12.014 -0.6745 -0.2713  0.2771
 6788TIP3   OH241854   1.748   2.362  16.367 -0.6327 -0.2239 -0.3355
 6788TIP3    H141855   1.745   2.449  16.326 -1.5081  0.4672  1.1406
 6788TIP3    H241856   1.662   2.351  16.407  0.4421 -0.4951  2.0383
 6789TIP3   OH241857   3.956   4.393   3.811  0.4781 -0.4832  0.3484
 6789TIP3    H141858   3.987   4.475   3.850 -0.6231  0.6234 -0.9762
 6789TIP3    H241859   3.988   4.396   3.721 -1.5453 -0.3144 -0.4257
 6790TIP3   OH241860   6.445   1.900   3.815 -1.2412 -0.2754 -0.0042
 6790TIP3    H141861   6.468   1.972   3.756 -0.4468 -2.7067 -2.8803
 6790TIP3    H241862   6.487   1.923   3.898  1.0671  1.4313 -1.5208
 6791TIP3   OH241863   5.078   2.459  15.810 -0.3927  0.1548  0.1238
 6791TIP3    H141864   5.092   2.447  15.904 -0.1645  0.1930  0.0945
 6791TIP3    H241865   5.065   2.553  15.799 -0.9527  0.0878  0.1878
 6792TIP3   OH241866   2.709   5.204   4.933 -0.0541  0.2657  0.0349
 6792TIP3    H141867   2.799   5.188   4.904  0.0576 -0.2005  0.6205
 6792TIP3    H241868   2.667   5.248   4.859  0.4599 -0.1458 -0.5105
 6793TIP3   OH241869   3.558   4.032   6.398  0.1459  0.5233  0.4402
 6793TIP3    H141870   3.571   3.937   6.402 -0.1774  0.4704  0.2619
 6793TIP3    H241871   3.621   4.061   6.332 -2.3207 -0.0705 -2.3734
 6794TIP3   OH241872   1.972   5.721   1.648  0.4580  0.5767 -0.7987
 6794TIP3    H141873   1.934   5.805   1.673  0.4525  1.0190 -2.2588
 6794TIP3    H241874   1.896   5.666   1.626  0.3861 -0.1743  1.1035
 6795TIP3   OH241875   6.402   6.056  16.325  0.0543 -0.0304 -0.2443
 6795TIP3    H141876   6.450   6.063  16.242  1.6733 -0.1069  0.6472
 6795TIP3    H241877   6.311   6.041  16.299  0.6604 -0.8893 -2.0162
 6796TIP3   OH241878   2.672   4.956  11.423 -0.2472  0.6689 -0.3049
 6796TIP3    H141879   2.653   4.874  11.378  0.7509  0.5151 -0.4776
 6796TIP3    H241880   2.625   5.023  11.374  0.1933  0.3973 -1.1197
 6797TIP3   OH241881   4.073   5.359  16.201 -0.3565 -0.3223 -0.4016
 6797TIP3    H141882   4.135   5.429  16.223 -0.9572  0.4557 -1.0910
 6797TIP3    H241883   4.101   5.285  16.254  0.6279  0.2764 -0.0409
 6798TIP3   OH241884   3.537   0.609   2.325  0.2432  0.1860  0.1801
 6798TIP3    H141885   3.489   0.600   2.243  1.4822  0.1800 -0.5631
 6798TIP3    H241886   3.496   0.546   2.385 -0.1447 -0.3806 -0.6751
 6799TIP3   OH241887   5.377   0.211  13.227  0.2930  0.3700 -0.2403
 6799TIP3    H141888   5.347   0.175  13.144 -0.3413  0.2887  0.0164
 6799TIP3    H241889   5.415   0.296  13.204 -1.1118  0.9653 -0.4615
 6800TIP3   OH241890   2.929   3.087   1.686 -0.5257 -0.2416  0.3739
 6800TIP3    H141891   2.932   2.993   1.673  1.1792  0.1930 -3.7992
 6800TIP3    H241892   3.019   3.116   1.674 -1.4286  2.1337 -1.4349
 6801TIP3   OH241893   0.054   5.700  16.451  0.5886  0.0113  0.1801
 6801TIP3    H141894   0.137   5.746  16.462 -0.0782  1.4254 -0.4081
 6801TIP3    H241895   0.024   5.683  16.540  2.2552 -2.0135  0.4305
 6802TIP3   OH241896   0.387   1.114  15.130 -0.0648  0.1990  0.2444
 6802TIP3    H141897   0.406   1.054  15.202  0.2414 -0.4566 -0.3777
 6802TIP3    H241898   0.373   1.199  15.173  0.0931 -0.1876  1.0745
 6803TIP3   OH241899   0.763   5.710   5.492  0.3805  0.1706  0.3208
 6803TIP3    H141900   0.770   5.715   5.587 -1.1126  1.0113  0.4097
 6803TIP3    H241901   0.748   5.800   5.464 -1.3481 -0.3347 -0.4919
 6804TIP3   OH241902   2.468   2.849  16.620 -0.1372  0.1273  0.3399
 6804TIP3    H141903   2.560   2.866  16.643 -0.6969  1.8244  1.5365
 6804TIP3    H241904   2.434   2.934  16.593 -1.6786 -0.1992  1.1313
 6805TIP3   OH241905   2.683   0.427  13.981 -0.2741  0.3347  0.0451
 6805TIP3    H141906   2.664   0.393  13.893  0.0985 -2.1627  0.8404
 6805TIP3    H241907   2.755   0.488  13.968  0.2763 -0.5479 -1.3187
 6806TIP3   OH241908   6.671   1.036   3.885  0.1763  0.4022 -1.0417
 6806TIP3    H141909   6.681   1.063   3.794 -0.4580  0.8045 -0.9978
 6806TIP3    H241910   6.761   1.018   3.914  0.2598 -1.1483 -2.1451
 6807TIP3   OH241911   5.626   5.560  12.940 -0.2698 -0.4565 -0.4477
 6807TIP3    H141912   5.650   5.647  12.972 -1.4462  0.6410 -2.3208
 6807TIP3    H241913   5.538   5.545  12.976 -0.0391 -0.9108 -0.0688
 6808TIP3   OH241914   5.592   0.121  11.897 -0.1178 -0.0939 -0.4905
 6808TIP3    H141915   5.583   0.058  11.969 -1.1257  0.7436  0.1286
 6808TIP3    H241916   5.604   0.205  11.940 -0.1719  0.3383 -1.3126
 6809TIP3   OH241917   0.801   2.772   1.161  0.2427  0.1040  0.0805
 6809TIP3    H141918   0.869   2.807   1.103  1.0242  0.1173  0.9703
 6809TIP3    H241919   0.751   2.712   1.106 -0.6402  1.9920 -1.2734
 6810TIP3   OH241920   5.832   1.941  12.035 -0.5314  0.4991 -0.3955
 6810TIP3    H141921   5.785   1.883  12.096  0.9852  0.4724  0.7921
 6810TIP3    H241922   5.891   1.882  11.988 -0.6795  0.7417 -0.8880
 6811TIP3   OH241923   1.597   3.774   3.599  0.1224 -0.1232 -0.0339
 6811TIP3    H141924   1.546   3.854   3.610  0.1085 -0.1662  0.2180
 6811TIP3    H241925   1.562   3.714   3.665 -2.1769 -1.5287 -2.3760
 6812TIP3   OH241926   4.697   3.582  12.444  0.1964 -0.2775  0.0277
 6812TIP3    H141927   4.749   3.552  12.519 -0.0924  0.5169  0.5575
 6812TIP3    H241928   4.608   3.553  12.464  0.3434 -1.2940 -0.6918
 6813TIP3   OH241929   1.249   0.797  12.683  0.5884 -0.0008  0.1199
 6813TIP3    H141930   1.157   0.821  12.690  0.5326  0.4002 -1.5811
 6813TIP3    H241931   1.292   0.846  12.754  0.0366  2.9055 -1.4121
 6814TIP3   OH241932   6.620   6.772  15.967 -0.1299  0.3632  0.4461
 6814TIP3    H141933   6.621   6.692  15.913  0.3478 -1.1902  2.6150
 6814TIP3    H241934   6.527   6.790  15.981 -0.2589  0.7068 -0.7287
 6815TIP3   OH241935   2.642   2.049   5.237  0.6183  0.0432  0.6086
 6815TIP3    H141936   2.644   2.018   5.327  2.4643  1.0379  0.9514
 6815TIP3    H241937   2.640   2.144   5.244 -0.8580  0.1352 -0.4338
 6816TIP3   OH241938   1.409   6.596  15.675 -0.3152 -0.5863  0.0167
 6816TIP3    H141939   1.318   6.568  15.682 -0.3515 -0.4645  0.0292
 6816TIP3    H241940   1.428   6.590  15.581 -0.2331 -0.9348  0.0541
 6817TIP3   OH241941   5.622   0.032  14.402  0.4041  0.5967  0.5248
 6817TIP3    H141942   5.598  -0.031  14.470 -0.5953  0.8240  0.3962
 6817TIP3    H241943   5.711   0.007  14.377  0.2573 -0.3769  0.9180
 6818TIP3   OH241944   6.085   5.024   4.458 -0.1295  0.4817  0.3801
 6818TIP3    H141945   6.146   4.951   4.473 -1.0485 -0.0760  1.5089
 6818TIP3    H241946   6.009   4.983   4.417 -0.4680  0.8813  0.6090
 6819TIP3   OH241947   4.218   1.504   5.203  1.0450  0.2427  0.1189
 6819TIP3    H141948   4.293   1.478   5.149  0.4627  0.1212 -0.6570
 6819TIP3    H241949   4.197   1.426   5.254 -0.8566 -1.0329 -2.3873
 6820TIP3   OH241950   4.025   0.227   0.652  0.3827 -0.3596 -0.5776
 6820TIP3    H141951   4.054   0.138   0.632  2.1189  0.2822 -1.1208
 6820TIP3    H241952   4.096   0.283   0.620 -0.8914  1.2630 -0.7185
 6821TIP3   OH241953   1.296   6.327   1.941 -0.2945  0.7257 -0.1251
 6821TIP3    H141954   1.355   6.377   1.885 -1.4075  0.0183 -2.0348
 6821TIP3    H241955   1.352   6.261   1.981  0.4637  0.9332 -0.8063
 6822TIP3   OH241956   3.712   3.174   5.432  0.0331 -0.2216 -0.0125
 6822TIP3    H141957   3.623   3.161   5.464 -0.1396 -0.0595 -0.4174
 6822TIP3    H241958   3.753   3.232   5.496 -1.9733  4.7780 -2.6661
 6823TIP3   OH241959   2.908   4.915   1.112  0.2019 -0.3676  0.3120
 6823TIP3    H141960   2.831   4.961   1.145  0.9258  0.6453  0.6601
 6823TIP3    H241961   2.948   4.876   1.190  1.4863  1.3717  0.5782
 6824TIP3   OH241962   5.148   2.036   2.583 -0.0072  0.2898  0.1590
 6824TIP3    H141963   5.077   2.016   2.521 -0.4239 -1.0179  1.0103
 6824TIP3    H241964   5.228   2.026   2.532 -0.3573 -0.4546 -0.2550
 6825TIP3   OH241965   6.430   6.566  13.912  0.0591 -0.3184 -0.1390
 6825TIP3    H141966   6.340   6.535  13.898  0.7099 -1.7644 -1.3574
 6825TIP3    H241967   6.436   6.647  13.863  0.0992 -1.4906 -2.1744
 6826TIP3   OH241968   0.507   4.785  16.875 -0.4211 -0.3243  0.2234
 6826TIP3    H141969   0.492   4.701  16.918 -1.0090 -0.5406 -0.3699
 6826TIP3    H241970   0.422   4.829  16.880 -0.3081 -0.0699 -0.0936
 6827TIP3   OH241971   2.297   4.100  12.320 -0.2812 -0.2008  0.1379
 6827TIP3    H141972   2.300   4.195  12.335  2.3938  0.3685 -2.8290
 6827TIP3    H241973   2.205   4.082  12.299 -0.4338  2.2586 -1.6957
 6828TIP3   OH241974   0.009   5.382   5.252 -0.4518  0.4880  0.0387
 6828TIP3    H141975   0.046   5.369   5.339  0.0707  0.8144 -0.1306
 6828TIP3    H241976   0.069   5.339   5.193 -1.5416 -0.9623 -0.0624
 6829TIP3   OH241977   1.489   2.384  15.774 -0.1191 -0.3902  0.1230
 6829TIP3    H141978   1.396   2.360  15.776 -0.4038  0.6436 -0.0717
 6829TIP3    H241979   1.498   2.450  15.843  0.0617  0.8474 -1.0364
 6830TIP3   OH241980   4.390   2.581   3.117  0.1775 -0.2724  0.3043
 6830TIP3    H141981   4.300   2.593   3.087  0.7046 -1.0881 -1.7898
 6830TIP3    H241982   4.423   2.669   3.133 -1.0948  0.0104  1.5041
 6831TIP3   OH241983   6.561   3.174  14.388  0.2533 -0.0101  0.0549
 6831TIP3    H141984   6.599   3.096  14.347 -0.4755 -0.5994  0.4660
 6831TIP3    H241985   6.564   3.155  14.482 -2.1015 -0.6026  0.0642
 6832TIP3   OH241986   6.387   4.955   2.483 -0.2792 -0.6867 -0.0286
 6832TIP3    H141987   6.428   4.886   2.430 -0.0181  0.0286 -0.7681
 6832TIP3    H241988   6.306   4.915   2.515 -0.9815 -0.7905 -1.8486
 6833TIP3   OH241989   2.314   4.503   4.287 -1.0066 -0.5760 -0.2715
 6833TIP3    H141990   2.234   4.467   4.326 -1.5560  1.3188  0.4992
 6833TIP3    H241991   2.335   4.578   4.343  0.6812 -0.3646 -1.1339
 6834TIP3   OH241992   0.722   1.092  14.951  0.1561 -0.6885  0.1478
 6834TIP3    H141993   0.677   1.120  14.871  0.3804 -1.6756 -0.3395
 6834TIP3    H241994   0.721   1.169  15.007  1.0310  0.3850 -1.2666
 6835TIP3   OH241995   4.186   4.447  15.415  0.0872 -0.1937  0.0087
 6835TIP3    H141996   4.209   4.429  15.506 -1.5661  0.0786  0.5186
 6835TIP3    H241997   4.174   4.542  15.411  1.3327 -0.0503 -0.8082
 6836TIP3   OH241998   4.568   6.577   3.694 -0.1098  0.0260  0.0187
 6836TIP3    H141999   4.500   6.551   3.632  0.0217 -0.6537  0.1536
 6836TIP3    H242000   4.643   6.601   3.639  0.1929 -1.1027 -0.0889
 6837TIP3   OH242001   0.110   5.346   1.510  0.1820  0.5517 -0.2112
 6837TIP3    H142002   0.138   5.287   1.440 -1.3913  0.6315 -0.9511
 6837TIP3    H242003   0.166   5.423   1.500  2.2543 -0.7413  0.7606
 6838TIP3   OH242004   4.479   4.345   0.918  0.4586  0.7061  0.3286
 6838TIP3    H142005   4.430   4.286   0.975  0.6234  1.4914  1.3213
 6838TIP3    H242006   4.412   4.392   0.868  0.2212  1.1516  1.0484
 6839TIP3   OH242007   3.558   1.916  16.657  0.3686  0.9038  0.1019
 6839TIP3    H142008   3.490   1.918  16.590 -1.0296  0.0077  1.4306
 6839TIP3    H242009   3.620   1.984  16.631  0.1401  0.2553 -2.3393
 6840TIP3   OH242010   2.559   2.002  13.652 -0.3119 -0.0174  0.2616
 6840TIP3    H142011   2.517   1.980  13.735  1.0579 -1.1085  0.7103
 6840TIP3    H242012   2.645   2.035  13.676 -0.6098  1.5345 -0.6682
 6841TIP3   OH242013   3.138   4.003   2.540 -0.3266  0.2803  0.0255
 6841TIP3    H142014   3.089   3.949   2.478 -1.0146  2.3471 -1.3324
 6841TIP3    H242015   3.161   3.942   2.610 -3.6528 -1.1627  0.0959
 6842TIP3   OH242016   6.413   4.947   6.039 -0.6790 -0.2411 -0.0948
 6842TIP3    H142017   6.407   4.942   5.944 -1.2357  0.4492 -0.1018
 6842TIP3    H242018   6.424   5.041   6.058  0.7529 -0.4908  0.4519
 6843TIP3   OH242019   5.413   5.890   3.458  0.4630  0.4995 -0.2923
 6843TIP3    H142020   5.336   5.836   3.473  0.2698  0.6315 -0.7995
 6843TIP3    H242021   5.441   5.870   3.369  0.1939  1.4668 -0.6041
 6844TIP3   OH242022   5.537   2.493   5.647  0.0957  0.1716  0.1862
 6844TIP3    H142023   5.466   2.556   5.635 -0.1163 -0.0512  0.2686
 6844TIP3    H242024   5.519   2.424   5.583  0.1107  0.0020  0.3663
 6845TIP3   OH242025   6.485   4.011   1.248  0.2130 -0.2883 -0.1004
 6845TIP3    H142026   6.572   3.984   1.278  0.4713  0.7739  0.1535
 6845TIP3    H242027   6.424   3.961   1.304  0.5921 -2.2896 -1.3745
 6846TIP3   OH242028   3.891   6.334  11.941  0.2601 -0.0886  0.3918
 6846TIP3    H142029   3.850   6.253  11.972 -2.2354  0.5808 -0.8796
 6846TIP3    H242030   3.872   6.398  12.010  0.7890 -0.2006  0.6423
 6847TIP3   OH242031   5.418   1.473  11.302  0.2009  0.3288 -0.5685
 6847TIP3    H142032   5.417   1.396  11.359  2.0482  1.0456  0.5307
 6847TIP3    H242033   5.342   1.524  11.330 -0.2981 -0.4666 -0.4305
 6848TIP3   OH242034   2.813   5.378   2.282  0.3088 -0.5279  0.1115
 6848TIP3    H142035   2.812   5.292   2.240  0.5899 -0.0914 -0.8002
 6848TIP3    H242036   2.730   5.418   2.258  0.5955 -0.1603 -0.2802
 6849TIP3   OH242037   3.661   5.062   3.757 -0.1038 -0.7946 -0.4690
 6849TIP3    H142038   3.588   5.054   3.819  0.6422 -2.1159  0.2836
 6849TIP3    H242039   3.732   5.012   3.798  1.3845  0.8481 -0.9680
 6850TIP3   OH242040   3.301   2.021  12.544  0.1100 -0.3483  0.4437
 6850TIP3    H142041   3.250   2.102  12.554  0.4248 -0.2155  0.9801
 6850TIP3    H242042   3.379   2.048  12.496 -1.0892 -0.8636 -1.9545
 6851TIP3   OH242043   1.800   3.333   2.952 -0.6351 -0.2249  0.0780
 6851TIP3    H142044   1.803   3.254   3.005 -0.4060 -0.4503 -0.2708
 6851TIP3    H242045   1.891   3.364   2.950 -0.4748 -0.7214 -0.9337
 6852TIP3   OH242046   0.748   5.169  15.764  0.7113  0.0624 -0.1499
 6852TIP3    H142047   0.704   5.093  15.802  0.8638  0.1294  0.1614
 6852TIP3    H242048   0.745   5.236  15.832  0.1389  0.5050 -0.6053
 6853TIP3   OH242049   2.620   6.176   5.351 -0.2986  0.3393  0.4006
 6853TIP3    H142050   2.525   6.181   5.344 -0.3053  0.5310  0.6203
 6853TIP3    H242051   2.647   6.263   5.382 -0.0104  0.4320 -0.0949
 6854TIP3   OH242052   5.631   3.429  16.210 -0.4604 -0.7691 -0.4269
 6854TIP3    H142053   5.600   3.495  16.147  0.6985  1.8873  1.5754
 6854TIP3    H242054   5.705   3.387  16.167  0.5594  1.2629 -0.7514
 6855TIP3   OH242055   6.580   2.507  14.785  0.1886  0.0043 -0.5583
 6855TIP3    H142056   6.587   2.443  14.714  0.5630  1.4668 -1.8999
 6855TIP3    H242057   6.631   2.582  14.754  0.7735  0.5077  1.4851
 6856TIP3   OH242058   0.251   1.458  13.640  0.0784  0.1387 -0.5298
 6856TIP3    H142059   0.186   1.398  13.678  0.1505  1.6426  2.2159
 6856TIP3    H242060   0.199   1.533  13.609  0.3561  0.7120  0.3656
 6857TIP3   OH242061   0.056   0.649  12.438  0.1674 -0.0111  0.2115
 6857TIP3    H142062   0.093   0.726  12.395 -0.3759 -0.0598 -0.3426
 6857TIP3    H242063   0.103   0.645  12.522 -1.3621  2.2519  1.2937
 6858TIP3   OH242064   0.143   3.850   1.220 -0.0816  0.2091 -0.2549
 6858TIP3    H142065   0.195   3.835   1.141  1.2714  1.3032  0.4004
 6858TIP3    H242066   0.195   3.910   1.273 -1.5832  0.5831  0.8767
 6859TIP3   OH242067   6.606   3.372   3.079 -0.2454  0.0831  0.4897
 6859TIP3    H142068   6.691   3.328   3.076 -0.6459 -0.6504 -1.3799
 6859TIP3    H242069   6.624   3.462   3.052  0.0891  0.2314  1.1872
 6860TIP3   OH242070   6.479   5.283  14.304  0.3272 -0.1248  0.0781
 6860TIP3    H142071   6.491   5.376  14.324 -0.7736  0.0742 -0.0991
 6860TIP3    H242072   6.525   5.270  14.221  1.4384 -0.0124  0.6531
 6861TIP3   OH242073   4.329   2.228  16.896  0.1665 -0.0537  0.3889
 6861TIP3    H142074   4.308   2.316  16.928  0.0825 -0.2175  0.7931
 6861TIP3    H242075   4.328   2.236  16.801 -0.7950  0.1666  0.4056
 6862TIP3   OH242076   6.034   3.498   2.312  0.4146  0.3815  0.1787
 6862TIP3    H142077   6.005   3.444   2.385  0.5196 -0.6427 -0.5151
 6862TIP3    H242078   5.956   3.508   2.257  1.2559 -2.4790 -1.7531
 6863TIP3   OH242079   1.659   1.436  13.294 -0.3050 -0.2016 -0.0843
 6863TIP3    H142080   1.599   1.460  13.365 -0.6062 -1.0008 -0.0643
 6863TIP3    H242081   1.637   1.346  13.273 -1.2633  0.4559 -2.2257
 6864TIP3   OH242082   5.041   6.413  16.488 -0.8250  0.0911  0.1965
 6864TIP3    H142083   5.054   6.439  16.397  0.3956 -1.4868 -0.1423
 6864TIP3    H242084   4.951   6.379  16.491 -1.5135  1.8270  0.0526
 6865TIP3   OH242085   4.291   2.583  12.789  0.0087 -0.0392  0.0452
 6865TIP3    H142086   4.277   2.547  12.701 -0.0327  1.1340 -0.4571
 6865TIP3    H242087   4.309   2.676  12.773 -2.5103  0.7840  1.4011
 6866TIP3   OH242088   0.486   2.956  15.242 -0.8879 -0.4770 -0.1406
 6866TIP3    H142089   0.470   2.862  15.233  0.4416 -0.7788  0.4332
 6866TIP3    H242090   0.446   2.979  15.326 -2.0772 -0.3131 -0.7382
 6867TIP3   OH242091   6.539   1.430   5.640 -0.4716  0.0788  0.1883
 6867TIP3    H142092   6.520   1.351   5.690  1.6394  0.4174  1.6868
 6867TIP3    H242093   6.503   1.501   5.693 -1.2851  0.2276 -0.5437
 6868TIP3   OH242094   2.348   2.245   2.388  0.0343  0.1802  0.2856
 6868TIP3    H142095   2.269   2.202   2.352  0.4088 -0.4973  0.2483
 6868TIP3    H242096   2.382   2.182   2.451  0.1255  0.8048  0.8626
 6869TIP3   OH242097   4.054   4.665   0.186 -0.3379 -0.1908 -0.0515
 6869TIP3    H142098   3.977   4.651   0.241 -2.1472  1.3822 -2.0116
 6869TIP3    H242099   4.045   4.754   0.154  1.5308 -0.4731 -1.5702
 6870TIP3   OH242100   5.525   5.963  10.532 -0.6147  0.3159  0.2920
 6870TIP3    H142101   5.606   5.992  10.489  0.4250 -2.9456 -0.2569
 6870TIP3    H242102   5.552   5.943  10.621 -1.5360  1.8951  0.9565
 6871TIP3   OH242103   5.963   4.745   2.019 -0.7255 -0.5188  0.5640
 6871TIP3    H142104   5.998   4.825   2.059 -1.0431  0.1756 -0.4887
 6871TIP3    H242105   5.876   4.770   1.989 -0.5150 -1.0240 -0.4964
 6872TIP3   OH242106   3.858   0.026   1.264 -0.1692 -0.1138 -0.5354
 6872TIP3    H142107   3.902  -0.034   1.204 -2.7603 -0.6397 -2.0312
 6872TIP3    H242108   3.779  -0.021   1.292  1.1769 -0.1820  3.9327
 6873TIP3   OH242109   5.360   2.867  12.278  0.0349 -0.0060 -0.2432
 6873TIP3    H142110   5.302   2.936  12.246 -1.3608 -1.4589 -0.9688
 6873TIP3    H242111   5.377   2.891  12.369 -1.9593  0.3346  0.0852
 6874TIP3   OH242112   1.489   1.190  16.136  0.6994 -0.3301 -0.4842
 6874TIP3    H142113   1.512   1.257  16.072  0.3261 -0.4503 -0.7536
 6874TIP3    H242114   1.560   1.126  16.131  2.9974  1.7532  2.3408
 6875TIP3   OH242115   5.527   2.074  16.975  0.2208  0.2510 -0.5616
 6875TIP3    H142116   5.522   2.160  16.935 -2.6688  0.8434  0.7848
 6875TIP3    H242117   5.517   2.012  16.903 -0.9965  1.1783 -1.2257
 6876TIP3   OH242118   2.824   3.058   4.657 -0.5512  0.4837  0.6331
 6876TIP3    H142119   2.920   3.062   4.663 -0.4475  1.0749 -0.9953
 6876TIP3    H242120   2.799   2.995   4.725  1.0235 -0.0269  0.7886
 6877TIP3   OH242121   5.791   1.192  16.123 -0.3616 -0.8309 -0.0236
 6877TIP3    H142122   5.706   1.173  16.163 -0.8864 -1.1154 -1.2559
 6877TIP3    H242123   5.809   1.117  16.067 -0.6446  0.4851 -1.9499
 6878TIP3   OH242124   3.693   0.027  13.274 -0.1581 -0.4774  0.5863
 6878TIP3    H142125   3.777   0.042  13.230 -1.8704  2.4573 -2.1486
 6878TIP3    H242126   3.715   0.028  13.367  2.7939  0.4856  0.0113
 6879TIP3   OH242127   5.612   1.184  15.752 -0.1064  0.0913 -0.2379
 6879TIP3    H142128   5.613   1.228  15.667  0.4158  0.3322 -0.1118
 6879TIP3    H242129   5.669   1.108  15.740 -0.3934 -0.1256 -0.2340
 6880TIP3   OH242130   2.864   4.118  11.607  0.2916  0.6671  0.1542
 6880TIP3    H142131   2.959   4.124  11.610  0.3494 -0.4907  1.3432
 6880TIP3    H242132   2.847   4.030  11.573 -0.3672  1.1290 -0.7489
 6881TIP3   OH242133   6.113   5.793   0.576 -0.1349  0.3715  0.2183
 6881TIP3    H142134   6.125   5.828   0.665  3.8480  1.2707 -0.4926
 6881TIP3    H242135   6.104   5.871   0.521  0.5938 -0.0140 -0.4704
 6882TIP3   OH242136   5.656   3.024   1.163  0.4883  0.0070 -0.1873
 6882TIP3    H142137   5.599   3.099   1.181  0.9211  0.7478 -1.6913
 6882TIP3    H242138   5.635   2.961   1.231 -0.3936  1.2204  0.7184
 6883TIP3   OH242139   6.380   4.533   3.686  0.3808  0.4747 -0.4162
 6883TIP3    H142140   6.354   4.489   3.766  2.7376 -0.5809 -0.1532
 6883TIP3    H242141   6.306   4.522   3.627 -0.6251 -0.4079  0.9625
 6884TIP3   OH242142   5.094   2.516  11.494 -0.3076  0.1878 -0.2812
 6884TIP3    H142143   5.171   2.547  11.446  0.7918 -0.5412  0.9518
 6884TIP3    H242144   5.034   2.487  11.425  0.4871  0.8029 -1.2724
 6885TIP3   OH242145   1.296   0.597   5.171  0.0437  0.0980  0.1522
 6885TIP3    H142146   1.301   0.550   5.088  0.2453 -0.0029  0.2198
 6885TIP3    H242147   1.386   0.623   5.190 -0.1210  0.8447 -0.0715
 6886TIP3   OH242148   2.709   2.213  12.692 -0.2789 -0.3829 -0.0127
 6886TIP3    H142149   2.779   2.168  12.644 -1.9309 -3.1853 -0.0494
 6886TIP3    H242150   2.690   2.291  12.640  0.9643 -0.9960 -1.4680
 6887TIP3   OH242151   1.773   3.478  13.606 -0.2502 -0.3499 -0.3673
 6887TIP3    H142152   1.777   3.485  13.510 -2.3576  0.5382 -0.4503
 6887TIP3    H242153   1.771   3.569  13.636 -3.5388 -0.5124  0.2078
 6888TIP3   OH242154   1.795   5.540   3.719 -0.7593  0.2017  0.7303
 6888TIP3    H142155   1.722   5.501   3.670  0.8997 -1.6950 -0.3836
 6888TIP3    H242156   1.851   5.466   3.740  0.6963  1.5720  1.8358
 6889TIP3   OH242157   3.319   4.846   3.981 -0.3398  0.1938 -0.0882
 6889TIP3    H142158   3.339   4.836   3.887 -0.2122 -3.7800  0.1945
 6889TIP3    H242159   3.403   4.832   4.024 -0.8314 -0.5186  0.6586
 6890TIP3   OH242160   2.197   2.911   1.753 -0.1977 -0.0802 -0.0590
 6890TIP3    H142161   2.234   2.984   1.803 -0.0271 -0.3839  0.2606
 6890TIP3    H242162   2.243   2.914   1.669  2.3169 -1.8659  1.1394
 6891TIP3   OH242163   5.952   3.497  13.390 -0.3788  0.3069  0.0555
 6891TIP3    H142164   5.985   3.555  13.321 -0.0357 -0.2907 -0.2906
 6891TIP3    H242165   5.889   3.441  13.346 -0.7882  0.4808  0.4127
 6892TIP3   OH242166   5.242   2.261   3.330 -0.7046 -0.1672 -0.1604
 6892TIP3    H142167   5.152   2.238   3.308 -1.8262  3.3228  0.1157
 6892TIP3    H242168   5.242   2.272   3.425  0.8863 -3.0039  0.2765
 6893TIP3   OH242169   2.239   6.653   1.157  1.0013 -0.1792 -0.1719
 6893TIP3    H142170   2.148   6.638   1.182  1.0140  0.4750  0.2845
 6893TIP3    H242171   2.233   6.697   1.073  0.8461  1.1224  0.5006
 6894TIP3   OH242172   1.006   6.459   0.915 -0.2728  0.6148  0.5538
 6894TIP3    H142173   0.998   6.453   0.820 -1.4976  2.3203  0.4904
 6894TIP3    H242174   1.001   6.369   0.945 -0.0160  0.0541 -0.9936
 6895TIP3   OH242175   0.969   3.643   0.771  0.1145 -0.9177 -0.2131
 6895TIP3    H142176   0.889   3.683   0.803  0.7841 -0.1095  0.5177
 6895TIP3    H242177   1.019   3.716   0.734 -0.3321 -1.7034 -2.5661
 6896TIP3   OH242178   6.455   3.087  11.783 -0.2079 -0.0190 -0.3837
 6896TIP3    H142179   6.478   2.995  11.795 -0.4027 -0.2417 -1.5853
 6896TIP3    H242180   6.368   3.086  11.743  0.3139  0.6252 -1.6159
 6897TIP3   OH242181   5.298   0.638   1.436  0.0312  0.1149  0.1971
 6897TIP3    H142182   5.337   0.610   1.519 -0.5119  0.6272  0.6281
 6897TIP3    H242183   5.359   0.605   1.370  0.5540 -0.1636  0.7999
 6898TIP3   OH242184   2.897   1.505  13.751  0.2962  0.8104  0.7011
 6898TIP3    H142185   2.918   1.428  13.805  2.4064 -0.3262 -1.5278
 6898TIP3    H242186   2.815   1.483  13.709  0.4327  0.1507  0.7655
 6899TIP3   OH242187   5.523   0.784  13.430 -0.3855 -0.6944  0.1741
 6899TIP3    H142188   5.536   0.699  13.473 -0.3382 -0.3733  0.7973
 6899TIP3    H242189   5.592   0.840  13.465  0.0293 -0.5912 -0.7776
 6900TIP3   OH242190   5.159   3.500   3.457  0.0962 -0.5513 -0.0853
 6900TIP3    H142191   5.218   3.478   3.385  1.0855 -2.7355  1.2739
 6900TIP3    H242192   5.076   3.458   3.434  0.6227 -1.8843  0.3123
 6901TIP3   OH242193   4.836   2.359   5.466 -0.2642 -0.6968  0.2187
 6901TIP3    H142194   4.896   2.434   5.460  0.0579 -0.9676  0.0473
 6901TIP3    H242195   4.891   2.287   5.498 -0.8995 -0.4911  1.8963
 6902TIP3   OH242196   2.518   6.789   3.233 -0.9178  0.5490  0.3902
 6902TIP3    H142197   2.513   6.876   3.193  0.3069  0.6877  0.4886
 6902TIP3    H242198   2.486   6.801   3.322 -1.3891  0.7500  0.1965
 6903TIP3   OH242199   0.377   5.391  15.722  0.0291  0.2374 -0.3517
 6903TIP3    H142200   0.283   5.409  15.720 -0.1922 -0.8960 -0.8398
 6903TIP3    H242201   0.417   5.473  15.693 -0.8579  0.4109 -1.1548
 6904TIP3   OH242202   1.969   6.604   0.804 -0.2825  0.2823 -0.3396
 6904TIP3    H142203   2.022   6.525   0.793 -0.7592  0.2090 -2.5594
 6904TIP3    H242204   1.880   6.571   0.820 -0.0935  0.4178  1.2164
 6905TIP3   OH242205   3.255   5.933   6.316 -0.0286 -0.3627 -0.0053
 6905TIP3    H142206   3.292   5.997   6.378  0.0780 -0.2156 -0.2194
 6905TIP3    H242207   3.181   5.980   6.276  0.2922 -0.2368 -0.4479
 6906TIP3   OH242208   0.278   1.157   4.354 -0.1357  0.2268 -0.0264
 6906TIP3    H142209   0.275   1.182   4.261  3.7874  3.2949  0.4249
 6906TIP3    H242210   0.206   1.206   4.394 -0.8690  0.1328 -1.1650
 6907TIP3   OH242211   6.815   5.170  14.611  0.1179 -0.5377 -0.0760
 6907TIP3    H142212   6.758   5.170  14.688 -0.0151  0.9680 -0.1462
 6907TIP3    H242213   6.903   5.154  14.647 -0.1996 -2.0161  0.1203
 6908TIP3   OH242214   0.569   3.025   3.988 -0.6269 -0.2265  0.2908
 6908TIP3    H142215   0.645   3.008   4.043 -1.5354 -1.7069  1.1614
 6908TIP3    H242216   0.524   3.097   4.031  1.7299  2.7682 -1.8350
 6909TIP3   OH242217   5.085   3.110  14.482  0.0348  0.0680  0.1411
 6909TIP3    H142218   5.026   3.038  14.505 -1.4147  1.4511  0.9009
 6909TIP3    H242219   5.116   3.088  14.394 -1.7892 -0.5943 -0.3746
 6910TIP3   OH242220   6.549   4.753   2.385 -0.1510 -0.5728 -0.2252
 6910TIP3    H142221   6.592   4.703   2.316  0.3090 -1.0315  0.3863
 6910TIP3    H242222   6.621   4.788   2.438 -0.4863  0.2091 -0.2760
 6911TIP3   OH242223   0.763   6.778   5.241 -0.3374  0.0996  0.0460
 6911TIP3    H142224   0.758   6.863   5.285 -2.9362  0.2357 -0.3324
 6911TIP3    H242225   0.753   6.798   5.148  0.5930 -0.5193 -0.1988
 6912TIP3   OH242226   1.471   3.495   4.510  0.3121 -0.1917 -0.2464
 6912TIP3    H142227   1.449   3.430   4.577 -1.5374  0.6121 -0.0245
 6912TIP3    H242228   1.444   3.454   4.427  1.3138 -0.6200 -0.3775
 6913TIP3   OH242229   4.217   4.140   3.071 -1.3362  0.1904  0.5976
 6913TIP3    H142230   4.233   4.067   3.011 -1.5108 -0.0125  0.7975
 6913TIP3    H242231   4.176   4.207   3.016 -0.4512  0.4472  0.2370
 6914TIP3   OH242232   3.751   5.870  15.785  0.2830  0.3152 -0.2386
 6914TIP3    H142233   3.665   5.830  15.777  0.3257 -0.2764  1.8197
 6914TIP3    H242234   3.812   5.803  15.754  0.0905  0.3120 -0.6184
 6915TIP3   OH242235   2.785   2.237   4.270  0.1134 -0.0992 -0.0731
 6915TIP3    H142236   2.821   2.160   4.226 -1.5170 -0.5898 -0.6310
 6915TIP3    H242237   2.718   2.270   4.210  0.0650  1.1499  0.6209
 6916TIP3   OH242238   5.976   5.567  12.604 -0.8517  0.1079  0.4971
 6916TIP3    H142239   5.895   5.615  12.587  1.1410  3.0978 -1.3302
 6916TIP3    H242240   6.039   5.603  12.543  1.8039 -2.4529  1.4915
 6917TIP3   OH242241   4.146   4.206  12.500  0.2720  0.1484  0.3439
 6917TIP3    H142242   4.191   4.200  12.584 -2.0012  0.2867  1.6741
 6917TIP3    H242243   4.130   4.299  12.487 -0.7167  0.0272  0.5689
 6918TIP3   OH242244   1.885   0.246   4.671  0.1507 -0.2037 -0.4532
 6918TIP3    H142245   1.790   0.260   4.676  0.2307  0.3418 -0.4144
 6918TIP3    H242246   1.908   0.211   4.757 -0.3654 -2.6399 -1.2242
 6919TIP3   OH242247   2.721   5.003   5.264 -0.4485 -0.0195 -0.3766
 6919TIP3    H142248   2.814   4.979   5.262  0.2955  2.6871 -2.0125
 6919TIP3    H242249   2.686   4.972   5.180 -0.6372  0.4184 -0.4584
 6920TIP3   OH242250   0.559   3.305   6.217  0.4041  0.1971  0.8932
 6920TIP3    H142251   0.622   3.339   6.281  0.0367 -0.1541  1.4585
 6920TIP3    H242252   0.574   3.211   6.217  0.6702  0.2392  0.1581
 6921TIP3   OH242253   3.957   3.863  16.330 -0.1468  0.0788 -0.8980
 6921TIP3    H142254   3.955   3.869  16.234  2.3636 -0.9149 -1.0880
 6921TIP3    H242255   4.005   3.941  16.358 -2.1119  1.1341 -0.2679
 6922TIP3   OH242256   2.955   4.885  11.437 -0.2855  0.4522  0.3086
 6922TIP3    H142257   2.973   4.795  11.409  0.2432  1.1768 -1.8824
 6922TIP3    H242258   2.860   4.893  11.430 -0.4831 -0.2586  1.7184
 6923TIP3   OH242259   4.800   4.836   2.926 -0.1672 -0.0138  0.5567
 6923TIP3    H142260   4.788   4.755   2.976  0.0912  0.1739  0.9259
 6923TIP3    H242261   4.895   4.846   2.919 -0.1913 -0.6120 -0.9155
 6924TIP3   OH242262   6.656   4.757   0.646 -0.3006  0.0489 -0.2563
 6924TIP3    H142263   6.633   4.778   0.556 -0.1657  2.7620  0.2404
 6924TIP3    H242264   6.711   4.831   0.675  0.7708 -1.3821  1.6464
 6925TIP3   OH242265   3.326   1.983  15.151  0.2014  0.3144  0.3393
 6925TIP3    H142266   3.373   2.002  15.070 -1.9503 -0.2565 -1.1112
 6925TIP3    H242267   3.291   1.895  15.139 -0.5538  0.3901  1.7072
 6926TIP3   OH242268   5.543   4.598  16.281  0.4786 -0.2034 -0.3730
 6926TIP3    H142269   5.501   4.645  16.210 -1.0005  0.7930  1.0912
 6926TIP3    H242270   5.629   4.639  16.290 -0.1704  1.1629 -0.1776
 6927TIP3   OH242271   0.967   4.037   3.539 -0.6209  0.0190  0.0476
 6927TIP3    H142272   1.042   4.031   3.597  0.2858  1.8824 -0.8336
 6927TIP3    H242273   0.909   4.100   3.582 -2.2689 -2.1983  1.2602
 6928TIP3   OH242274   4.342   0.738  12.249  0.3549  0.0478  0.1065
 6928TIP3    H142275   4.293   0.674  12.301  3.3419 -2.2258  0.4205
 6928TIP3    H242276   4.434   0.713  12.262  1.5456  3.0722 -1.6213
 6929TIP3   OH242277   3.229   4.144  14.059 -0.2829 -0.0763 -0.0142
 6929TIP3    H142278   3.206   4.180  14.144  2.1125  0.0460  0.6470
 6929TIP3    H242279   3.274   4.062  14.078  1.5038  0.6013 -1.0317
 6930TIP3   OH242280   6.719   4.011  13.240 -0.5109  0.1132  1.0686
 6930TIP3    H142281   6.792   4.020  13.300 -1.1913  2.7411  1.6263
 6930TIP3    H242282   6.652   3.965  13.290  1.0334 -3.4899  0.1530
 6931TIP3   OH242283   3.994   3.205   3.045  0.0777  0.5426 -0.2062
 6931TIP3    H142284   3.976   3.151   3.122 -0.5542  0.2853 -0.5268
 6931TIP3    H242285   4.060   3.156   2.996  0.5378  0.7422  0.1981
 6932TIP3   OH242286   2.105   2.624  15.844 -0.0661 -0.0375  0.1320
 6932TIP3    H142287   2.110   2.539  15.802 -1.8780 -0.0404 -0.1696
 6932TIP3    H242288   2.165   2.618  15.918  1.2769 -0.8906 -0.9663
 6933TIP3   OH242289   5.586   3.831  12.066  0.3522 -0.2414  0.4291
 6933TIP3    H142290   5.562   3.812  11.976  0.8490 -0.3138  0.3069
 6933TIP3    H242291   5.588   3.927  12.071  0.8344 -0.2382  0.2205
 6934TIP3   OH242292   3.414   4.080   0.841 -0.2731 -0.0371  0.6659
 6934TIP3    H142293   3.451   4.059   0.755  0.1884  0.0298  0.8400
 6934TIP3    H242294   3.449   4.013   0.899  1.0993  1.0800  1.1973
 6935TIP3   OH242295   4.583   1.527  15.915  0.1508 -0.3019 -0.0596
 6935TIP3    H142296   4.628   1.507  15.997 -0.3726  1.1111  0.6013
 6935TIP3    H242297   4.490   1.512  15.934  0.0720 -0.4769 -0.5583
 6936TIP3   OH242298   4.105   2.455  13.893 -0.0509 -0.3484 -0.3768
 6936TIP3    H142299   4.040   2.517  13.926  1.2747  1.6010 -1.2183
 6936TIP3    H242300   4.167   2.444  13.966 -0.8797 -1.6254  0.1663
 6937TIP3   OH242301   4.971   0.783  15.129 -0.4235 -0.1139 -0.0040
 6937TIP3    H142302   4.949   0.866  15.089 -0.1856 -0.8993 -1.8473
 6937TIP3    H242303   5.029   0.740  15.067 -0.2124 -1.4918  1.0848
 6938TIP3   OH242304   0.762   5.164   2.496 -0.0606  0.5875  0.2918
 6938TIP3    H142305   0.721   5.108   2.431 -1.4213  0.9443  0.8086
 6938TIP3    H242306   0.829   5.212   2.448 -2.3491  2.3140 -1.3602
 6939TIP3   OH242307   4.465   5.175  13.721 -0.5618  0.0784  0.0174
 6939TIP3    H142308   4.391   5.233  13.703 -2.1411 -2.1627 -1.2318
 6939TIP3    H242309   4.441   5.092  13.680  1.2708 -1.7052  2.2760
 6940TIP3   OH242310   0.878   1.673   0.507 -0.4285 -0.6362 -0.1282
 6940TIP3    H142311   0.881   1.762   0.472 -1.4275 -0.7357 -0.4885
 6940TIP3    H242312   0.818   1.678   0.582  0.4928 -0.7525  0.6377
 6941TIP3   OH242313   4.158   0.404   3.533  0.1992  0.9397 -0.0806
 6941TIP3    H142314   4.148   0.378   3.442  2.7929  1.1314 -0.5125
 6941TIP3    H242315   4.253   0.406   3.547 -0.1088  0.7412  2.6800
 6942TIP3   OH242316   4.991   0.448  10.663  0.1724 -0.3954 -0.2647
 6942TIP3    H142317   5.079   0.436  10.700  0.3587  0.6024 -0.3616
 6942TIP3    H242318   4.991   0.392  10.585  0.2478 -1.4427  0.4750
 6943TIP3   OH242319   3.070   6.046   2.948  0.9156  0.2645  0.2101
 6943TIP3    H142320   2.988   6.088   2.973  1.2292  1.3421 -0.5320
 6943TIP3    H242321   3.125   6.053   3.026  0.9964  1.3263  0.0656
 6944TIP3   OH242322   3.875   4.254   1.297  0.0464  0.9875  0.0319
 6944TIP3    H142323   3.924   4.174   1.277 -0.6164  0.3398  0.9397
 6944TIP3    H242324   3.864   4.253   1.392 -1.3718  1.3265 -0.1072
 6945TIP3   OH242325   5.192   3.518   1.893  0.0671  0.1587 -0.1074
 6945TIP3    H142326   5.187   3.424   1.878 -0.1568  0.2349 -0.5162
 6945TIP3    H242327   5.190   3.557   1.806 -1.4492  0.6172  0.0911
 6946TIP3   OH242328   5.044   1.032  12.912 -0.4430  0.4117  0.2752
 6946TIP3    H142329   5.052   0.939  12.934 -0.0609  0.1956 -0.7073
 6946TIP3    H242330   4.994   1.070  12.984  1.2023 -0.1312  1.7722
 6947TIP3   OH242331   1.140   6.563   1.647  0.2254 -0.0814 -0.0663
 6947TIP3    H142332   1.167   6.638   1.594  0.2850  0.3777  0.5937
 6947TIP3    H242333   1.181   6.487   1.605  0.3814  0.2905 -0.5896
 6948TIP3   OH242334   6.292   4.436  11.223 -0.4303 -0.2217  0.2478
 6948TIP3    H142335   6.261   4.438  11.314  0.2219  2.2125  0.4752
 6948TIP3    H242336   6.213   4.445  11.171 -0.6767 -0.1005  0.6336
 6949TIP3   OH242337   4.371   5.212   3.860 -0.1186 -0.0143 -0.1762
 6949TIP3    H142338   4.445   5.175   3.812  0.7335  0.3043  0.8567
 6949TIP3    H242339   4.310   5.241   3.792  1.6142  1.6105 -1.1397
 6950TIP3   OH242340   5.375   3.499   5.337  0.0367  0.0561  0.0807
 6950TIP3    H142341   5.284   3.520   5.316  0.0337 -0.4791 -0.4475
 6950TIP3    H242342   5.407   3.578   5.382 -1.2730 -0.5083  2.1703
 6951TIP3   OH242343   4.110   0.088  13.817 -0.0377 -0.1634  0.1119
 6951TIP3    H142344   4.138   0.031  13.746  1.0995  1.7206 -1.0385
 6951TIP3    H242345   4.062   0.158  13.773 -0.1759  0.5147  1.3203
 6952TIP3   OH242346   5.538   6.418  15.566  0.2317  0.6442  0.6465
 6952TIP3    H142347   5.479   6.429  15.641 -0.8957  1.8335 -0.3813
 6952TIP3    H242348   5.550   6.324  15.560 -2.6390  0.2123  0.1225
 6953TIP3   OH242349   1.028   3.148  12.862 -0.0502  0.1454 -0.2585
 6953TIP3    H142350   1.031   3.241  12.883  1.5750  0.0400  0.1277
 6953TIP3    H242351   1.120   3.123  12.854 -0.4501 -1.5061 -0.0017
 6954TIP3   OH242352   0.288   5.786  12.448 -0.1398 -0.5120  0.6410
 6954TIP3    H142353   0.342   5.726  12.396 -0.1561  1.1541 -1.4324
 6954TIP3    H242354   0.352   5.839  12.496  0.0322  0.1091 -0.2462
 6955TIP3   OH242355   0.271   1.773  10.346  0.0372  0.6747  0.2893
 6955TIP3    H142356   0.220   1.726  10.281  0.9367  1.4442 -1.0101
 6955TIP3    H242357   0.319   1.704  10.393  0.1554  0.1747 -0.5526
 6956TIP3   OH242358   6.462   1.108   2.318  0.1934 -0.3607  0.0111
 6956TIP3    H142359   6.547   1.137   2.285  0.8336 -1.5800  0.5558
 6956TIP3    H242360   6.479   1.082   2.408 -1.1851  1.2982  0.8159
 6957TIP3   OH242361   2.618   4.417  11.155 -0.1296 -0.4280  0.2269
 6957TIP3    H142362   2.638   4.449  11.067 -0.2715  2.8368  1.2493
 6957TIP3    H242363   2.523   4.404  11.154 -0.2216  0.2117  0.0640
 6958TIP3   OH242364   5.452   4.345   4.534  0.0437 -0.3312 -0.3390
 6958TIP3    H142365   5.484   4.287   4.603  0.0794 -1.4386 -1.2610
 6958TIP3    H242366   5.357   4.347   4.546  0.2606  3.0354  2.4584
 6959TIP3   OH242367   4.971   2.240  15.686  0.2813 -0.1803 -0.2821
 6959TIP3    H142368   5.017   2.172  15.735  1.6473  0.3437 -0.7950
 6959TIP3    H242369   4.998   2.322  15.727 -0.3462  0.1336 -0.4779
 6960TIP3   OH242370   5.393   0.387   5.596  0.0397 -0.0183 -0.3726
 6960TIP3    H142371   5.413   0.454   5.531  0.1427  0.1565 -0.1586
 6960TIP3    H242372   5.325   0.333   5.554  0.5216 -0.2544 -0.8542
 6961TIP3   OH242373   0.804   3.297  12.303  0.1099 -0.1725 -0.3699
 6961TIP3    H142374   0.816   3.389  12.280 -0.1103  0.4231  1.7542
 6961TIP3    H242375   0.888   3.256  12.282  0.5585  0.7223 -0.3391
 6962TIP3   OH242376   0.911   1.246   4.213  0.3623  0.3294  0.0497
 6962TIP3    H142377   0.881   1.297   4.288  2.2437 -0.5496  1.4702
 6962TIP3    H242378   0.863   1.163   4.219 -1.8669  1.3623 -1.6347
 6963TIP3   OH242379   2.122   1.706   2.111 -0.4113  0.3770  0.3792
 6963TIP3    H142380   2.140   1.714   2.204  0.3800  0.0627  0.2607
 6963TIP3    H242381   2.171   1.629   2.083 -1.3712 -0.0609 -0.1203
 6964TIP3   OH242382   6.257   1.742  16.554  0.6301 -0.6090  0.4172
 6964TIP3    H142383   6.251   1.650  16.526  0.7578 -0.4304 -0.2146
 6964TIP3    H242384   6.170   1.778  16.536  1.0585 -0.1775 -0.9318
 6965TIP3   OH242385   1.454   6.384   2.684  0.2422 -0.4058  0.1429
 6965TIP3    H142386   1.362   6.407   2.675  0.2752  0.3353  1.3623
 6965TIP3    H242387   1.471   6.391   2.778  1.5141 -0.6167 -0.0500
 6966TIP3   OH242388   2.477   3.477  13.477 -0.7492  0.1904 -0.3678
 6966TIP3    H142389   2.570   3.486  13.498 -0.1923 -1.8692 -1.6256
 6966TIP3    H242390   2.440   3.563  13.496  0.9908  0.5120  2.0849
 6967TIP3   OH242391   3.785   6.482  12.276 -0.2720 -0.2554  0.0107
 6967TIP3    H142392   3.822   6.565  12.307  1.8090 -1.3205  0.5457
 6967TIP3    H242393   3.861   6.425  12.264 -1.7989 -3.4598  3.5986
 6968TIP3   OH242394   4.719   0.159  16.744  0.4512 -0.2250  0.1700
 6968TIP3    H142395   4.691   0.204  16.824  1.9914 -0.3498  0.8131
 6968TIP3    H242396   4.668   0.200  16.675 -0.5007  0.2876  1.1460
 6969TIP3   OH242397   6.291   4.369   4.999 -0.0757 -0.4527 -0.0208
 6969TIP3    H142398   6.377   4.397   4.968 -0.8421  1.2053 -0.8506
 6969TIP3    H242399   6.306   4.335   5.087  1.6565 -1.8329 -0.7970
 6970TIP3   OH242400   3.156   0.275   1.374 -0.0817 -0.6923  0.2365
 6970TIP3    H142401   3.085   0.312   1.427 -1.2815 -2.1796 -0.2678
 6970TIP3    H242402   3.186   0.199   1.424  0.5491 -0.6151 -0.0126
 6971TIP3   OH242403   1.663   1.883   5.667 -0.6464  0.2098  0.4512
 6971TIP3    H142404   1.758   1.888   5.652 -0.4196  0.9282  1.9818
 6971TIP3    H242405   1.645   1.789   5.670  0.1575  0.0608  0.9392
 6972TIP3   OH242406   3.472   4.579   2.393  0.1917 -0.0512  0.0807
 6972TIP3    H142407   3.507   4.539   2.313 -0.8092 -1.2668  0.2194
 6972TIP3    H242408   3.413   4.513   2.429 -2.4353  1.9187 -0.2628
 6973TIP3   OH242409   4.919   0.674  12.467 -0.3263 -0.6067 -0.0297
 6973TIP3    H142410   4.878   0.753  12.432  0.3385 -0.6682 -0.9963
 6973TIP3    H242411   4.999   0.663  12.415  0.5523 -0.8817  1.3208
 6974TIP3   OH242412   0.706   1.921  17.035  0.2158 -0.2542  0.4999
 6974TIP3    H142413   0.798   1.898  17.045  0.4700  0.0499 -0.9556
 6974TIP3    H242414   0.706   2.014  17.010 -0.4815 -0.2843  0.3536
 6975TIP3   OH242415   1.345   5.560  11.475 -0.1919  0.1343  0.2028
 6975TIP3    H142416   1.318   5.652  11.478  2.4943  0.9814  2.0279
 6975TIP3    H242417   1.439   5.562  11.493  0.0637 -2.9584 -0.2899
 6976TIP3   OH242418   1.312   0.133   5.117  1.2767 -0.8902 -0.5305
 6976TIP3    H142419   1.321   0.195   5.045 -1.2713  2.1372  1.4897
 6976TIP3    H242420   1.229   0.088   5.100 -0.0120  0.7678  1.0064
 6977TIP3   OH242421   6.391   3.132  12.591  0.4184 -0.2075 -0.3884
 6977TIP3    H142422   6.380   3.054  12.536 -0.5749  1.3313 -2.5393
 6977TIP3    H242423   6.485   3.149  12.589  0.3045  0.5272 -2.8033
 6978TIP3   OH242424   6.624   1.816  10.638 -0.4682 -0.1972 -0.6922
 6978TIP3    H142425   6.532   1.806  10.616 -0.8818  0.2038  0.7411
 6978TIP3    H242426   6.670   1.762  10.574 -1.8651 -2.5122  0.1325
 6979TIP3   OH242427   4.135   3.736   2.985 -0.2953 -0.6080  0.7037
 6979TIP3    H142428   4.131   3.650   3.027  1.5296 -0.3642  1.4482
 6979TIP3    H242429   4.048   3.773   2.998 -0.9311 -2.1067  0.8841
 6980TIP3   OH242430   5.539   3.518   4.659  0.5471 -0.4524 -0.7158
 6980TIP3    H142431   5.447   3.520   4.632  0.4190 -0.4819 -0.2869
 6980TIP3    H242432   5.536   3.501   4.753  0.9822 -0.1697 -0.6479
 6981TIP3   OH242433   5.877   4.906  11.926 -0.4390  0.2444  0.0280
 6981TIP3    H142434   5.837   4.820  11.935  0.3173 -0.0280  1.1030
 6981TIP3    H242435   5.820   4.964  11.977  0.2012 -0.0453  1.1169
 6982TIP3   OH242436   4.199   5.851   1.575 -0.1456 -0.5728 -0.1312
 6982TIP3    H142437   4.165   5.877   1.489  3.3085  0.5733 -1.3136
 6982TIP3    H242438   4.237   5.931   1.611 -0.1939 -1.3787  1.8290
 6983TIP3   OH242439   0.881   2.992  13.070 -0.2105 -0.7103  0.2564
 6983TIP3    H142440   0.910   2.904  13.093 -0.3198 -1.1914 -1.3145
 6983TIP3    H242441   0.962   3.039  13.051 -0.2497 -1.1290 -1.0318
 6984TIP3   OH242442   0.647   4.382  12.290 -0.4537  0.0782  0.1886
 6984TIP3    H142443   0.600   4.418  12.365  1.6821  0.6249  1.3630
 6984TIP3    H242444   0.582   4.377  12.220 -1.9411  1.8630  1.3596
 6985TIP3   OH242445   5.153   3.455   0.456  0.0726  0.0359  0.3711
 6985TIP3    H142446   5.103   3.443   0.375  0.4579  0.2254  0.1027
 6985TIP3    H242447   5.225   3.513   0.431  1.3815 -1.5334  0.3560
 6986TIP3   OH242448   4.364   3.721  10.967 -0.3130  0.3431  0.4078
 6986TIP3    H142449   4.381   3.628  10.979  0.4844  0.5057  0.5916
 6986TIP3    H242450   4.449   3.759  10.943 -0.6189  1.0262  0.3589
 6987TIP3   OH242451   1.177   6.324   1.441  0.4541  0.7501  0.5657
 6987TIP3    H142452   1.103   6.288   1.490  1.3442 -2.3918 -0.1767
 6987TIP3    H242453   1.139   6.355   1.359 -0.1427 -0.6201  0.2919
 6988TIP3   OH242454   2.227   1.947  11.980  0.0129  0.2884 -0.1094
 6988TIP3    H142455   2.275   1.998  12.045 -0.5530  0.4526  0.1877
 6988TIP3    H242456   2.142   1.991  11.973 -0.7228 -0.9475  0.6132
 6989TIP3   OH242457   4.518   3.824   1.800  0.3657  0.0024 -0.3653
 6989TIP3    H142458   4.584   3.844   1.734  0.1394 -1.7088 -1.1562
 6989TIP3    H242459   4.565   3.772   1.865  0.4220  1.1045  0.5029
 6990TIP3   OH242460   6.177   1.792   0.875  0.1259  0.5821 -0.3418
 6990TIP3    H142461   6.106   1.731   0.855  0.7438 -0.6271  0.9426
 6990TIP3    H242462   6.236   1.742   0.931  1.2412  2.0309 -0.1627
 6991TIP3   OH242463   3.652   0.852   4.835  0.0629 -0.1113  0.5511
 6991TIP3    H142464   3.664   0.793   4.760 -1.3564  3.2035 -2.5876
 6991TIP3    H242465   3.738   0.890   4.850  0.4146 -0.9983  0.8262
 6992TIP3   OH242466   5.236   3.707   1.647 -0.8980 -0.2625  0.2583
 6992TIP3    H142467   5.293   3.741   1.579 -0.5973  0.4218  0.8380
 6992TIP3    H242468   5.149   3.740   1.624 -1.1228 -1.4550 -0.7236
 6993TIP3   OH242469   5.279   5.131   4.351 -0.3540  0.1969  0.4872
 6993TIP3    H142470   5.283   5.050   4.299  1.1704 -0.5256  1.6323
 6993TIP3    H242471   5.367   5.139   4.388 -0.8215  1.7788  1.3183
 6994TIP3   OH242472   2.597   2.917   0.778  0.5976  0.0733  0.3119
 6994TIP3    H142473   2.659   2.916   0.851 -1.2977 -0.7605  2.0345
 6994TIP3    H242474   2.539   2.843   0.796 -0.2544  0.1617 -1.8071
 6995TIP3   OH242475   0.721   6.761   4.903 -0.1717  0.2282 -0.2454
 6995TIP3    H142476   0.771   6.782   4.824  1.4561  1.3957  1.0401
 6995TIP3    H242477   0.720   6.665   4.906  1.0250  0.1837 -0.8930
 6996TIP3   OH242478   3.584   6.323  14.503 -0.0652  0.3839  0.4804
 6996TIP3    H142479   3.674   6.301  14.524  0.6970  0.9647 -1.8971
 6996TIP3    H242480   3.570   6.409  14.544  1.0716  1.1042 -0.5863
 6997TIP3   OH242481   5.665   0.435   3.074 -0.3720  0.2876  0.4977
 6997TIP3    H142482   5.670   0.530   3.062 -1.1666  0.2758  0.0064
 6997TIP3    H242483   5.578   0.420   3.111 -0.2979 -0.2605  0.4573
 6998TIP3   OH242484   4.356   5.154   0.813 -0.0158  0.0260  0.3002
 6998TIP3    H142485   4.282   5.161   0.874  1.1386 -0.5169  1.8332
 6998TIP3    H242486   4.316   5.131   0.729 -1.5500 -0.7326  1.1934
 6999TIP3   OH242487   6.105   5.927  12.335  0.1643 -0.0061 -0.2767
 6999TIP3    H142488   6.091   6.012  12.375  0.4252 -0.2679  0.3985
 6999TIP3    H242489   6.174   5.941  12.270  2.3619 -0.2299  1.8540
 7000TIP3   OH242490   5.332   5.593  12.987  0.1362 -0.1741  0.4736
 7000TIP3    H142491   5.302   5.682  12.970 -0.1571 -0.2240  0.7116
 7000TIP3    H242492   5.300   5.541  12.913  0.4204 -0.0599  0.2690
 7001TIP3   OH242493   2.267   1.468   6.319 -0.2121 -0.1918 -0.5619
 7001TIP3    H142494   2.250   1.506   6.405 -0.0022  0.7715 -0.9349
 7001TIP3    H242495   2.215   1.387   6.318 -0.9998  0.2938  0.0885
 7002TIP3   OH242496   1.106   2.377  14.843  0.1161 -0.2174  0.7906
 7002TIP3    H142497   1.091   2.452  14.786 -1.7914 -0.7310  0.5532
 7002TIP3    H242498   1.068   2.403  14.927  0.6461 -0.4128  1.0947
 7003TIP3   OH242499   3.100   1.592  11.590 -0.2377  0.5413  0.3450
 7003TIP3    H142500   3.078   1.685  11.591 -0.2788  0.5561  2.0202
 7003TIP3    H242501   3.169   1.583  11.657 -0.6351 -0.7061  0.6284
 7004TIP3   OH242502   3.991   5.529  13.011 -0.2533  0.0957 -0.0255
 7004TIP3    H142503   3.986   5.449  13.063  0.9196  1.4612  2.2965
 7004TIP3    H242504   3.899   5.551  12.993 -0.6643 -0.7719  0.9130
 7005TIP3   OH242505   0.766   4.591  14.077 -0.7136  0.3889  0.2678
 7005TIP3    H142506   0.761   4.510  14.026  0.4307  1.2604 -1.3132
 7005TIP3    H242507   0.720   4.571  14.159 -2.9675 -0.9660 -1.2302
 7006TIP3   OH242508   4.869   5.342   4.701  0.2431 -0.3237  0.3542
 7006TIP3    H142509   4.804   5.311   4.763  0.6939 -0.9647  0.5205
 7006TIP3    H242510   4.909   5.418   4.743 -2.2505  1.8170 -0.9013
 7007TIP3   OH242511   4.836   3.490   0.527 -0.6725  0.2816 -0.0406
 7007TIP3    H142512   4.861   3.581   0.514  0.6737  0.2121  1.6642
 7007TIP3    H242513   4.869   3.444   0.450 -0.1787  1.0352 -0.2794
 7008TIP3   OH242514   2.118   0.738  14.087 -0.2013  0.5306 -0.1970
 7008TIP3    H142515   2.025   0.735  14.109  0.0051 -1.5163  0.5583
 7008TIP3    H242516   2.120   0.714  13.994 -0.3036 -2.1561  0.4136
 7009TIP3   OH242517   4.582   1.488  16.578 -0.2691 -0.1272  0.0163
 7009TIP3    H142518   4.599   1.394  16.585 -1.9229 -0.4029  0.8085
 7009TIP3    H242519   4.658   1.529  16.618  0.4458 -1.1224 -0.2744
 7010TIP3   OH242520   3.353   4.415  15.366  0.2334  0.0063 -0.2766
 7010TIP3    H142521   3.288   4.360  15.410  2.0283 -1.1606  1.0518
 7010TIP3    H242522   3.374   4.482  15.430  0.4758  0.2657 -0.6285
 7011TIP3   OH242523   5.042   0.444  14.134  0.3173  0.0711 -0.1739
 7011TIP3    H142524   5.021   0.357  14.166 -0.7765  0.3654 -0.0512
 7011TIP3    H242525   5.117   0.471  14.187 -0.0361 -0.3550  0.5725
 7012TIP3   OH242526   6.185   1.383   3.597  1.0523 -0.2992 -0.6815
 7012TIP3    H142527   6.219   1.443   3.530 -0.7373  2.8735  1.0201
 7012TIP3    H242528   6.091   1.380   3.581  0.6101  0.3724  1.4715
 7013TIP3   OH242529   5.983   5.126  12.971 -0.5446  0.6396  0.2586
 7013TIP3    H142530   6.051   5.060  12.955 -0.0371  1.3277 -0.5096
 7013TIP3    H242531   5.979   5.177  12.890 -2.6636  0.0285 -0.0738
 7014TIP3   OH242532   2.519   4.052   3.372  0.2601 -0.6859 -0.8516
 7014TIP3    H142533   2.425   4.037   3.363  0.0173  0.4832 -0.4599
 7014TIP3    H242534   2.552   4.052   3.282 -0.2970 -0.0869 -1.0669
 7015TIP3   OH242535   1.839   4.405  14.464 -0.5927 -0.1384  0.1527
 7015TIP3    H142536   1.856   4.489  14.422 -1.0669 -0.4115 -0.6041
 7015TIP3    H242537   1.833   4.426  14.557  2.8097  0.1303  0.4335
 7016TIP3   OH242538   2.707   1.489   1.516  0.7342  0.0214  0.1447
 7016TIP3    H142539   2.782   1.430   1.522  0.1549 -0.6753  0.7243
 7016TIP3    H242540   2.687   1.492   1.423  3.8607  3.3265 -0.6598
 7017TIP3   OH242541   5.869   2.167   5.078 -0.4415 -0.2336  0.3816
 7017TIP3    H142542   5.917   2.118   5.012  1.0759  1.0540  0.4780
 7017TIP3    H242543   5.888   2.121   5.160  1.5356  0.8327  0.5756
 7018TIP3   OH242544   4.179   2.557  15.304 -0.4011 -0.0707  0.2355
 7018TIP3    H142545   4.251   2.611  15.272 -2.4522  1.5625 -1.9630
 7018TIP3    H242546   4.182   2.478  15.251 -0.5940  0.3029 -0.3451
 7019TIP3   OH242547   6.238   4.624   0.385 -0.4998  0.6614 -0.2780
 7019TIP3    H142548   6.329   4.595   0.387 -0.9234 -0.7022  1.3553
 7019TIP3    H242549   6.237   4.707   0.432 -0.1867  0.3888  0.2147
 7020TIP3   OH242550   2.730   2.325  12.334  0.5846 -0.0712 -0.3669
 7020TIP3    H142551   2.679   2.244  12.333  0.2848  0.1205 -0.6107
 7020TIP3    H242552   2.666   2.393  12.353  0.7165  0.1968 -0.8690
 7021TIP3   OH242553   5.182   6.230   5.980 -0.4528  0.5826  0.3476
 7021TIP3    H142554   5.123   6.154   5.982 -0.3523  0.5128  0.7061
 7021TIP3    H242555   5.153   6.280   5.904  1.0412 -1.0538 -1.4271
 7022TIP3   OH242556   2.776   5.436   0.735 -0.5115 -0.4892 -0.3417
 7022TIP3    H142557   2.710   5.370   0.759 -1.0573 -0.3172 -1.3127
 7022TIP3    H242558   2.734   5.520   0.755  0.2955 -0.4103  1.1762
 7023TIP3   OH242559   5.885   0.102  15.552 -0.2187  0.0721 -0.8568
 7023TIP3    H142560   5.940   0.047  15.609 -1.3598  0.7081  0.9387
 7023TIP3    H242561   5.937   0.112  15.472  1.9818  0.0538  0.4736
 7024TIP3   OH242562   6.682   6.724  13.663  0.0513 -0.3223 -0.3017
 7024TIP3    H142563   6.699   6.761  13.577 -1.4046 -2.8344 -1.8005
 7024TIP3    H242564   6.696   6.630  13.652  2.1334 -0.5591  2.8688
 7025TIP3   OH242565   0.841   0.162   2.558 -0.8989 -0.6043 -0.2214
 7025TIP3    H142566   0.903   0.109   2.507 -0.6765 -1.0564  0.4944
 7025TIP3    H242567   0.761   0.164   2.505 -0.8479 -1.5096 -0.3470
 7026TIP3   OH242568   1.155   1.311   3.710 -0.2748 -0.3840  0.5392
 7026TIP3    H142569   1.137   1.329   3.802 -0.1344 -1.6807  0.8334
 7026TIP3    H242570   1.131   1.219   3.698  1.0525 -0.6289 -0.3708
 7027TIP3   OH242571   3.731   1.455   5.735 -0.5240  0.6326 -0.3284
 7027TIP3    H142572   3.754   1.364   5.751 -0.7636  0.8845  1.7379
 7027TIP3    H242573   3.708   1.490   5.822 -3.0485  1.9406 -1.4131
 7028TIP3   OH242574   6.692   5.896   2.294  0.0639 -0.2741  0.4218
 7028TIP3    H142575   6.665   5.854   2.212 -0.4264  1.1673 -0.1887
 7028TIP3    H242576   6.612   5.935   2.329  0.7423  1.3736  0.2115
 7029TIP3   OH242577   0.924   2.022   4.776 -0.5189  0.5310 -0.5748
 7029TIP3    H142578   0.834   1.990   4.784 -0.3950  0.5975  2.7416
 7029TIP3    H242579   0.916   2.107   4.734 -1.8747  0.0722 -1.2864
 7030TIP3   OH242580   4.755   1.973   4.810 -0.2923  0.4483  0.8901
 7030TIP3    H142581   4.806   1.966   4.729  4.1333 -0.9307  3.3981
 7030TIP3    H242582   4.709   1.889   4.816 -1.5128  0.9674 -0.5767
 7031TIP3   OH242583   2.525   1.194  14.542 -0.3372 -1.0600  0.8522
 7031TIP3    H142584   2.565   1.174  14.627  1.6433 -0.9567 -0.0145
 7031TIP3    H242585   2.582   1.259  14.503 -1.9203 -0.1690 -0.0700
 7032TIP3   OH242586   4.238   3.447   4.496  0.5557  0.4387 -0.0726
 7032TIP3    H142587   4.329   3.463   4.470  0.6048  2.0351  0.9430
 7032TIP3    H242588   4.226   3.500   4.575 -1.2472  0.1987 -0.1429
 7033TIP3   OH242589   3.270   0.580  15.854  0.0689 -0.0279 -0.4220
 7033TIP3    H142590   3.286   0.510  15.917  0.0249 -0.4578 -0.8874
 7033TIP3    H242591   3.296   0.543  15.770 -0.4714  0.3254 -0.7471
 7034TIP3   OH242592   1.745   6.715  13.117 -0.9667 -0.0367 -0.1685
 7034TIP3    H142593   1.794   6.754  13.044 -1.4868  1.8178  0.4223
 7034TIP3    H242594   1.783   6.627  13.127  1.6804  0.9903 -0.2735
 7035TIP3   OH242595   0.503   1.301  14.318 -0.0073  0.0610 -0.3073
 7035TIP3    H142596   0.438   1.231  14.311 -0.0089  0.0389 -0.0832
 7035TIP3    H242597   0.452   1.382  14.318 -0.0411  0.0393 -0.0320
 7036TIP3   OH242598   3.918   2.821   4.528  0.3126  0.0414  0.1026
 7036TIP3    H142599   3.833   2.836   4.568  0.2066  0.4726 -0.2766
 7036TIP3    H242600   3.980   2.869   4.583  0.2431  0.1511  0.0852
 7037TIP3   OH242601   5.896   1.550   1.912 -0.2179  0.0477 -0.2016
 7037TIP3    H142602   5.878   1.632   1.864  0.4144  0.7415  0.7238
 7037TIP3    H242603   5.905   1.484   1.843  2.7000  1.3902 -1.2577
 7038TIP3   OH242604   1.102   2.611  14.002  0.1351  0.1869 -0.4390
 7038TIP3    H142605   1.086   2.695  14.044 -1.7812  0.1495 -0.9664
 7038TIP3    H242606   1.055   2.548  14.057  0.7654 -0.4071 -0.5723
 7039TIP3   OH242607   6.696   0.737   2.179 -0.1023 -0.0002  0.0538
 7039TIP3    H142608   6.708   0.800   2.108  0.7738 -1.4015 -1.1170
 7039TIP3    H242609   6.780   0.737   2.226 -0.0152 -0.4315 -0.0936
 7040TIP3   OH242610   0.566   1.340  12.489 -0.6508 -0.0043 -0.2162
 7040TIP3    H142611   0.612   1.288  12.423 -1.3140 -0.4781 -0.3165
 7040TIP3    H242612   0.537   1.418  12.442 -2.4916 -1.0393 -0.9516
 7041TIP3   OH242613   6.132   3.238  16.491  0.1687 -0.7613 -0.7738
 7041TIP3    H142614   6.057   3.191  16.527 -1.2119  1.2653 -0.8194
 7041TIP3    H242615   6.117   3.239  16.397 -0.3182  0.4587 -0.7133
 7042TIP3   OH242616   2.352   1.903  14.880  0.2550  0.7778  0.3114
 7042TIP3    H142617   2.370   1.944  14.964  0.8613 -0.9026  1.0612
 7042TIP3    H242618   2.428   1.847  14.864 -0.0568  0.7255 -1.1413
 7043TIP3   OH242619   6.315   6.007  12.197  0.0168  0.5880 -0.3920
 7043TIP3    H142620   6.396   5.988  12.244  0.2277 -0.4362 -1.1255
 7043TIP3    H242621   6.327   6.095  12.162  0.3739  0.8583  0.3740
 7044TIP3   OH242622   1.580   1.091  14.778  0.3537 -0.2237 -0.9176
 7044TIP3    H142623   1.496   1.054  14.750 -0.6296  0.2825  1.1840
 7044TIP3    H242624   1.579   1.084  14.873  1.2729  2.7251 -0.5781
 7045TIP3   OH242625   5.560   5.074   3.457  0.1116  0.0718 -0.2733
 7045TIP3    H142626   5.648   5.039   3.470  0.0014  0.4182  1.8160
 7045TIP3    H242627   5.554   5.147   3.519 -1.6698  0.0005 -0.3123
 7046TIP3   OH242628   2.805   5.476   4.976 -0.6798 -0.1782 -0.1078
 7046TIP3    H142629   2.760   5.496   4.893 -0.1044 -0.5380 -0.5185
 7046TIP3    H242630   2.764   5.395   5.007  0.7324 -1.4272 -1.3168
 7047TIP3   OH242631   5.911   0.055  13.179 -0.0613  0.4295  0.7865
 7047TIP3    H142632   5.881   0.013  13.260 -0.0722  1.2435  1.2135
 7047TIP3    H242633   5.838   0.043  13.118  0.3514 -1.0861  0.5540
 7048TIP3   OH242634   6.836   3.189   1.402 -0.2334 -0.7743  0.2355
 7048TIP3    H142635   6.895   3.217   1.332 -1.4943 -2.3909 -1.5957
 7048TIP3    H242636   6.881   3.115   1.443  0.2301 -0.2260  0.7233
 7049TIP3   OH242637   1.005   3.522   5.447 -0.6252  0.2680 -0.7016
 7049TIP3    H142638   1.000   3.588   5.377 -4.3340  0.1812 -0.7033
 7049TIP3    H242639   0.936   3.459   5.425  0.1103 -1.4127  1.4788
 7050TIP3   OH242640   1.199   3.813  10.692 -0.5471  0.3851  0.1540
 7050TIP3    H142641   1.140   3.885  10.715 -0.2684  0.3679  0.9261
 7050TIP3    H242642   1.145   3.753  10.640 -1.6153 -0.3227  2.0005
 7051TIP3   OH242643   4.022   0.291  14.513  0.2031  0.3789  0.5446
 7051TIP3    H142644   3.935   0.277  14.552 -0.0192 -0.7228 -0.2886
 7051TIP3    H242645   4.079   0.229  14.559 -0.1049 -1.0926 -0.9476
 7052TIP3   OH242646   1.980   2.857  14.373 -0.5350  0.1261  0.6897
 7052TIP3    H142647   1.954   2.895  14.290  1.1374  0.1593  0.1500
 7052TIP3    H242648   2.001   2.932  14.428 -2.8517  0.1771  1.6400
 7053TIP3   OH242649   2.570   3.895   6.056 -0.0189  0.2303 -0.3199
 7053TIP3    H142650   2.517   3.883   6.134 -1.7577  0.6984 -1.3882
 7053TIP3    H242651   2.528   3.841   5.989  2.9220 -2.2888 -0.3784
 7054TIP3   OH242652   4.328   3.669   3.754 -0.0836 -1.2419 -0.1834
 7054TIP3    H142653   4.393   3.648   3.821 -0.7852 -1.2797  0.5045
 7054TIP3    H242654   4.345   3.761   3.733 -0.1872 -1.0746  0.4328
 7055TIP3   OH242655   1.219   6.281   2.438  0.1630  0.8233  0.3223
 7055TIP3    H142656   1.292   6.219   2.441  0.0044  0.6426  0.5491
 7055TIP3    H242657   1.146   6.233   2.479  0.0512  1.1755  0.5407
 7056TIP3   OH242658   1.157   1.048  16.416 -0.2619  0.8121 -0.0488
 7056TIP3    H142659   1.237   1.095  16.440 -0.2000  0.2225  0.9903
 7056TIP3    H242660   1.176   1.009  16.331 -0.9126  3.9828 -1.7964
 7057TIP3   OH242661   2.930   5.378  14.131  0.0712  0.1854  0.0213
 7057TIP3    H142662   2.843   5.385  14.172  0.2356  1.7814  0.1557
 7057TIP3    H242663   2.913   5.337  14.047 -0.7430 -0.0372  0.2826
 7058TIP3   OH242664   2.329   2.845  12.513  0.3456  0.4161 -0.3102
 7058TIP3    H142665   2.287   2.801  12.587  1.5867  2.4273  1.7213
 7058TIP3    H242666   2.416   2.868  12.546  0.5964  2.2105 -2.0658
 7059TIP3   OH242667   3.863   0.509  11.398  0.0511 -0.7448 -0.0636
 7059TIP3    H142668   3.859   0.537  11.490  1.6222  0.1824 -0.2344
 7059TIP3    H242669   3.854   0.590  11.348 -0.2746 -1.1800 -0.7142
 7060TIP3   OH242670   3.120   1.606  12.234  0.2837 -0.1715  0.1733
 7060TIP3    H142671   3.101   1.537  12.297 -1.2697  0.4251  0.4128
 7060TIP3    H242672   3.147   1.681  12.287  1.0520 -0.3027 -0.0226
 7061TIP3   OH242673   6.117   3.390  17.010  0.2164  0.1768  0.3680
 7061TIP3    H142674   6.100   3.302  16.979  0.4434  0.2023  0.1754
 7061TIP3    H242675   6.194   3.382  17.066  0.9759  0.4440 -0.6031
 7062TIP3   OH242676   4.195   1.337  12.126 -0.4932 -0.0348  0.4522
 7062TIP3    H142677   4.177   1.349  12.220 -1.0561  2.0571  0.1380
 7062TIP3    H242678   4.108   1.340  12.085 -0.2359 -0.7443 -0.1556
 7063TIP3   OH242679   1.266   5.588  13.411  0.2881  0.8024  0.0046
 7063TIP3    H142680   1.214   5.519  13.452  0.6713  0.6166  0.1810
 7063TIP3    H242681   1.225   5.670  13.441  0.6674  0.6714  0.8939
 7064TIP3   OH242682   6.360   5.577   1.115 -0.1882 -0.9186 -0.2516
 7064TIP3    H142683   6.324   5.604   1.199  0.2914  2.0067 -0.8621
 7064TIP3    H242684   6.455   5.583   1.127 -0.1177 -0.4301 -0.9753
 7065TIP3   OH242685   4.389   6.347  13.692 -0.5624  0.6585 -0.3574
 7065TIP3    H142686   4.373   6.256  13.718  2.4574  0.2182  0.4330
 7065TIP3    H242687   4.311   6.394  13.719 -1.0625 -1.2571  1.9024
 7066TIP3   OH242688   3.418   5.972  14.806 -0.3163  0.0783 -0.2240
 7066TIP3    H142689   3.365   5.904  14.845 -1.0704  0.3153 -0.8127
 7066TIP3    H242690   3.391   5.975  14.714 -0.2907  1.1546 -0.2134
 7067TIP3   OH242691   3.235   4.212   0.466 -0.3607 -0.5612  0.1853
 7067TIP3    H142692   3.297   4.165   0.410 -1.0162 -2.6253  1.0965
 7067TIP3    H242693   3.155   4.216   0.415  0.1872  1.2091 -0.5921
 7068TIP3   OH242694   2.928   2.592   5.424 -0.1347  0.1681  0.4004
 7068TIP3    H142695   2.945   2.555   5.511  0.1561 -1.0401 -0.1496
 7068TIP3    H242696   3.011   2.630   5.397  0.2431 -0.9048 -0.0108
 7069TIP3   OH242697   4.994   6.765  12.453  0.4564  0.1170 -0.1562
 7069TIP3    H142698   5.034   6.753  12.367 -1.7603 -3.5086 -0.8989
 7069TIP3    H242699   4.917   6.820  12.437  1.2068  1.2387 -0.0224
 7070TIP3   OH242700   6.075   3.755   3.439  0.2535  0.0587 -0.9893
 7070TIP3    H142701   6.052   3.678   3.387 -0.6805 -0.8561  0.6915
 7070TIP3    H242702   6.008   3.759   3.507  2.5603 -0.1245  1.4694
 7071TIP3   OH242703   2.238   1.636   6.545  0.3832 -0.1981  0.1190
 7071TIP3    H142704   2.326   1.656   6.576  0.2404  1.4213 -0.4138
 7071TIP3    H242705   2.180   1.690   6.599 -0.0793  0.5621 -1.0895
 7072TIP3   OH242706   5.905   6.115   2.383 -0.2729  0.3832  0.8310
 7072TIP3    H142707   5.810   6.104   2.383 -0.0314 -3.5589 -1.5301
 7072TIP3    H242708   5.931   6.102   2.474 -1.8492 -0.2564  1.2177
 7073TIP3   OH242709   6.108   3.716   4.941  0.5156  0.8032  0.4322
 7073TIP3    H142710   6.119   3.624   4.963  1.4781  0.2570 -1.9612
 7073TIP3    H242711   6.038   3.747   4.998 -1.2809 -1.9739 -0.0856
 7074TIP3   OH242712   3.894   5.158   0.308 -0.1011 -0.0539 -0.2821
 7074TIP3    H142713   3.898   5.247   0.344  0.3714 -0.0610 -0.3097
 7074TIP3    H242714   3.962   5.157   0.241  0.0754 -0.5171 -0.0992
 7075TIP3   OH242715   6.083   2.540  12.252 -0.1648 -0.2417  0.1637
 7075TIP3    H142716   6.069   2.492  12.334  0.8895 -2.7262 -1.0291
 7075TIP3    H242717   6.157   2.495  12.210 -0.9870  0.6391 -2.3865
 7076TIP3   OH242718   3.210   1.563  14.294  0.0582 -0.1135  0.2868
 7076TIP3    H142719   3.182   1.598  14.379  2.1812 -0.8976  1.3743
 7076TIP3    H242720   3.214   1.469  14.306  3.1554 -0.0797  0.3055
 7077TIP3   OH242721   5.155   3.120   4.048 -0.0211  0.0443  0.3588
 7077TIP3    H142722   5.243   3.107   4.084  0.4415 -0.1418 -0.7710
 7077TIP3    H242723   5.141   3.214   4.051  0.8857  0.2473 -0.8768
 7078TIP3   OH242724   5.765   2.592  10.490 -0.2121  0.4175  0.0470
 7078TIP3    H142725   5.757   2.621  10.399 -0.0998 -0.1133 -0.1369
 7078TIP3    H242726   5.809   2.507  10.484 -0.9535 -0.0102  0.5403
 7079TIP3   OH242727   0.202   3.535  11.671 -0.1464 -0.2361 -0.4937
 7079TIP3    H142728   0.250   3.551  11.589 -1.2323  0.5790 -0.9980
 7079TIP3    H242729   0.142   3.464  11.650 -1.0530  0.5728 -0.6845
 7080TIP3   OH242730   1.201   6.660   0.593  0.0088 -0.6366  0.6124
 7080TIP3    H142731   1.259   6.647   0.668  0.2470 -1.1956  0.3362
 7080TIP3    H242732   1.133   6.593   0.604 -0.3937 -0.2229  0.7361
 7081TIP3   OH242733   2.278   2.786  15.526  0.6393  0.2394  0.1076
 7081TIP3    H142734   2.187   2.762  15.548  0.4908 -0.5560 -1.2617
 7081TIP3    H242735   2.324   2.781  15.609 -0.8258  2.0027  1.1061
 7082TIP3   OH242736   0.707   3.515   2.523 -0.0653 -0.0527 -0.4432
 7082TIP3    H142737   0.677   3.591   2.473 -0.3544  0.8241  1.0081
 7082TIP3    H242738   0.799   3.532   2.540 -0.1987  0.1273  0.1281
 7083TIP3   OH242739   4.813   1.141  16.832 -0.3697 -0.0854 -0.4350
 7083TIP3    H142740   4.907   1.127  16.823  0.0049  1.3177  0.8366
 7083TIP3    H242741   4.796   1.132  16.925 -1.7788 -1.6750 -0.7920
 7084TIP3   OH242742   6.559   2.392   1.211  0.4401  0.1522  0.4668
 7084TIP3    H142743   6.482   2.384   1.154  0.3334 -0.0673  0.6406
 7084TIP3    H242744   6.592   2.303   1.218  0.9528  0.3057  0.0638
 7085TIP3   OH242745   1.182   5.954  14.988 -0.4572  0.1893  0.0601
 7085TIP3    H142746   1.180   5.919  15.078 -1.0409  0.1041  0.0188
 7085TIP3    H242747   1.178   5.877  14.932 -1.2654  0.2834 -0.0325
 7086TIP3   OH242748   3.514   5.852  12.418 -0.5825 -0.3107 -0.6157
 7086TIP3    H142749   3.530   5.914  12.346  0.4126 -1.9062 -1.8690
 7086TIP3    H242750   3.552   5.895  12.495 -1.5051  1.3725 -1.0388
 7087TIP3   OH242751   5.396   1.647  16.326 -0.0263  0.6225 -0.3338
 7087TIP3    H142752   5.462   1.618  16.263  0.7509 -1.4427  1.2897
 7087TIP3    H242753   5.315   1.603  16.299  0.0802  0.4802 -0.4200
 7088TIP3   OH242754   5.661   5.509   3.108  0.0171  0.3967 -0.5953
 7088TIP3    H142755   5.744   5.482   3.068 -1.0096 -2.0072 -1.2972
 7088TIP3    H242756   5.618   5.561   3.039  0.8059  1.4864 -0.2994
 7089TIP3   OH242757   5.394   4.413   1.820 -0.2243 -0.4370  0.2182
 7089TIP3    H142758   5.411   4.338   1.763 -1.3037  0.6942 -1.7091
 7089TIP3    H242759   5.325   4.384   1.879  0.5799 -1.4857  0.6687
 7090TIP3   OH242760   6.339   2.456  11.501  0.2030  0.2484 -0.1104
 7090TIP3    H142761   6.420   2.407  11.514  0.8498  1.2094 -0.4130
 7090TIP3    H242762   6.292   2.448  11.584  0.8987  0.1963  0.2848
 7091TIP3   OH242763   5.637   2.820  10.388  0.2895 -0.1846  0.6663
 7091TIP3    H142764   5.653   2.913  10.400  1.3934 -0.3944  0.9319
 7091TIP3    H242765   5.575   2.797  10.458 -0.0767  0.3665  0.5248
 7092TIP3   OH242766   2.840   2.338   0.985  0.3944  0.0587  0.0330
 7092TIP3    H142767   2.798   2.291   0.914  0.0337  0.6967 -0.1800
 7092TIP3    H242768   2.922   2.370   0.948 -0.4894  1.6990 -0.5706
 7093TIP3   OH242769   3.630   6.282  13.174 -0.3881 -0.0286 -0.2641
 7093TIP3    H142770   3.549   6.243  13.139  0.4358 -1.3971 -0.7167
 7093TIP3    H242771   3.654   6.226  13.247 -0.0043  0.5677  0.0742
 7094TIP3   OH242772   2.530   6.466   3.390  0.4495  0.1714 -0.2947
 7094TIP3    H142773   2.486   6.404   3.331  2.2452 -0.7374 -0.7333
 7094TIP3    H242774   2.592   6.512   3.335 -1.0829  2.7312 -0.0604
 7095TIP3   OH242775   4.884   2.439  14.310  0.0614 -0.2282  0.1856
 7095TIP3    H142776   4.831   2.516  14.333  0.7944  0.3417 -0.0090
 7095TIP3    H242777   4.948   2.471  14.247 -0.6461 -1.3486 -1.1628
 7096TIP3   OH242778   3.062   2.459  13.069 -0.2400  0.2691  0.4023
 7096TIP3    H142779   3.021   2.530  13.119  0.2154  0.5921  0.3272
 7096TIP3    H242780   3.021   2.463  12.983 -0.2329  0.4290  0.4063
 7097TIP3   OH242781   2.820   4.600  14.202  0.3327  0.3834  0.5723
 7097TIP3    H142782   2.748   4.541  14.225  0.6935 -0.2330  0.1582
 7097TIP3    H242783   2.800   4.682  14.247 -0.0880 -0.1134  1.3054
 7098TIP3   OH242784   2.708   3.473   4.974  0.4598  0.2685 -0.0952
 7098TIP3    H142785   2.719   3.535   5.046  1.6030  0.6258 -0.5538
 7098TIP3    H242786   2.735   3.521   4.896  1.4809 -0.8204 -0.4493
 7099TIP3   OH242787   4.199   1.834   2.826 -0.3719 -0.5825  0.2366
 7099TIP3    H142788   4.106   1.832   2.848 -1.0155  0.3227 -2.0645
 7099TIP3    H242789   4.225   1.742   2.821 -1.4335 -0.8737 -0.1151
 7100TIP3   OH242790   5.514   5.097  12.442  0.1611 -0.0426 -0.2591
 7100TIP3    H142791   5.468   5.018  12.472 -0.7219  1.3205  2.2607
 7100TIP3    H242792   5.448   5.145  12.391  0.7090 -0.8953 -1.8231
 7101TIP3   OH242793   5.755   6.576  11.947 -0.3657  0.0684  0.1807
 7101TIP3    H142794   5.696   6.544  12.016  1.2441  0.7640  1.9699
 7101TIP3    H242795   5.812   6.501  11.929 -0.8596 -0.1509 -0.5230
 7102TIP3   OH242796   4.140   1.303  16.510 -0.6450  0.2904 -0.1644
 7102TIP3    H142797   4.169   1.377  16.457  2.6597 -1.8813 -1.7756
 7102TIP3    H242798   4.172   1.323  16.599  0.9960  0.5113 -0.7639
 7103TIP3   OH242799   5.157   5.009   5.153 -0.2780  0.2876  0.9849
 7103TIP3    H142800   5.064   5.021   5.135  0.4033  2.6409 -1.7166
 7103TIP3    H242801   5.186   4.942   5.092  0.2714  1.5546 -0.1950
 7104TIP3   OH242802   2.456   1.651  12.361  0.3225 -0.9389  0.0245
 7104TIP3    H142803   2.406   1.675  12.439  0.1102 -2.2010  0.2930
 7104TIP3    H242804   2.391   1.619  12.299  0.0820  2.4868 -1.7838
 7105TIP3   OH242805   6.355   0.093  15.445 -0.1548 -0.9737  0.1317
 7105TIP3    H142806   6.295   0.025  15.414 -0.2626 -1.0804  0.5695
 7105TIP3    H242807   6.320   0.174  15.407 -0.2099 -1.1176 -0.1299
 7106TIP3   OH242808   3.339   1.159  16.988 -0.6696 -0.2418 -0.1373
 7106TIP3    H142809   3.384   1.093  16.934  1.3641  2.3759 -1.8935
 7106TIP3    H242810   3.291   1.213  16.925 -2.6602 -0.2138  1.3030
 7107TIP3   OH242811   6.388   3.743   0.391  0.0470 -0.9960 -0.4646
 7107TIP3    H142812   6.399   3.773   0.301 -1.0966 -3.6918 -1.6099
 7107TIP3    H242813   6.394   3.823   0.444 -0.1482  0.8028 -2.9815
 7108TIP3   OH242814   5.810   1.551   1.333 -0.3717  0.5558  0.0195
 7108TIP3    H142815   5.848   1.635   1.358  1.5457 -0.1493 -0.3863
 7108TIP3    H242816   5.786   1.510   1.416  1.8305  0.1025  0.4751
 7109TIP3   OH242817   5.648   3.330   5.392  0.2922  0.4088 -0.2062
 7109TIP3    H142818   5.562   3.342   5.432 -0.0349 -2.3404  0.1016
 7109TIP3    H242819   5.636   3.258   5.330  2.3991 -0.2455  0.0522
 7110TIP3   OH242820   1.394   5.362   5.837  0.1086 -0.7463  0.0207
 7110TIP3    H142821   1.355   5.325   5.758 -3.4158  0.6349  0.9097
 7110TIP3    H242822   1.362   5.304   5.907  0.2317  0.0558  0.7469
 7111TIP3   OH242823   5.171   5.731   3.433 -0.5602 -0.1189 -0.0340
 7111TIP3    H142824   5.204   5.641   3.435  0.9930  0.4060 -0.6695
 7111TIP3    H242825   5.107   5.731   3.362  0.3961 -0.4186 -0.9100
 7112TIP3   OH242826   6.371   4.201  10.841 -0.2572  0.2261 -0.3986
 7112TIP3    H142827   6.417   4.118  10.836  0.0353  0.4272 -1.1881
 7112TIP3    H242828   6.419   4.252  10.906 -0.0836  0.0001 -0.3510
 7113TIP3   OH242829   3.403   4.736   0.637 -0.3856 -0.0735 -0.7898
 7113TIP3    H142830   3.313   4.718   0.665 -0.1947 -1.2607 -0.8638
 7113TIP3    H242831   3.394   4.781   0.553 -0.9228  0.7116 -0.3117
 7114TIP3   OH242832   1.598   3.924   1.075 -0.3894 -0.1188 -0.3150
 7114TIP3    H142833   1.522   3.927   1.017 -0.3157 -0.3560 -0.4247
 7114TIP3    H242834   1.665   3.877   1.025  0.4761  1.7102 -0.9736
 7115TIP3   OH242835   3.564   1.803  11.197 -0.2639  0.3807  0.1814
 7115TIP3    H142836   3.650   1.786  11.158 -0.6773 -0.2994 -0.4574
 7115TIP3    H242837   3.571   1.891  11.234  0.2385  0.9438 -1.1957
 7116TIP3   OH242838   4.279   2.587   1.591  0.4967 -0.5329  0.4823
 7116TIP3    H142839   4.329   2.542   1.523 -3.3702  1.1071 -4.0239
 7116TIP3    H242840   4.216   2.521   1.621 -0.9264 -0.0768 -1.3070
 7117TIP3   OH242841   2.636   0.923   2.749  0.4581  0.2574  0.0979
 7117TIP3    H142842   2.647   0.848   2.808  1.7241 -0.7865 -1.3846
 7117TIP3    H242843   2.658   0.999   2.802  0.5730 -0.5567  1.2436
 7118TIP3   OH242844   0.154   4.061  12.067 -0.0312 -0.1324  0.5748
 7118TIP3    H142845   0.082   3.999  12.058 -0.5152  0.1389  2.2665
 7118TIP3    H242846   0.112   4.146  12.079  0.6176  0.3747 -0.5848
 7119TIP3   OH242847   0.610   3.435  12.845 -0.0888  0.4021 -0.0218
 7119TIP3    H142848   0.620   3.465  12.755 -1.6414  2.4794  0.4082
 7119TIP3    H242849   0.568   3.350  12.837  2.8790 -1.0802 -1.2690
 7120TIP3   OH242850   4.780   2.183  14.228  0.8454  0.1416 -0.3308
 7120TIP3    H142851   4.826   2.104  14.257  0.0173 -0.0904  0.3805
 7120TIP3    H242852   4.826   2.255  14.272  2.6000  0.2604 -2.1742
 7121TIP3   OH242853   1.451   2.433  12.844 -0.3144 -0.0783  0.3701
 7121TIP3    H142854   1.395   2.372  12.796 -0.5102 -0.2259  0.7804
 7121TIP3    H242855   1.432   2.519  12.806  0.8177 -0.4072 -1.0123
 7122TIP3   OH242856   3.515   6.037  12.207  0.0549  0.0543 -0.5590
 7122TIP3    H142857   3.590   6.036  12.148  0.3775 -0.5343 -0.1370
 7122TIP3    H242858   3.458   5.967  12.176 -0.0019  0.0532 -0.4534
 7123TIP3   OH242859   1.782   5.292  13.801  0.8578 -0.0893  0.3332
 7123TIP3    H142860   1.720   5.349  13.755  0.7754  0.1234  0.7055
 7123TIP3    H242861   1.868   5.323  13.773  0.7983 -0.8614 -0.7615
 7124TIP3   OH242862   0.397   3.022  14.565  0.4970 -0.3033 -0.0453
 7124TIP3    H142863   0.380   3.014  14.471 -0.3714 -0.3080  0.1042
 7124TIP3    H242864   0.349   2.949  14.604  0.2635  0.1130  0.4583
 7125TIP3   OH242865   1.021   3.223   2.431  0.4913 -0.6356 -0.5962
 7125TIP3    H142866   0.944   3.219   2.373 -0.2460 -0.3570  0.3410
 7125TIP3    H242867   0.988   3.195   2.516  0.9857  1.2358  0.2543
 7126TIP3   OH242868   3.306   4.347   0.775  0.2514 -0.6265 -0.0323
 7126TIP3    H142869   3.329   4.254   0.782  0.2333 -0.6346 -0.0731
 7126TIP3    H242870   3.370   4.383   0.714  1.8952 -0.0519  1.9021
 7127TIP3   OH242871   6.258   2.050  13.779  0.2533  0.0446 -0.1348
 7127TIP3    H142872   6.280   2.049  13.873 -1.9109 -0.0637  0.4284
 7127TIP3    H242873   6.292   1.967  13.746  1.4476  0.2857  0.4290
 7128TIP3   OH242874   0.801   3.468   1.100  0.3471 -0.7725 -0.5804
 7128TIP3    H142875   0.839   3.471   1.188  0.4384  0.2982 -0.6373
 7128TIP3    H242876   0.723   3.415   1.109 -2.2984  2.9778  1.2580
 7129TIP3   OH242877   3.490   6.758  10.845  0.2947 -0.0115  0.3610
 7129TIP3    H142878   3.522   6.672  10.817 -1.6843 -1.5803  2.5365
 7129TIP3    H242879   3.555   6.789  10.907  0.2259 -0.7323  0.8051
 7130TIP3   OH242880   6.135   3.759   2.687 -0.2604  0.0540  0.0289
 7130TIP3    H142881   6.179   3.700   2.625 -0.4721 -0.5549  0.4548
 7130TIP3    H242882   6.167   3.732   2.773  0.5866  1.3763  0.1423
 7131TIP3   OH242883   0.704   0.955   4.264 -0.7123  0.4943 -0.2908
 7131TIP3    H142884   0.702   1.046   4.232 -2.8752  0.7930  0.5046
 7131TIP3    H242885   0.691   0.963   4.359  1.9518 -0.5546  0.2476
 7132TIP3   OH242886   4.563   4.529  12.054  0.2219  0.2678  0.3072
 7132TIP3    H142887   4.623   4.574  12.113  1.9417  0.3366 -1.3906
 7132TIP3    H242888   4.592   4.555  11.966 -2.3333  0.3106 -0.6019
 7133TIP3   OH242889   1.359   3.152  10.447 -0.1130  0.1651 -0.0405
 7133TIP3    H142890   1.289   3.152  10.382 -0.4629  2.4903  0.2443
 7133TIP3    H242891   1.319   3.188  10.526  1.2224  0.9624  0.3101
 7134TIP3   OH242892   5.194   3.403   0.134 -0.2821 -0.1456  0.1440
 7134TIP3    H142893   5.099   3.407   0.135 -0.3778 -1.2216 -1.0117
 7134TIP3    H242894   5.214   3.344   0.061  1.3584  2.6383 -1.8559
 7135TIP3   OH242895   0.798   5.991  15.269 -0.1794 -0.8637  0.3322
 7135TIP3    H142896   0.776   6.084  15.263 -0.2199 -0.7808  1.5690
 7135TIP3    H242897   0.729   5.953  15.323 -0.1214 -1.6072 -0.1003
 7136TIP3   OH242898   5.320   4.632   2.937 -1.2033 -0.1931  0.4301
 7136TIP3    H142899   5.346   4.557   2.883 -1.4298  0.5294 -0.7087
 7136TIP3    H242900   5.400   4.656   2.984 -1.2268 -1.3958  1.1413
 7137TIP3   OH242901   0.546   1.852   0.442 -0.2166  0.1554  0.0353
 7137TIP3    H142902   0.470   1.798   0.464 -0.7261  0.8352 -0.0182
 7137TIP3    H242903   0.552   1.914   0.514  0.6655 -0.2707  0.3463
 7138TIP3   OH242904   1.034   1.174  12.034  1.1706  0.2018  0.0519
 7138TIP3    H142905   1.110   1.206  11.986  1.0767  0.8648  0.3178
 7138TIP3    H242906   1.068   1.105  12.091  1.5108  0.2740 -0.0619
 7139TIP3   OH242907   0.064   1.202   2.455 -0.3472  0.2830  0.3604
 7139TIP3    H142908   0.006   1.153   2.397  2.3252 -0.6547 -1.7228
 7139TIP3    H242909   0.063   1.292   2.420  1.6085 -0.3740 -1.6271
 7140TIP3   OH242910   4.994   2.194  16.234  0.1616  0.4698  0.1719
 7140TIP3    H142911   4.934   2.169  16.304 -0.5391  0.0722 -0.5617
 7140TIP3    H242912   4.941   2.191  16.155  1.8597 -3.4080 -1.0859
 7141TIP3   OH242913   4.026   2.527  10.854 -0.1150  0.2357  0.1633
 7141TIP3    H142914   3.955   2.463  10.853 -0.9111  1.0783  0.5393
 7141TIP3    H242915   3.998   2.593  10.917  1.6845 -0.1267  1.4344
 7142TIP3   OH242916   2.700   4.323  13.379  0.0625 -0.3863  0.0794
 7142TIP3    H142917   2.701   4.316  13.284 -1.4808 -0.9829  0.0856
 7142TIP3    H242918   2.787   4.292  13.406  0.6610  0.1499 -1.1275
 7143TIP3   OH242919   5.886   4.966  13.926  0.2785  0.5925  0.0754
 7143TIP3    H142920   5.933   4.884  13.917  0.9822  0.5265  3.1218
 7143TIP3    H242921   5.955   5.030  13.946 -0.5071  1.4013  0.2364
 7144TIP3   OH242922   5.030   6.496   5.155 -0.1065 -0.1414  0.0863
 7144TIP3    H142923   5.108   6.485   5.210  0.3148 -1.4687 -0.7396
 7144TIP3    H242924   5.057   6.555   5.085  0.4291 -1.2946 -0.6898
 7145TIP3   OH242925   0.136   3.327  14.049 -0.1832  0.7151 -0.2358
 7145TIP3    H142926   0.055   3.277  14.039 -0.1970  0.8155 -0.6711
 7145TIP3    H242927   0.190   3.300  13.975  0.4308  0.1963  0.3929
 7146TIP3   OH242928   4.369   2.883  13.897  0.0483 -0.2882  0.0275
 7146TIP3    H142929   4.417   2.807  13.865 -0.0613 -0.1471 -0.4799
 7146TIP3    H242930   4.312   2.908  13.825 -0.4528 -0.1713  0.4615
 7147TIP3   OH242931   3.052   3.548   1.023 -0.5116 -0.0490  0.1861
 7147TIP3    H142932   3.082   3.638   1.037  0.2696 -0.4133  0.9128
 7147TIP3    H242933   2.969   3.543   1.071  0.2143 -0.1541  1.4723
 7148TIP3   OH242934   0.487   2.166  14.749 -0.0409 -0.2268 -0.0206
 7148TIP3    H142935   0.524   2.227  14.812  0.4904 -1.7621  1.2216
 7148TIP3    H242936   0.562   2.134  14.699 -0.3538  0.3466 -0.8857
 7149TIP3   OH242937   3.050   4.192  16.048  0.2142 -0.3191 -0.2578
 7149TIP3    H142938   3.014   4.279  16.063  1.3257 -0.0189  0.8691
 7149TIP3    H242939   2.978   4.132  16.066  0.0729  0.2872  1.3734
 7150TIP3   OH242940   2.437   1.928   4.359 -0.3071  0.0466 -0.0350
 7150TIP3    H142941   2.391   1.862   4.308  1.1889 -1.9317  1.0169
 7150TIP3    H242942   2.395   2.011   4.336 -2.0238 -1.2108 -1.6866
 7151TIP3   OH242943   1.873   4.304  11.655 -0.1977  0.2816 -0.2098
 7151TIP3    H142944   1.873   4.252  11.575 -0.8563 -0.2281  0.1236
 7151TIP3    H242945   1.781   4.311  11.680 -0.0070  0.5361  0.4405
 7152TIP3   OH242946   5.589   2.049  11.510 -0.0199  0.2755  0.7562
 7152TIP3    H142947   5.647   2.067  11.435 -0.6148 -0.6293  0.0570
 7152TIP3    H242948   5.638   2.079  11.586  2.0712 -1.8850  0.3770
 7153TIP3   OH242949   4.751   3.717  11.006  0.3046  0.4614  0.2935
 7153TIP3    H142950   4.834   3.670  11.005 -0.4801 -0.9987  0.9482
 7153TIP3    H242951   4.719   3.713  10.916 -0.8533 -2.3791  0.7368
 7154TIP3   OH242952   3.823   5.600   0.199  0.0654 -0.3666 -0.1273
 7154TIP3    H142953   3.898   5.649   0.232  0.6722 -0.9455 -0.6260
 7154TIP3    H242954   3.843   5.585   0.107 -0.4410 -0.9457 -0.1496
 7155TIP3   OH242955   6.631   4.033   3.176 -0.3795  0.4602 -0.1745
 7155TIP3    H142956   6.679   3.962   3.217  0.1827  0.6955 -0.4230
 7155TIP3    H242957   6.671   4.113   3.209 -0.0936  0.6541 -0.9646
 7156TIP3   OH242958   2.069   0.962   2.626  0.1986  0.5966 -0.0102
 7156TIP3    H142959   2.039   0.959   2.717 -1.2590 -0.0900 -0.4883
 7156TIP3    H242960   1.995   0.998   2.577 -0.3662 -2.1665 -1.3728
 7157TIP3   OH242961   1.173   5.809   4.206  0.9293 -0.1245 -0.1967
 7157TIP3    H142962   1.138   5.865   4.275  0.1966  1.6202 -1.9328
 7157TIP3    H242963   1.209   5.734   4.254 -2.5386 -0.6783  1.8824
 7158TIP3   OH242964   2.555   5.250  11.806  0.1689  0.5059  0.2582
 7158TIP3    H142965   2.643   5.277  11.780  0.0551 -0.0147 -0.7281
 7158TIP3    H242966   2.516   5.216  11.725  0.0716 -1.9597  1.2647
 7159TIP3   OH242967   0.360   4.832   5.492  0.2627 -0.1486  0.0113
 7159TIP3    H142968   0.267   4.813   5.489  0.6654 -3.3640  2.1883
 7159TIP3    H242969   0.367   4.913   5.542 -1.3425 -0.6582  1.1301
 7160TIP3   OH242970   3.586   2.974   0.462 -0.0229  0.5228 -0.3169
 7160TIP3    H142971   3.519   2.979   0.529 -0.5933 -1.7714 -0.6384
 7160TIP3    H242972   3.665   3.009   0.504 -0.7795  0.7940  0.9298
 7161TIP3   OH242973   4.938   6.829  13.786  0.6496 -0.1716  0.5205
 7161TIP3    H142974   4.998   6.890  13.741  1.4622 -0.9647  0.4969
 7161TIP3    H242975   4.875   6.886  13.830  1.6214  0.7161  0.8215
 7162TIP3   OH242976   3.830   3.780   1.025 -0.1783  0.0690 -0.2458
 7162TIP3    H142977   3.805   3.770   1.117 -1.1349  0.3886 -0.4528
 7162TIP3    H242978   3.753   3.820   0.984 -0.6085 -1.9897 -1.6056
 7163TIP3   OH242979   0.799   6.065  11.676  0.0711 -0.0219 -0.2428
 7163TIP3    H142980   0.805   6.067  11.772 -0.2111 -0.1310 -0.2209
 7163TIP3    H242981   0.706   6.080  11.658 -0.0843 -1.1713 -0.4613
 7164TIP3   OH242982   6.493   2.269   3.570 -0.4130 -0.4670 -0.1072
 7164TIP3    H142983   6.557   2.207   3.604  0.6068 -0.6685 -2.2496
 7164TIP3    H242984   6.524   2.291   3.482 -1.1442  2.5031  0.2652
 7165TIP3   OH242985   0.223   2.784   2.494 -0.1512  0.2983 -0.0996
 7165TIP3    H142986   0.183   2.812   2.576 -0.5409  0.5440 -0.3729
 7165TIP3    H242987   0.173   2.828   2.426  0.2402  0.1823 -0.4689
 7166TIP3   OH242988   2.700   6.705   5.853  0.4355  0.2161  0.3932
 7166TIP3    H142989   2.769   6.759   5.814 -0.2992 -0.5483 -2.1431
 7166TIP3    H242990   2.746   6.651   5.917  1.9687  0.6028 -0.3186
 7167TIP3   OH242991   2.805   6.487   0.633  0.3939  0.4752 -0.2304
 7167TIP3    H142992   2.819   6.395   0.654  2.4610  1.1670  1.8024
 7167TIP3    H242993   2.838   6.496   0.544 -1.1869 -0.9774 -1.0331
 7168TIP3   OH242994   3.430   6.649  13.557 -0.2464 -0.1745  0.1639
 7168TIP3    H142995   3.502   6.681  13.501  0.3645 -0.4652  0.7719
 7168TIP3    H242996   3.437   6.702  13.636 -0.6179 -0.3035  0.2806
 7169TIP3   OH242997   3.135   6.568   1.435  0.3252  0.0295  0.1598
 7169TIP3    H142998   3.104   6.497   1.492  0.4939  0.4284  0.7547
 7169TIP3    H242999   3.083   6.644   1.460  0.3341  0.1889 -0.2912
 7170TIP3   OH243000   6.736   5.164   6.134  0.2166  0.1905 -0.1852
 7170TIP3    H143001   6.696   5.245   6.166  0.2325 -0.3158  1.1629
 7170TIP3    H243002   6.683   5.094   6.171 -0.9390 -0.4713 -2.8338
 7171TIP3   OH243003   2.358   5.968   4.062  0.3124 -0.5051  0.4890
 7171TIP3    H143004   2.323   5.925   4.140 -0.6326 -0.5295  0.0635
 7171TIP3    H243005   2.337   5.908   3.990 -1.2599  0.7212 -0.1514
 7172TIP3   OH243006   5.817   3.598  14.480  0.1080 -0.6464 -1.1695
 7172TIP3    H143007   5.910   3.619  14.473  0.2124 -0.3450  0.6143
 7172TIP3    H243008   5.811   3.507  14.451  1.0305 -0.7701 -1.0106
 7173TIP3   OH243009   6.103   5.529   0.862 -0.0663 -0.1534 -0.1804
 7173TIP3    H143010   6.114   5.624   0.863  1.2068 -0.2770 -0.8807
 7173TIP3    H243011   6.185   5.495   0.826 -0.8703 -1.4651 -0.8580
 7174TIP3   OH243012   5.946   3.804  13.720 -0.1532 -0.0922  0.2346
 7174TIP3    H143013   5.965   3.712  13.702  0.1191  0.2162 -1.1457
 7174TIP3    H243014   5.963   3.849  13.638  0.5800  1.3412  1.1166
 7175TIP3   OH243015   3.276   2.289  12.117  0.3145 -0.5167 -0.2135
 7175TIP3    H143016   3.324   2.371  12.131 -1.1334  0.3645 -0.2019
 7175TIP3    H243017   3.344   2.222  12.109  1.5081  0.4730  1.0932
 7176TIP3   OH243018   6.241   1.186  17.130  0.7646  0.2820  0.2587
 7176TIP3    H143019   6.237   1.177  17.226 -1.7867 -2.8566  0.0043
 7176TIP3    H243020   6.171   1.247  17.109  0.2642 -0.2706  0.3059
 7177TIP3   OH243021   1.955   5.634   0.193  0.0629 -0.2130  0.0494
 7177TIP3    H143022   2.012   5.600   0.125 -1.1045 -0.4709 -0.8262
 7177TIP3    H243023   2.015   5.671   0.258  1.1963  0.3176 -1.2487
 7178TIP3   OH243024   1.642   5.956   2.429 -0.1412 -0.2260 -0.2308
 7178TIP3    H143025   1.686   6.019   2.486 -2.3298  0.6947  0.5748
 7178TIP3    H243026   1.698   5.950   2.352  1.3804  0.8150  0.7355
 7179TIP3   OH243027   3.521   5.179   3.521 -0.2104 -0.3040 -0.2946
 7179TIP3    H143028   3.538   5.136   3.605 -1.3107  1.5756  0.9680
 7179TIP3    H243029   3.580   5.136   3.460  0.1990 -2.1570  1.2964
 7180TIP3   OH243030   5.705   3.039   5.056 -0.1143  0.2906 -0.3301
 7180TIP3    H143031   5.727   3.114   5.111 -0.5929  0.5354 -0.4632
 7180TIP3    H243032   5.765   2.969   5.084 -1.8688 -0.3468  2.1423
 7181TIP3   OH243033   4.356   2.959   4.629  0.4248  0.0158 -0.0775
 7181TIP3    H143034   4.350   3.012   4.708  1.0273  0.9470 -0.6402
 7181TIP3    H243035   4.449   2.952   4.611  0.4613 -2.3623  0.6918
 7182TIP3   OH243036   3.467   2.457  15.700  0.1160 -0.4253 -0.2104
 7182TIP3    H143037   3.474   2.441  15.606  0.5506  2.4148 -0.7336
 7182TIP3    H243038   3.532   2.525  15.718 -0.4760 -0.3649  2.0165
 7183TIP3   OH243039   4.917   0.559   1.350  0.6288  0.3364 -0.1997
 7183TIP3    H143040   4.946   0.641   1.389  2.0636  0.9054 -2.2987
 7183TIP3    H243041   4.998   0.517   1.319  0.2239 -2.8657  2.4470
 7184TIP3   OH243042   1.429   1.171   4.912 -0.2204  0.3265  0.1031
 7184TIP3    H143043   1.381   1.143   4.834 -0.0110 -1.0119  0.4249
 7184TIP3    H243044   1.493   1.234   4.880  0.9243 -1.3612 -1.1077
 7185TIP3   OH243045   4.437   3.411   3.897  0.4813 -0.1281  0.1680
 7185TIP3    H143046   4.344   3.421   3.917  0.0754  1.5663 -2.1049
 7185TIP3    H243047   4.440   3.339   3.834  0.7091 -0.1299  0.1812
 7186TIP3   OH243048   6.147   5.538   0.472 -0.1108 -0.0111  0.0584
 7186TIP3    H143049   6.150   5.628   0.503 -0.1877  0.3073 -0.8407
 7186TIP3    H243050   6.239   5.511   0.467 -0.1320 -0.8853  2.8155
 7187TIP3   OH243051   3.289   3.395   0.428 -0.4824 -0.2702  0.5994
 7187TIP3    H143052   3.372   3.422   0.467 -1.4666  1.9814  1.3250
 7187TIP3    H243053   3.243   3.348   0.497 -1.3740  1.9361  1.6114
 7188TIP3   OH243054   1.435   1.255  17.102 -0.2564  0.1775  0.1082
 7188TIP3    H143055   1.350   1.213  17.111 -0.1623  0.1413  0.8483
 7188TIP3    H243056   1.440   1.317  17.175  0.9823 -0.9245  1.0161
 7189TIP3   OH243057   5.289   4.197  11.160 -0.2037  0.2833 -0.1582
 7189TIP3    H143058   5.202   4.236  11.171 -0.4458 -0.1077 -0.6422
 7189TIP3    H243059   5.296   4.134  11.231 -0.1549  0.5875  0.1124
 7190TIP3   OH243060   3.606   2.067  14.738  0.1292 -0.0353  0.2481
 7190TIP3    H143061   3.689   2.100  14.704  0.4014  0.3580  1.2575
 7190TIP3    H243062   3.591   1.985  14.691  2.0049 -1.0583  1.3374
 7191TIP3   OH243063   1.579   6.200  12.516 -0.3002  0.1355  0.1493
 7191TIP3    H143064   1.669   6.170  12.519  0.2452  1.4323 -1.7109
 7191TIP3    H243065   1.527   6.120  12.511  0.9690 -0.6219 -2.4881
 7192TIP3   OH243066   6.551   3.466   1.705  0.0708  0.3021 -0.6359
 7192TIP3    H143067   6.567   3.372   1.704 -2.0569 -0.1554  0.9813
 7192TIP3    H243068   6.595   3.497   1.784  2.4452  1.0999 -2.1632
 7193TIP3   OH243069   5.747   1.411  14.488 -0.0224  0.3593 -0.0606
 7193TIP3    H143070   5.808   1.467  14.440 -0.2779  0.5928 -0.1111
 7193TIP3    H243071   5.793   1.390  14.570 -0.5600  1.9643  0.6893
 7194TIP3   OH243072   1.211   5.667   5.980 -0.3889  0.2867  0.4528
 7194TIP3    H143073   1.202   5.763   5.981  0.4643  0.3815  1.2929
 7194TIP3    H243074   1.235   5.645   6.070 -0.1023 -0.6633  0.1521
 7195TIP3   OH243075   4.266   2.484  13.401  0.4930 -0.0157  0.3640
 7195TIP3    H143076   4.198   2.528  13.351  0.1145 -0.5427  0.4074
 7195TIP3    H243077   4.313   2.430  13.337 -0.1055 -0.8277  0.5920
 7196TIP3   OH243078   5.903   5.533   0.634  0.2296  0.0599 -0.4820
 7196TIP3    H143079   5.856   5.614   0.654 -0.5191 -0.4163 -0.2740
 7196TIP3    H243080   5.993   5.561   0.617  0.8783  0.6244  3.1020
 7197TIP3   OH243081   2.972   0.891  13.833 -0.1998  0.3716  0.7132
 7197TIP3    H143082   2.895   0.931  13.872 -0.7382  0.1550 -0.0973
 7197TIP3    H243083   2.944   0.864  13.745  0.0781 -1.8944  1.2447
 7198TIP3   OH243084   0.017   2.463  10.985  0.5938 -1.0242  0.0379
 7198TIP3    H143085   0.082   2.427  10.925 -0.4367 -1.6257 -0.7454
 7198TIP3    H243086   0.049   2.550  11.006  2.3330 -1.7872  0.7235
 7199TIP3   OH243087   5.292   5.325   1.933  0.4032  0.8470 -0.6861
 7199TIP3    H143088   5.329   5.322   2.021 -0.5033  1.5960 -0.2568
 7199TIP3    H243089   5.363   5.295   1.876  0.9062  0.0587  0.3231
 7200TIP3   OH243090   5.837   6.343  14.931  0.0016 -0.1799 -0.0853
 7200TIP3    H143091   5.791   6.347  15.015  1.9169 -1.0915  1.0757
 7200TIP3    H243092   5.804   6.419  14.882 -3.5242 -1.3788  0.1510
 7201TIP3   OH243093   2.205   5.262   5.030  0.2295 -0.0738  0.7474
 7201TIP3    H143094   2.249   5.182   5.060 -1.2989 -1.4247 -0.4337
 7201TIP3    H243095   2.113   5.248   5.052 -0.3514  0.5067 -1.1606
 7202TIP3   OH243096   1.415   2.021  14.158 -0.3395 -0.2586 -0.6212
 7202TIP3    H143097   1.494   1.988  14.115 -0.4680  0.3798 -1.3842
 7202TIP3    H243098   1.414   1.978  14.243 -0.5242 -2.2591 -1.5699
 7203TIP3   OH243099   2.307   1.269   3.067  0.1348 -0.0519 -0.4522
 7203TIP3    H143100   2.290   1.351   3.021 -0.2161  0.6100  0.8324
 7203TIP3    H243101   2.331   1.295   3.156 -0.8518 -1.3647  0.2259
 7204TIP3   OH243102   5.366   2.651  12.051 -0.0982  0.1874 -0.2031
 7204TIP3    H143103   5.371   2.725  11.990 -1.4180 -0.1497 -0.7730
 7204TIP3    H243104   5.335   2.689  12.133 -0.0248  0.3790 -0.2653
 7205TIP3   OH243105   1.014   3.835  11.462  0.1925  0.1246  0.4878
 7205TIP3    H143106   0.963   3.754  11.459  0.1078  0.1361  1.2751
 7205TIP3    H243107   1.102   3.808  11.436  0.5388 -0.5645  2.1805
 7206TIP3   OH243108   5.592   1.916   3.639 -0.3099 -0.7401  0.1216
 7206TIP3    H143109   5.500   1.909   3.663 -0.3445 -0.6411  0.0164
 7206TIP3    H243110   5.624   1.825   3.641  0.0134 -0.6207  1.8135
 7207TIP3   OH243111   4.730   0.002  12.468  0.3983  0.1403  0.0629
 7207TIP3    H143112   4.683   0.057  12.406 -0.3332 -1.7807 -1.1898
 7207TIP3    H243113   4.701  -0.087  12.447 -1.6127 -0.5313  4.5749
 7208TIP3   OH243114   2.426   1.583   0.038  0.8076 -0.3088 -0.3829
 7208TIP3    H143115   2.339   1.589  -0.003  0.3667 -2.7326  0.0407
 7208TIP3    H243116   2.414   1.621   0.125  0.3691  0.0510 -0.5966
 7209TIP3   OH243117   1.890   3.499   4.666 -0.0600 -0.4485  0.4809
 7209TIP3    H143118   1.955   3.496   4.736  0.1715  0.3240  0.3050
 7209TIP3    H243119   1.806   3.511   4.712 -0.2515 -2.5097  0.7833
 7210TIP3   OH243120   2.109   2.544   0.159  0.0688  0.4121 -0.5373
 7210TIP3    H143121   2.077   2.457   0.181 -0.6493  0.6437 -0.6284
 7210TIP3    H243122   2.176   2.563   0.225  0.5065 -0.3567 -0.7488
 7211TIP3   OH243123   6.770   1.743   1.227 -0.1113 -0.5234  0.4341
 7211TIP3    H143124   6.807   1.730   1.314  0.0001 -0.2566  0.4245
 7211TIP3    H243125   6.675   1.744   1.241 -0.1346 -1.4828  0.4232
 7212TIP3   OH243126   3.399   1.703   0.242  0.1238  0.3010  0.3997
 7212TIP3    H143127   3.404   1.798   0.238  0.3426  0.4034  2.2570
 7212TIP3    H243128   3.408   1.674   0.151 -1.7060  2.1077 -0.4101
 7213TIP3   OH243129   2.955   2.959  12.693 -0.8252  0.8836  0.0290
 7213TIP3    H143130   2.946   2.870  12.725 -0.3193  0.8837  0.1859
 7213TIP3    H243131   2.867   2.995  12.696 -0.7774  0.9251  1.5484
 7214TIP3   OH243132   4.947   4.320   1.536  0.2312  0.2660  0.1231
 7214TIP3    H143133   4.973   4.323   1.445  0.9239 -0.1608  0.3021
 7214TIP3    H243134   5.005   4.383   1.580  0.3782 -0.0498  0.3836
 7215TIP3   OH243135   3.981   2.015  12.828 -0.1648 -0.2043  0.0205
 7215TIP3    H143136   3.940   2.024  12.742 -0.5430 -0.9119  0.1199
 7215TIP3    H243137   4.072   1.990  12.808 -0.5229 -1.4406 -0.1837
 7216TIP3   OH243138   5.506   3.287   0.018 -0.7107  0.2510 -0.2444
 7216TIP3    H143139   5.428   3.246  -0.018 -0.4282 -1.0224  0.5327
 7216TIP3    H243140   5.481   3.313   0.107 -0.0985 -0.7484  0.2475
 7217TIP3   OH243141   5.286   0.745   3.647 -0.3870  0.7645 -0.0501
 7217TIP3    H143142   5.341   0.770   3.573 -0.5029  1.3223  0.0529
 7217TIP3    H243143   5.348   0.729   3.718 -0.1334 -1.2836 -0.6530
 7218TIP3   OH243144   6.263   5.161   3.001 -0.4160  0.1130  1.0427
 7218TIP3    H143145   6.349   5.138   2.965  0.3595 -0.5703  3.1692
 7218TIP3    H243146   6.259   5.256   2.993 -0.2330  0.0106 -0.6413
 7219TIP3   OH243147   2.368   5.423   3.533 -0.2145 -0.3347  0.5046
 7219TIP3    H143148   2.300   5.402   3.469 -1.3503  0.1301  1.5296
 7219TIP3    H243149   2.450   5.413   3.484 -1.0229 -0.4536 -0.8870
 7220TIP3   OH243150   4.115   5.125   4.598 -0.3582  0.1826 -0.2097
 7220TIP3    H143151   4.151   5.190   4.658 -1.2121 -0.2790  0.8382
 7220TIP3    H243152   4.072   5.176   4.529 -0.2361  0.7142  0.1060
 7221TIP3   OH243153   5.198   1.370  11.685  0.2904  0.4793 -0.4432
 7221TIP3    H143154   5.199   1.277  11.660 -0.0262 -0.0126  1.2810
 7221TIP3    H243155   5.264   1.377  11.754 -1.3445  0.9964  1.1635
 7222TIP3   OH243156   3.661   4.262  14.684 -0.9483  0.4572  0.2021
 7222TIP3    H143157   3.701   4.196  14.741 -0.8095  0.7446  0.4413
 7222TIP3    H243158   3.580   4.287  14.729 -1.1533  0.2346 -0.0369
 7223TIP3   OH243159   3.221   2.158  13.358  0.0922  0.1277  0.3285
 7223TIP3    H143160   3.133   2.182  13.330 -0.0326  1.5768  1.8066
 7223TIP3    H243161   3.208   2.109  13.439  0.5536 -1.9129 -0.7803
 7224TIP3   OH243162   4.960   4.310  15.975 -0.3457 -0.2690 -0.4644
 7224TIP3    H143163   4.925   4.330  15.889  0.2694  1.7975 -0.3069
 7224TIP3    H243164   4.890   4.335  16.036  0.2732  1.1231 -0.2789
 7225TIP3   OH243165   6.380   2.209   0.301 -0.4744 -0.7466 -0.3005
 7225TIP3    H143166   6.351   2.274   0.365  0.9635  2.2847 -2.5039
 7225TIP3    H243167   6.299   2.170   0.269 -1.3425 -0.7053  1.6637
 7226TIP3   OH243168   1.719   1.075  16.290  0.0740  0.6003 -0.1945
 7226TIP3    H143169   1.658   1.009  16.326 -0.7315  0.5698 -1.5630
 7226TIP3    H243170   1.758   1.032  16.214  0.6218  1.1996 -0.2527
 7227TIP3   OH243171   3.165   4.943  14.704 -0.5364 -0.1806 -0.2806
 7227TIP3    H143172   3.077   4.958  14.737 -0.6292  0.2483 -0.7261
 7227TIP3    H243173   3.207   4.889  14.771 -0.7173  0.6940  0.5454
 7228TIP3   OH243174   2.871   0.337  14.315 -0.2298  0.0110 -0.1575
 7228TIP3    H143175   2.921   0.336  14.397 -0.3878  0.2151 -0.0597
 7228TIP3    H243176   2.916   0.273  14.259 -0.4289 -0.5205  0.2750
 7229TIP3   OH243177   1.166   0.320   4.595 -0.2568  0.2742 -0.4613
 7229TIP3    H143178   1.202   0.261   4.529  0.0521  0.4858 -0.4861
 7229TIP3    H243179   1.222   0.308   4.671 -1.9195 -1.5998  0.5521
 7230TIP3   OH243180   3.037   1.498  10.476 -0.5639  1.0497 -0.0977
 7230TIP3    H143181   3.087   1.523  10.554  0.8819 -0.2045 -0.5770
 7230TIP3    H243182   2.977   1.572  10.462 -0.2232  1.7208  1.6460
 7231TIP3   OH243183   0.475   0.424   0.252 -0.0115 -0.8095 -0.3233
 7231TIP3    H143184   0.552   0.466   0.288 -0.5402 -1.6115  1.8829
 7231TIP3    H243185   0.407   0.435   0.318 -1.2596 -1.7629 -1.3658
 7232TIP3   OH243186   2.424   2.000  13.869  0.0786  0.0784 -0.1168
 7232TIP3    H143187   2.450   2.089  13.890 -1.1805  0.9172 -1.8852
 7232TIP3    H243188   2.338   1.990  13.911 -0.3358  0.1431 -0.9345
 7233TIP3   OH243189   0.070   4.007   0.841 -0.1896 -0.3663  0.1704
 7233TIP3    H143190   0.035   4.021   0.929 -0.3564 -2.0545  0.3867
 7233TIP3    H243191   0.000   3.963   0.793  0.6948 -1.4725 -0.1387
 7234TIP3   OH243192   1.759   1.446  16.666 -0.2648 -0.3428  0.5363
 7234TIP3    H143193   1.701   1.391  16.719 -0.3526  0.2569  1.0737
 7234TIP3    H243194   1.776   1.394  16.588 -1.4396 -0.5818  0.4169
 7235TIP3   OH243195   4.631   2.115   5.566 -0.9406 -0.5224 -0.3895
 7235TIP3    H143196   4.699   2.053   5.540 -1.6407 -1.5386  0.1322
 7235TIP3    H243197   4.663   2.154   5.647 -1.3462 -1.6410  0.3290
 7236TIP3   OH243198   6.518   1.593  13.002 -0.1720  0.2083  0.3447
 7236TIP3    H143199   6.557   1.532  12.939 -1.4601 -0.5409  0.2329
 7236TIP3    H243200   6.455   1.643  12.950 -1.5033 -0.6580  1.0816
 7237TIP3   OH243201   2.755   0.251  17.075 -0.4261 -0.3510 -0.2082
 7237TIP3    H143202   2.835   0.199  17.082  0.6660  1.1778 -0.6889
 7237TIP3    H243203   2.767   0.302  16.995 -0.9906  1.3520  0.7517
 7238TIP3   OH243204   5.672   1.047   1.749 -0.0113  0.4576  0.1479
 7238TIP3    H143205   5.758   1.071   1.783 -0.3056  0.8748  0.6102
 7238TIP3    H243206   5.634   0.990   1.815  0.3791 -0.7084 -0.6050
 7239TIP3   OH243207   5.299   1.665   0.879 -0.2165  0.6710  0.2581
 7239TIP3    H143208   5.341   1.716   0.810 -1.1623 -0.0310 -0.8572
 7239TIP3    H243209   5.371   1.618   0.921  0.2492  0.2554 -0.9710
 7240TIP3   OH243210   0.423   0.370  15.494 -0.0827  0.4419 -0.3425
 7240TIP3    H143211   0.434   0.423  15.572 -0.8908  1.6985 -1.0475
 7240TIP3    H243212   0.383   0.289  15.525 -0.2153  0.8460  0.5701
 7241TIP3   OH243213   3.533   5.186  11.037 -0.0583 -0.4576 -0.3255
 7241TIP3    H143214   3.499   5.205  11.124 -0.4291  1.5563 -0.8629
 7241TIP3    H243215   3.455   5.167  10.985  0.1820 -1.9319 -0.1900
 7242TIP3   OH243216   0.161   5.795  11.721  0.0249  0.1603  0.4427
 7242TIP3    H143217   0.192   5.787  11.631 -1.7324 -0.3989 -0.1511
 7242TIP3    H243218   0.093   5.863  11.717 -0.7380 -0.5403  1.1472
 7243TIP3   OH243219   6.162   1.619   2.021 -0.7327 -0.0241 -0.4683
 7243TIP3    H143220   6.150   1.700   2.071 -2.5762 -1.3555  1.4021
 7243TIP3    H243221   6.080   1.608   1.974 -0.6689 -1.0122 -0.3622
 7244TIP3   OH243222   6.522   4.507  12.124 -0.3100 -0.5090 -0.3521
 7244TIP3    H143223   6.473   4.557  12.189 -0.8393  0.1712 -1.2509
 7244TIP3    H243224   6.473   4.425  12.116 -0.1227 -0.6840  0.2521
 7245TIP3   OH243225   6.603   1.450  11.480 -0.1092 -0.5923  0.0325
 7245TIP3    H143226   6.634   1.396  11.553  1.3531  0.0509 -0.0730
 7245TIP3    H243227   6.569   1.387  11.416  2.2021 -1.5142 -0.4013
 7246TIP3   OH243228   3.785   2.330  12.651  0.2641  0.1983 -0.1243
 7246TIP3    H143229   3.875   2.305  12.670  0.1906  0.9402  1.3151
 7246TIP3    H243230   3.793   2.409  12.598  0.4449 -0.7546 -1.5915
 7247TIP3   OH243231   5.808   2.117   5.548 -0.5784  0.3528  0.7778
 7247TIP3    H143232   5.777   2.147   5.463 -2.8641 -2.3457  0.5352
 7247TIP3    H243233   5.737   2.139   5.609  0.5215  1.1901  1.8079
 7248TIP3   OH243234   3.075   3.729   2.594  0.3685 -0.7286 -0.4526
 7248TIP3    H143235   3.030   3.656   2.550 -0.2513 -0.3573 -0.4422
 7248TIP3    H243236   3.037   3.730   2.682 -1.8138  1.4304 -1.3094
 7249TIP3   OH243237   1.766   5.535  14.467 -1.0369  0.7106  0.3837
 7249TIP3    H143238   1.797   5.458  14.420 -1.0114  1.0474 -0.1561
 7249TIP3    H243239   1.683   5.508  14.507 -1.2403  0.5271 -0.1575
 7250TIP3   OH243240   0.361   2.905   3.240 -0.0034  0.5882 -0.2232
 7250TIP3    H143241   0.411   2.890   3.160  0.7486 -1.2288  0.5351
 7250TIP3    H243242   0.311   2.824   3.252 -1.6613  1.6187  0.0968
 7251TIP3   OH243243   1.656   2.607   1.410 -0.5570  0.5492  0.0668
 7251TIP3    H143244   1.631   2.679   1.352 -2.7418 -0.6263 -0.5243
 7251TIP3    H243245   1.651   2.529   1.355  0.1954 -0.2652  1.1106
 7252TIP3   OH243246   2.428   6.111  15.832 -0.0913 -0.4301  0.3194
 7252TIP3    H143247   2.386   6.194  15.857  1.7238  0.2978  1.1374
 7252TIP3    H243248   2.417   6.106  15.737  0.6857  1.3262  0.0994
 7253TIP3   OH243249   0.905   2.007  15.099 -0.3479 -0.4744 -0.0832
 7253TIP3    H143250   0.975   2.069  15.123 -0.9024  0.8130 -1.6218
 7253TIP3    H243251   0.952   1.931  15.065  0.3690  0.5391 -1.4955
 7254TIP3   OH243252   0.559   0.911   2.423 -0.2688  0.5254 -0.3061
 7254TIP3    H143253   0.524   0.957   2.499  1.5481  1.3382  0.1000
 7254TIP3    H243254   0.585   0.825   2.458  0.6225  0.9202  0.0517
 7255TIP3   OH243255   2.302   6.816  14.642 -0.0809  0.9902  0.1284
 7255TIP3    H143256   2.259   6.847  14.722 -0.3110  0.4263  0.2255
 7255TIP3    H243257   2.242   6.750  14.607  0.4124  0.6440 -0.0701
 7256TIP3   OH243258   2.047   3.423   3.000  0.2482 -0.1358 -0.1441
 7256TIP3    H143259   2.095   3.390   3.075  2.0974 -0.9084 -1.5693
 7256TIP3    H243260   2.114   3.461   2.944 -1.2927  2.1429 -0.5834
 7257TIP3   OH243261   1.194   2.298   4.317 -0.2430  0.0405 -0.4456
 7257TIP3    H143262   1.139   2.363   4.360 -0.5969 -0.4085 -0.2039
 7257TIP3    H243263   1.133   2.235   4.280  0.1008 -1.4793  1.4142
 7258TIP3   OH243264   3.970   4.294   0.168  0.5332  0.1341  0.7859
 7258TIP3    H143265   3.958   4.208   0.127 -0.7567  0.6792 -0.0550
 7258TIP3    H243266   3.883   4.318   0.198  0.9662  0.9750  1.3999
 7259TIP3   OH243267   5.423   4.258  17.061  0.1120  0.4161  0.2521
 7259TIP3    H143268   5.371   4.310  17.000 -0.0574  1.1273  0.9805
 7259TIP3    H243269   5.434   4.314  17.137  3.1785  0.8323 -0.3924
 7260TIP3   OH243270   2.675   6.434  10.078  0.0450  0.0353 -0.2162
 7260TIP3    H143271   2.634   6.373  10.140 -1.3761  1.1367 -0.0150
 7260TIP3    H243272   2.715   6.501  10.134 -0.1114  0.3315 -0.4560
 7261TIP3   OH243273   5.917   5.506  15.389  0.0315  0.3920 -0.0498
 7261TIP3    H143274   5.991   5.518  15.449 -0.5089 -1.0675  0.9611
 7261TIP3    H243275   5.955   5.518  15.302  1.2442  0.6476  0.4819
 7262TIP3   OH243276   1.700   5.229   2.949 -0.1990 -0.0322 -0.9880
 7262TIP3    H143277   1.758   5.296   2.984  0.2774 -0.6119 -0.6695
 7262TIP3    H243278   1.623   5.278   2.920 -0.8204  0.4397  1.2707
 7263TIP3   OH243279   4.417   4.180   6.289  0.2602 -0.3707 -0.2267
 7263TIP3    H143280   4.497   4.147   6.248  0.7349  0.0831  0.3229
 7263TIP3    H243281   4.417   4.274   6.271  0.9683  0.0241  1.5617
 7264TIP3   OH243282   2.175   3.226  12.314  0.0522  0.1795  0.1564
 7264TIP3    H143283   2.202   3.317  12.298 -1.2243  0.9223  1.9515
 7264TIP3    H243284   2.196   3.211  12.406 -2.2864 -0.4040  0.6411
 7265TIP3   OH243285   2.681   0.260   3.348 -0.4386 -0.4751  0.0553
 7265TIP3    H143286   2.744   0.331   3.336  0.6126 -1.5778 -1.3809
 7265TIP3    H243287   2.616   0.273   3.279 -0.2083 -0.9204 -0.2522
 7266TIP3   OH243288   5.583   3.830   4.702  0.1370  0.5632 -0.2759
 7266TIP3    H143289   5.529   3.852   4.777  0.6620 -1.1974  0.6686
 7266TIP3    H243290   5.568   3.737   4.688 -1.7887  1.2295 -3.8834
 7267TIP3   OH243291   0.937   4.841   3.825  0.6048  0.5931  0.1997
 7267TIP3    H143292   0.925   4.773   3.759  2.0391 -1.1251  1.6419
 7267TIP3    H243293   0.877   4.818   3.895  2.0536  0.0019  1.2829
 7268TIP3   OH243294   0.045   1.463   2.341 -0.8694  0.0901 -0.3955
 7268TIP3    H143295  -0.022   1.515   2.386  0.0314  0.8943  0.0573
 7268TIP3    H243296   0.063   1.512   2.261 -0.9041 -0.1918 -0.5767
 7269TIP3   OH243297   4.403   5.499   6.657  0.2906  0.3819  0.1610
 7269TIP3    H143298   4.459   5.558   6.606  1.7810  0.0329  1.3020
 7269TIP3    H243299   4.320   5.546   6.666  0.7709  1.4208 -0.6480
 7270TIP3   OH243300   1.774   3.956   6.136  0.4667  0.0494 -0.0074
 7270TIP3    H143301   1.833   3.969   6.062  0.9703 -4.8239 -0.7898
 7270TIP3    H243302   1.810   4.012   6.205  1.6327  2.6577 -2.5219
 7271TIP3   OH243303   4.615   4.054   6.170 -0.7859  0.0616 -0.2603
 7271TIP3    H143304   4.582   4.048   6.080 -0.9743 -2.8497 -0.0700
 7271TIP3    H243305   4.709   4.073   6.159 -1.3163  2.7024 -0.9208
 7272TIP3   OH243306   3.976   1.914  13.394  0.0513 -0.3166  0.0131
 7272TIP3    H143307   3.997   1.905  13.301 -1.0956  1.9782 -0.5559
 7272TIP3    H243308   4.060   1.929  13.437  0.6187 -1.6202 -0.5751
 7273TIP3   OH243309   3.917   6.745   2.203 -0.5870 -0.0901 -0.4390
 7273TIP3    H143310   3.948   6.814   2.262 -2.5339  3.3730 -3.0584
 7273TIP3    H243311   3.826   6.731   2.227 -1.0386  0.4711 -1.6877
 7274TIP3   OH243312   2.921   6.250  13.389  0.0552  0.0905  0.7183
 7274TIP3    H143313   2.888   6.178  13.335 -1.1770 -0.6017  2.2990
 7274TIP3    H243314   2.909   6.219  13.479  0.0441  2.0466  1.4293
 7275TIP3   OH243315   1.590   1.918   5.358 -0.3718  0.1379  0.7633
 7275TIP3    H143316   1.588   1.912   5.454  0.8002 -1.5556  0.7101
 7275TIP3    H243317   1.680   1.941   5.337 -0.6050  0.4374  0.0385
 7276TIP3   OH243318   6.260   4.175   3.406  0.1799  0.1184  0.7358
 7276TIP3    H143319   6.187   4.115   3.388  0.3123 -0.0281  0.6794
 7276TIP3    H243320   6.295   4.196   3.319  0.2435  0.1382  0.7667
 7277TIP3   OH243321   1.811   2.232  10.759 -0.0507  0.0018  0.0964
 7277TIP3    H143322   1.774   2.177  10.691 -0.6055 -1.6997  1.6974
 7277TIP3    H243323   1.736   2.276  10.799  0.0688 -0.3420  0.7163
 7278TIP3   OH243324   5.731   1.920  13.604  0.3425 -0.3986 -0.2823
 7278TIP3    H143325   5.688   1.863  13.668  0.6760  1.5739  1.8474
 7278TIP3    H243326   5.801   1.867  13.567 -0.6492 -2.0040  0.0519
 7279TIP3   OH243327   4.589   0.589  14.808  0.2867 -0.4034  0.7177
 7279TIP3    H143328   4.659   0.528  14.785 -0.9871 -1.7991  0.4145
 7279TIP3    H243329   4.535   0.595  14.729 -1.5532 -1.6389  1.8351
 7280TIP3   OH243330   0.493   1.498  14.591  0.0387  0.0236 -0.5262
 7280TIP3    H143331   0.415   1.450  14.619 -0.0150 -0.8763 -2.1294
 7280TIP3    H243332   0.461   1.558  14.523  0.4579  0.9122  0.0453
 7281TIP3   OH243333   6.683   1.085  15.430 -0.2456  0.6159  0.4505
 7281TIP3    H143334   6.717   0.995  15.427 -2.1540 -0.2526  2.1169
 7281TIP3    H243335   6.619   1.089  15.359 -0.3332  0.5725  0.5268
 7282TIP3   OH243336   0.744   5.398  12.849  0.3935 -0.1358  0.3454
 7282TIP3    H143337   0.661   5.442  12.865  1.7092  1.6277  3.0178
 7282TIP3    H243338   0.783   5.446  12.777  0.4682  1.1739  1.2265
 7283TIP3   OH243339   4.410   0.287   5.561 -0.2413  0.6013  0.2021
 7283TIP3    H143340   4.329   0.257   5.519 -1.2505 -0.0257  2.4638
 7283TIP3    H243341   4.479   0.262   5.499 -1.5849 -0.7854 -0.8246
 7284TIP3   OH243342   4.778   0.473   0.487 -0.0753 -0.0766 -0.2961
 7284TIP3    H143343   4.729   0.526   0.550 -2.6998  0.0542 -2.2700
 7284TIP3    H243344   4.762   0.516   0.403  2.2806 -0.9444 -1.2629
 7285TIP3   OH243345   4.143   4.888  15.618 -0.1081 -0.0710 -0.8707
 7285TIP3    H143346   4.166   4.980  15.605 -0.1016  0.1791  0.7012
 7285TIP3    H243347   4.202   4.858  15.688  1.3482 -1.8804 -2.7259
 7286TIP3   OH243348   4.047   1.846  11.342  0.3450  0.4414  0.6903
 7286TIP3    H143349   3.963   1.838  11.387  0.3763 -2.0146  0.4219
 7286TIP3    H243350   4.057   1.940  11.328 -3.9496  0.7644 -2.2275
 7287TIP3   OH243351   4.345   2.486   3.372  0.1996  0.8305 -0.3357
 7287TIP3    H143352   4.380   2.526   3.292  0.8733 -0.1770 -0.5643
 7287TIP3    H243353   4.250   2.484   3.358  0.4197 -1.7400 -2.3461
 7288TIP3   OH243354   0.845   6.210   5.604  1.0341  0.0279 -0.0341
 7288TIP3    H143355   0.785   6.180   5.672  0.2130  0.3881 -0.5741
 7288TIP3    H243356   0.923   6.239   5.651  0.9151 -0.7564  0.6601
 7289TIP3   OH243357   4.436   6.086   4.359  0.4631  0.3269  0.2289
 7289TIP3    H143358   4.390   6.085   4.275  1.0947  0.5731 -0.1271
 7289TIP3    H243359   4.524   6.118   4.338  2.0741 -3.5806  0.2720
 7290TIP3   OH243360   3.115   6.576  15.171 -0.2145 -0.0795  0.2279
 7290TIP3    H143361   3.151   6.572  15.260 -0.1665 -0.0562  0.2104
 7290TIP3    H243362   3.157   6.503  15.125 -0.5494 -0.3369  0.3336
 7291TIP3   OH243363   3.113   5.782   3.782  0.0452 -0.2479  1.1848
 7291TIP3    H143364   3.035   5.751   3.736  2.0273 -3.1468 -0.5603
 7291TIP3    H243365   3.144   5.856   3.729 -0.5222 -0.2543  0.8307
 7292TIP3   OH243366   4.567   1.259  11.458  0.4625 -0.0521 -0.2812
 7292TIP3    H143367   4.624   1.318  11.508  2.0102 -1.7596  0.0781
 7292TIP3    H243368   4.490   1.247  11.513  1.4232 -0.6127  0.9954
 7293TIP3   OH243369   6.494   6.232  15.264  0.0328  0.3830 -0.3351
 7293TIP3    H143370   6.574   6.187  15.291 -0.4192 -0.0206  0.3679
 7293TIP3    H243371   6.508   6.254  15.172  0.8868  0.1796 -0.2572
 7294TIP3   OH243372   2.591   2.756   4.699 -0.7514  0.2376 -0.1364
 7294TIP3    H143373   2.511   2.712   4.728 -1.3643  0.7543 -0.9680
 7294TIP3    H243374   2.662   2.708   4.741 -1.4166 -1.2146 -0.5878
 7295TIP3   OH243375   6.402   2.710  16.588 -0.3393  0.2551  0.2845
 7295TIP3    H143376   6.475   2.731  16.645  0.4214  1.8719 -1.1867
 7295TIP3    H243377   6.373   2.623  16.616  1.1423  0.2419  1.9038
 7296TIP3   OH243378   3.261   6.718   0.669  0.3295  0.1246  0.5255
 7296TIP3    H143379   3.239   6.636   0.625  1.2262  0.7491 -1.1795
 7296TIP3    H243380   3.204   6.783   0.627  2.2958  1.0063 -0.9295
 7297TIP3   OH243381   6.100   2.804  11.315  0.1612  0.2320 -0.0388
 7297TIP3    H143382   6.115   2.714  11.286  1.2077  0.1861  0.6106
 7297TIP3    H243383   6.166   2.819  11.382 -0.2884  1.3461  0.1731
 7298TIP3   OH243384   2.873   4.112  10.199 -0.4820 -0.0423  0.2549
 7298TIP3    H143385   2.962   4.105  10.166 -0.3810  0.4595  0.4115
 7298TIP3    H243386   2.879   4.171  10.274 -0.9450  0.0004  0.2644
 7299TIP3   OH243387   6.544   1.037  15.730 -0.2269 -0.4200 -0.5274
 7299TIP3    H143388   6.635   1.060  15.746 -0.3759  1.0931 -1.6321
 7299TIP3    H243389   6.544   0.993  15.646 -0.4560 -0.8382 -0.3110
 7300TIP3   OH243390   1.675   1.992  14.101  0.4089  0.1878  0.2998
 7300TIP3    H143391   1.756   1.952  14.069  0.7375  1.1531 -0.1108
 7300TIP3    H243392   1.663   2.069  14.046 -0.8269  0.0250  0.3245
 7301TIP3   OH243393   6.705   4.426  15.206 -0.5023  0.3382  0.2850
 7301TIP3    H143394   6.687   4.497  15.144 -0.6621 -0.9483 -1.2188
 7301TIP3    H243395   6.800   4.414  15.202 -0.0464  2.3602  2.7859
 7302TIP3   OH243396   0.191   1.751   5.363  0.0220  0.3064  0.0189
 7302TIP3    H143397   0.203   1.662   5.329  1.1959  1.1473 -1.9122
 7302TIP3    H243398   0.274   1.772   5.405 -0.7390  0.0107  1.7313
 7303TIP3   OH243399   5.795   3.771  15.556  0.2651  0.0272 -0.0195
 7303TIP3    H143400   5.829   3.744  15.471 -0.8875 -0.1808 -0.4328
 7303TIP3    H243401   5.705   3.740  15.556  0.2440  0.0469  1.2777
 7304TIP3   OH243402   2.807   5.489   1.548  0.5264  0.7723 -0.3034
 7304TIP3    H143403   2.730   5.459   1.596  0.2542  1.1845 -0.4770
 7304TIP3    H243404   2.772   5.527   1.467  0.9410  0.5999 -0.5663
 7305TIP3   OH243405   0.218   4.193   2.318  0.3101 -0.2858 -0.1873
 7305TIP3    H143406   0.307   4.209   2.289  0.0043  1.2408 -0.3383
 7305TIP3    H243407   0.164   4.204   2.239 -0.0609 -0.8278 -0.0215
 7306TIP3   OH243408   5.885   1.800   0.812  0.7913 -0.3778 -0.1030
 7306TIP3    H143409   5.924   1.823   0.728  2.7335 -1.3608  0.4778
 7306TIP3    H243410   5.817   1.737   0.790  1.3515 -0.7102 -0.9378
 7307TIP3   OH243411   0.648   6.424  11.453  0.0238 -0.2751 -0.1710
 7307TIP3    H143412   0.561   6.418  11.415 -0.0024  0.5915 -0.2795
 7307TIP3    H243413   0.639   6.489  11.523  0.1130 -1.6745  1.2055
 7308TIP3   OH243414   3.681   4.932  13.885 -0.7081 -0.2000  0.1872
 7308TIP3    H143415   3.621   4.863  13.857 -1.2917  0.6405 -0.7325
 7308TIP3    H243416   3.627   4.993  13.934 -0.0217 -0.7956  1.7512
 7309TIP3   OH243417   5.532   0.113   0.665 -1.1035 -0.3513 -0.0868
 7309TIP3    H143418   5.515   0.049   0.735  0.2388 -0.2182  0.3859
 7309TIP3    H243419   5.531   0.061   0.584  3.0617 -1.6994  0.4886
 7310TIP3   OH243420   3.399   2.844  11.335  0.0819  0.1457  0.1549
 7310TIP3    H143421   3.386   2.938  11.321  0.4563  0.6102  2.4208
 7310TIP3    H243422   3.462   2.840  11.407 -1.4019 -1.7957  1.4592
 7311TIP3   OH243423   1.870   4.668  16.691 -0.6488 -0.2575 -0.2657
 7311TIP3    H143424   1.919   4.677  16.773  0.1827  1.0562 -0.8725
 7311TIP3    H243425   1.780   4.652  16.719 -0.2680 -0.4854  0.8948
 7312TIP3   OH243426   6.084   2.208   1.077  0.4002  0.6890  0.1305
 7312TIP3    H143427   6.019   2.173   1.016 -0.9744  0.0958  1.8474
 7312TIP3    H243428   6.140   2.134   1.099  0.1268  0.5996  0.5284
 7313TIP3   OH243429   2.076   5.178  14.872 -0.4222 -0.4012 -0.1670
 7313TIP3    H143430   2.086   5.273  14.867  1.2961 -0.4552  1.4417
 7313TIP3    H243431   1.991   5.161  14.832 -0.4232  1.7190 -1.2124
 7314TIP3   OH243432   3.588   0.495   3.613  0.4338 -0.7292 -0.2121
 7314TIP3    H143433   3.528   0.482   3.539  1.4967 -0.2551 -1.1845
 7314TIP3    H243434   3.675   0.497   3.573  0.8396  3.3490  0.4813
 7315TIP3   OH243435   2.116   4.119  12.847 -0.6016  0.0942 -0.3405
 7315TIP3    H143436   2.093   4.098  12.757  0.3926 -0.8144 -0.3993
 7315TIP3    H243437   2.086   4.044  12.898 -0.4051  0.2188 -0.0370
 7316TIP3   OH243438   0.719   3.454   6.405 -0.2136  0.5853 -0.1212
 7316TIP3    H143439   0.795   3.512   6.412  0.6834 -0.5185 -0.4091
 7316TIP3    H243440   0.756   3.368   6.389 -1.4665 -0.2759  1.3075
 7317TIP3   OH243441   3.723   0.290   1.961  0.4657 -0.0566  0.4489
 7317TIP3    H143442   3.642   0.331   1.931  0.2384  1.1302  2.4887
 7317TIP3    H243443   3.694   0.208   2.001 -0.1178  1.3158  3.0910
 7318TIP3   OH243444   0.723   5.329  17.031 -0.9792 -0.2051 -0.0655
 7318TIP3    H143445   0.685   5.416  17.041  0.9955  0.5376  1.8014
 7318TIP3    H243446   0.686   5.278  17.103 -2.6165 -1.1837 -1.5176
 7319TIP3   OH243447   0.005   5.544   0.498  0.0801 -0.2364  0.2218
 7319TIP3    H143448  -0.083   5.546   0.536 -0.1056 -0.5119 -0.1985
 7319TIP3    H243449   0.047   5.468   0.539  0.2119  0.0362  0.6072
 7320TIP3   OH243450   2.902   5.550  13.580  0.0162 -0.3750 -0.4165
 7320TIP3    H143451   2.971   5.511  13.634  0.2071  0.3546 -0.1137
 7320TIP3    H243452   2.867   5.621  13.634 -0.0706  0.0981 -1.0884
 7321TIP3   OH243453   1.196   4.180   2.419 -0.0651  0.0511 -0.1183
 7321TIP3    H143454   1.105   4.155   2.402  0.6205 -0.8512 -3.1072
 7321TIP3    H243455   1.236   4.102   2.455  0.3779 -1.0075 -2.6593
 7322TIP3   OH243456   4.745   6.063  16.476  0.8934  0.7128 -0.4581
 7322TIP3    H143457   4.821   6.072  16.418  0.9134 -0.9745 -0.7414
 7322TIP3    H243458   4.672   6.046  16.417  1.0404 -1.7857 -0.0409
 7323TIP3   OH243459   1.379   0.280  11.867  0.4355 -0.2958  0.3646
 7323TIP3    H143460   1.387   0.185  11.877 -1.1044 -0.3652  1.2608
 7323TIP3    H243461   1.446   0.316  11.925  0.5662 -0.8447  0.5618
 7324TIP3   OH243462   1.582   5.040  12.235 -0.1574 -0.7477  0.1790
 7324TIP3    H143463   1.553   5.129  12.212  1.2059 -0.4262 -0.3881
 7324TIP3    H243464   1.629   5.009  12.158  0.0738 -1.6572  0.6716
 7325TIP3   OH243465   5.719   5.009  15.774  0.2874 -0.2230 -0.3920
 7325TIP3    H143466   5.725   4.924  15.731 -1.2999  0.1863 -1.4898
 7325TIP3    H243467   5.625   5.026  15.781  0.4347 -0.1736  3.1450
 7326TIP3   OH243468   6.279   1.580   3.401 -0.0310  0.0665 -0.5050
 7326TIP3    H143469   6.294   1.673   3.420 -0.3266  0.1490 -0.6704
 7326TIP3    H243470   6.189   1.577   3.369 -0.8044 -0.5647  1.5524
 7327TIP3   OH243471   1.120   2.185   2.892  0.0831 -0.0694  0.5338
 7327TIP3    H143472   1.053   2.145   2.837 -0.3205  1.0450  0.1787
 7327TIP3    H243473   1.076   2.200   2.976  0.3777 -0.7948  0.8231
 7328TIP3   OH243474   6.762   0.015  16.817 -0.3689 -0.7169  0.2829
 7328TIP3    H143475   6.712  -0.014  16.894 -0.8119 -0.7157 -0.0002
 7328TIP3    H243476   6.752   0.110  16.817 -1.0498 -0.7866 -0.2365
 7329TIP3   OH243477   2.982   5.215  16.614 -0.4177 -0.6970 -0.3919
 7329TIP3    H143478   2.930   5.287  16.650 -0.8653 -1.5006  0.6190
 7329TIP3    H243479   3.073   5.242  16.627 -0.4740  1.2205 -3.1682
 7330TIP3   OH243480   3.109   5.223   2.875  0.3242  0.1796  0.6792
 7330TIP3    H143481   3.079   5.250   2.789  2.2687  3.0260  0.7912
 7330TIP3    H243482   3.029   5.220   2.928 -0.5333  1.4975 -0.4817
 7331TIP3   OH243483   0.896   0.426   5.040  0.2835  0.1922 -0.2237
 7331TIP3    H143484   0.803   0.448   5.029  0.1589 -0.3326 -0.2875
 7331TIP3    H243485   0.942   0.488   4.984 -0.0846 -0.0130 -0.7687
 7332TIP3   OH243486   1.428   6.132   5.476  0.3081  0.6695  0.0971
 7332TIP3    H143487   1.456   6.141   5.567 -0.6435  0.0788  0.4686
 7332TIP3    H243488   1.428   6.221   5.441 -1.4636  1.2328  1.3601
 7333TIP3   OH243489   2.692   5.143  12.094  0.3285 -0.3155 -0.8791
 7333TIP3    H143490   2.765   5.120  12.037  1.3096 -2.5896  1.1288
 7333TIP3    H243491   2.625   5.077  12.075  0.3781 -0.6464  0.0679
 7334TIP3   OH243492   4.924   4.268   5.684  0.4122 -0.3638 -0.4076
 7334TIP3    H143493   4.841   4.306   5.655 -0.2794 -1.3832  0.1626
 7334TIP3    H243494   4.901   4.217   5.761  1.6354 -0.4288 -0.0684
 7335TIP3   OH243495   6.596   2.888   1.368 -0.2751 -0.2122 -0.0061
 7335TIP3    H143496   6.547   2.966   1.343 -1.1171 -0.3246  1.1995
 7335TIP3    H243497   6.542   2.815   1.340  0.8042 -0.4028 -1.6957
 7336TIP3   OH243498   4.364   0.058   4.084 -0.3909  0.5476  0.1895
 7336TIP3    H143499   4.454   0.066   4.115 -0.2832  0.1337 -0.0110
 7336TIP3    H243500   4.370   0.068   3.989 -0.3357 -1.1402 -0.0046
 7337TIP3   OH243501   0.862   1.238  13.841 -0.0003  1.0572  0.2424
 7337TIP3    H143502   0.862   1.239  13.745  1.7374 -1.4019  0.1433
 7337TIP3    H243503   0.953   1.254  13.865 -0.3220  1.0945  1.4877
 7338TIP3   OH243504   5.639   5.680  11.153 -0.5720  0.4031 -0.4165
 7338TIP3    H143505   5.551   5.715  11.141 -0.2676  1.4857  0.2933
 7338TIP3    H243506   5.689   5.754  11.189  0.6543 -0.1478 -0.9227
 7339TIP3   OH243507   6.679   4.184   4.563 -0.2007  0.4656 -0.2792
 7339TIP3    H143508   6.678   4.093   4.592  0.5412  0.1501 -1.1526
 7339TIP3    H243509   6.730   4.181   4.481 -0.9429  1.5233 -0.7910
 7340TIP3   OH243510   3.768   6.823   4.289 -0.3628  0.5578 -0.2260
 7340TIP3    H143511   3.711   6.780   4.353 -0.6198 -0.3657 -1.0506
 7340TIP3    H243512   3.761   6.769   4.211  0.6264  1.1784 -0.7653
 7341TIP3   OH243513   5.370   4.855  12.134  0.1967 -0.4593  0.8640
 7341TIP3    H143514   5.329   4.908  12.203 -0.9488 -0.5818  0.2972
 7341TIP3    H243515   5.399   4.776  12.179  2.2333  0.7327  1.7943
 7342TIP3   OH243516   1.908   4.303   3.318  0.4392 -0.2184 -0.4013
 7342TIP3    H143517   1.920   4.211   3.342  1.4727 -0.0395 -0.1655
 7342TIP3    H243518   1.814   4.317   3.322  0.3795 -0.8542  1.0870
 7343TIP3   OH243519   3.240   1.106   0.470  0.2539 -0.4042 -0.1460
 7343TIP3    H143520   3.240   1.196   0.438  0.8568 -0.0776  0.7279
 7343TIP3    H243521   3.322   1.097   0.518  0.2766 -1.4757 -0.3408
 7344TIP3   OH243522   3.643   0.007  15.733  0.1528  0.2080  0.1138
 7344TIP3    H143523   3.660   0.092  15.692 -1.1740  0.0359 -0.8663
 7344TIP3    H243524   3.645   0.024  15.827 -0.1202  1.3345 -0.0769
 7345TIP3   OH243525   5.503   6.310   5.777 -1.4832  0.4139  0.5389
 7345TIP3    H143526   5.518   6.319   5.683 -0.4854 -1.4454  0.4699
 7345TIP3    H243527   5.550   6.383   5.816  0.6603 -0.4694 -0.2532
 7346TIP3   OH243528   0.417   6.403   5.163 -0.3541 -0.3867  0.5318
 7346TIP3    H143529   0.495   6.456   5.172 -1.5626  1.4529  0.6880
 7346TIP3    H243530   0.441   6.335   5.100  0.8627  1.1019 -0.6809
 7347TIP3   OH243531   4.693   1.783  16.871 -0.0156  0.1820  0.6212
 7347TIP3    H143532   4.662   1.858  16.820  0.0639 -0.1123  0.1384
 7347TIP3    H243533   4.615   1.729  16.886  0.2480 -0.5852 -0.6393
 7348TIP3   OH243534   5.082   1.030  16.520  0.5858  0.6039  0.0659
 7348TIP3    H143535   5.020   1.047  16.449  0.6476 -1.7142 -0.6298
 7348TIP3    H243536   5.167   1.028  16.477  0.7308  0.1860  0.3636
 7349TIP3   OH243537   2.738   1.411  16.941  0.2912  0.0262  0.2123
 7349TIP3    H143538   2.772   1.322  16.936  1.3575  0.3785  0.9940
 7349TIP3    H243539   2.810   1.466  16.911  1.0047  0.8948  3.2058
 7350TIP3   OH243540   5.684   1.776  15.646 -0.1873 -0.5446 -0.3832
 7350TIP3    H143541   5.747   1.848  15.650  0.4682 -1.0870 -0.6625
 7350TIP3    H243542   5.609   1.812  15.598  0.4290 -0.2546 -1.1496
 7351TIP3   OH243543   0.255   1.767   2.873  0.4590  0.0534 -0.1410
 7351TIP3    H143544   0.279   1.677   2.854  0.5224 -0.0846  0.5427
 7351TIP3    H243545   0.328   1.820   2.842  0.7834 -0.2031  0.1855
 7352TIP3   OH243546   2.918   0.064   5.874 -0.4031 -0.3581 -0.3313
 7352TIP3    H143547   2.998   0.069   5.821 -0.9436 -2.0233 -1.3673
 7352TIP3    H243548   2.924   0.140   5.932  1.3667  0.2054 -1.1601
 7353TIP3   OH243549   1.734   0.371  13.805 -0.4259  0.1505  0.1689
 7353TIP3    H143550   1.779   0.453  13.826  0.1167 -0.2304  0.5294
 7353TIP3    H243551   1.782   0.336  13.730  1.1847 -1.2375  1.7594
 7354TIP3   OH243552   1.009   1.569  13.138  0.0929 -0.2246  0.2333
 7354TIP3    H143553   0.999   1.632  13.209  1.8697  1.7339 -1.1420
 7354TIP3    H243554   1.054   1.495  13.177  2.4389  1.4584  0.9024
 7355TIP3   OH243555   2.309   2.450   5.226  0.7223 -0.8147 -0.3926
 7355TIP3    H143556   2.333   2.538   5.197  0.5972 -0.7763 -0.3794
 7355TIP3    H243557   2.348   2.392   5.161 -1.0454 -0.6516 -1.6666
 7356TIP3   OH243558   2.142   2.351  16.887 -0.1885  0.5815  0.8295
 7356TIP3    H143559   2.107   2.331  16.973  1.0618 -0.7987  1.0608
 7356TIP3    H243560   2.218   2.406  16.904  0.4565 -0.2389  0.6840
 7357TIP3   OH243561   0.186   2.164   4.753  0.0096  0.1108 -0.3214
 7357TIP3    H143562   0.145   2.128   4.832 -0.2860  0.1011 -0.4761
 7357TIP3    H243563   0.126   2.233   4.724  0.0769  0.0639 -0.5796
 7358TIP3   OH243564   3.019   4.521  15.216  0.2460  0.1218 -0.2228
 7358TIP3    H143565   3.012   4.433  15.252  0.0037 -0.1597 -0.9462
 7358TIP3    H243566   3.018   4.578  15.293  0.2502 -0.4922  0.2419
 7359TIP3   OH243567   4.322   4.217  13.032 -0.4532  0.0344  0.0793
 7359TIP3    H143568   4.285   4.270  13.103 -0.7489 -0.8729  0.6152
 7359TIP3    H243569   4.414   4.205  13.055  0.0771  1.7542 -0.9318
 7360TIP3   OH243570   0.702   2.720  16.119  0.0017  0.3937  0.2924
 7360TIP3    H143571   0.686   2.645  16.177 -0.2293  0.3285  0.1470
 7360TIP3    H243572   0.727   2.791  16.178 -2.1267  0.8867  0.6997
 7361TIP3   OH243573   3.648   3.451  11.152 -0.1117  0.4935  0.2085
 7361TIP3    H143574   3.630   3.465  11.059 -0.6462  0.6754  0.3398
 7361TIP3    H243575   3.616   3.530  11.195 -0.9133 -0.0777  0.6775
 7362TIP3   OH243576   6.085   3.915   4.133  0.2432 -0.0842 -0.2921
 7362TIP3    H143577   6.161   3.934   4.078  0.4923  1.1600  0.4548
 7362TIP3    H243578   6.118   3.849   4.195  0.8747  0.8028  0.3399
 7363TIP3   OH243579   4.951   6.291   1.490 -0.3666 -0.5875 -0.1920
 7363TIP3    H143580   5.001   6.366   1.523 -2.1399  0.2458  0.7369
 7363TIP3    H243581   4.985   6.276   1.402 -0.3164  1.6632 -0.6057
 7364TIP3   OH243582   6.615   2.372  15.174  0.4502 -0.8577 -0.4499
 7364TIP3    H143583   6.570   2.314  15.112 -0.5758 -2.5379  1.7407
 7364TIP3    H243584   6.595   2.336  15.260  1.0676  1.8940  0.9724
 7365TIP3   OH243585   6.639   3.280   3.911 -0.7741  0.0778 -0.5843
 7365TIP3    H143586   6.571   3.219   3.882 -0.0604 -0.8138 -0.4094
 7365TIP3    H243587   6.696   3.291   3.835 -0.7098  0.2630 -0.5107
 7366TIP3   OH243588   4.048   4.663   3.889  0.2955 -0.2266 -0.4733
 7366TIP3    H143589   4.126   4.671   3.834  0.3193 -0.1089 -0.4235
 7366TIP3    H243590   4.082   4.660   3.978  0.2367 -0.0496 -0.4441
 7367TIP3   OH243591   4.500   5.403  12.863  0.5124  0.2322  0.1826
 7367TIP3    H143592   4.476   5.401  12.956  0.4064 -1.0754  0.1485
 7367TIP3    H243593   4.416   5.395  12.817  0.3435  2.9321 -0.0981
 7368TIP3   OH243594   0.025   3.467   5.628  0.0361 -0.8495 -0.3171
 7368TIP3    H143595  -0.069   3.460   5.612 -0.1499  0.4518  0.1205
 7368TIP3    H243596   0.051   3.378   5.654 -0.6773 -1.7078 -2.2921
 7369TIP3   OH243597   6.392   1.427  16.147  0.0689  0.3301  0.2241
 7369TIP3    H143598   6.413   1.492  16.079 -0.9236 -1.4507 -1.9452
 7369TIP3    H243599   6.477   1.399  16.180  0.6938  0.2493 -1.3451
 7370TIP3   OH243600   2.122   2.396   4.767  0.3364 -0.5236 -0.4199
 7370TIP3    H143601   2.175   2.345   4.828 -0.3104  0.3031  0.8696
 7370TIP3    H243602   2.083   2.331   4.709  2.6173 -1.1712 -1.3388
 7371TIP3   OH243603   0.573   5.576  12.259  0.4663 -0.2469  0.0923
 7371TIP3    H143604   0.571   5.672  12.258 -0.1657 -0.2561 -0.3667
 7371TIP3    H243605   0.484   5.551  12.283  0.7034 -0.7218  0.4836
 7372TIP3   OH243606   4.155   6.441  14.227  0.2419 -0.2403  0.4400
 7372TIP3    H143607   4.206   6.481  14.298  1.2322  0.1411 -0.4494
 7372TIP3    H243608   4.206   6.363  14.203 -0.7345 -1.0521  0.9575
 7373TIP3   OH243609   0.304   1.841  11.750 -0.9746  0.2249  0.5592
 7373TIP3    H143610   0.356   1.849  11.830 -1.7535  0.3385  1.0688
 7373TIP3    H243611   0.309   1.928  11.710  0.3125 -0.1322 -0.0978
 7374TIP3   OH243612   4.703   4.976  15.296 -0.5241 -0.3929 -0.1466
 7374TIP3    H143613   4.720   4.934  15.381 -0.4341 -0.2244 -0.0797
 7374TIP3    H243614   4.784   5.024  15.277 -1.6621  2.2659  1.2379
 7375TIP3   OH243615   3.907   6.013  13.432  0.6648  0.1994 -0.2270
 7375TIP3    H143616   3.911   6.026  13.337  1.8022  0.7489 -0.1194
 7375TIP3    H243617   3.836   6.071  13.461  0.3047  0.0167 -0.7430
 7376TIP3   OH243618   3.549   1.800  11.497  0.2746  0.4194 -0.8686
 7376TIP3    H143619   3.624   1.798  11.557  0.9133  1.3668 -1.6036
 7376TIP3    H243620   3.496   1.724  11.522  1.1684  0.0815  0.0643
 7377TIP3   OH243621   4.780   1.547   0.503  0.4014  0.3038 -0.6852
 7377TIP3    H143622   4.776   1.455   0.477  0.2734 -0.3297  1.3881
 7377TIP3    H243623   4.874   1.567   0.504  0.5604 -0.4113  0.7144
 7378TIP3   OH243624   4.597   1.774   4.929 -0.3043  0.2091 -0.6306
 7378TIP3    H143625   4.572   1.765   5.021  0.5040  1.9649 -0.1875
 7378TIP3    H243626   4.590   1.686   4.893 -1.1960 -0.4107  0.9654
 7379TIP3   OH243627   1.582   6.469  11.850 -0.5185 -0.4508 -0.3389
 7379TIP3    H143628   1.490   6.449  11.866 -0.9920  1.0935 -0.8866
 7379TIP3    H243629   1.580   6.549  11.797  1.1487  0.0957  0.3426
 7380TIP3   OH243630   3.829   0.729  14.910  0.0310  0.6759 -0.3568
 7380TIP3    H143631   3.841   0.635  14.924  0.4960  0.4555 -1.9963
 7380TIP3    H243632   3.740   0.738  14.876 -0.3625  0.9612  0.7095
 7381TIP3   OH243633   6.246   0.625  13.147  0.3855  0.6999 -0.1684
 7381TIP3    H143634   6.250   0.625  13.051  0.4498  0.6617 -0.1665
 7381TIP3    H243635   6.175   0.685  13.169  1.0020  1.4639 -0.2178
 7382TIP3   OH243636   3.526   1.916   2.312  0.8569 -0.3619 -0.2888
 7382TIP3    H143637   3.474   1.969   2.252 -0.0257  0.2393  0.9756
 7382TIP3    H243638   3.462   1.864   2.361  1.6279 -1.6389 -0.5918
 7383TIP3   OH243639   3.196   6.007   5.046  0.1720 -0.4367  0.0263
 7383TIP3    H143640   3.152   6.081   5.086  0.7660  1.0279 -1.8660
 7383TIP3    H243641   3.178   6.016   4.952  2.5317 -1.0830 -0.5738
 7384TIP3   OH243642   1.962   0.655   2.118  0.2656  0.7628 -0.4352
 7384TIP3    H143643   2.053   0.675   2.096  0.5747  1.0835  1.0505
 7384TIP3    H243644   1.917   0.654   2.033  1.7227  0.1112 -1.2495
 7385TIP3   OH243645   3.333   5.600  13.605  0.4514  0.4882 -0.5447
 7385TIP3    H143646   3.401   5.633  13.664  1.2502 -0.7026 -0.7686
 7385TIP3    H243647   3.372   5.609  13.518  1.2271 -2.1338 -0.5457
 7386TIP3   OH243648   4.912   0.881   2.248  0.8167  0.1367 -0.3386
 7386TIP3    H143649   4.911   0.919   2.160  0.0899 -0.1877 -0.4739
 7386TIP3    H243650   4.879   0.951   2.305 -0.2841 -0.1881 -0.5547
 7387TIP3   OH243651   1.141   1.827  13.402 -0.0595 -0.2211  0.0313
 7387TIP3    H143652   1.152   1.888  13.475 -0.9838  0.2271 -0.1902
 7387TIP3    H243653   1.224   1.778  13.399  0.7109  1.0222  0.2064
 7388TIP3   OH243654   3.887   4.762  15.647  0.4728  0.4894  0.1418
 7388TIP3    H143655   3.837   4.843  15.658  0.9509  0.7049  0.8004
 7388TIP3    H243656   3.976   4.791  15.628  0.2895  0.1111 -1.4832
 7389TIP3   OH243657   1.909   4.750   4.422 -0.1935 -0.4247 -0.0549
 7389TIP3    H143658   1.822   4.710   4.426 -0.6692  0.6434  3.1793
 7389TIP3    H243659   1.899   4.835   4.466  2.3443 -0.0015 -0.1293
 7390TIP3   OH243660   0.870   1.121   2.040 -0.1484  0.3107  0.1061
 7390TIP3    H143661   0.951   1.072   2.024 -1.8527 -2.1872 -1.3411
 7390TIP3    H243662   0.901   1.207   2.070  3.0517  0.0183 -1.8892
 7391TIP3   OH243663   0.040   2.309   6.761 -0.3302 -0.1655  0.1370
 7391TIP3    H143664   0.029   2.215   6.773  1.8473 -0.6166 -1.0442
 7391TIP3    H243665  -0.007   2.348   6.836 -4.4144 -1.9298 -1.2024
 7392TIP3   OH243666   1.487   4.943   3.110 -0.6467  0.1782 -0.3655
 7392TIP3    H143667   1.559   4.892   3.074 -1.9785 -1.9822 -0.1496
 7392TIP3    H243668   1.455   4.995   3.035  0.0565 -0.1365 -0.8927
 7393TIP3   OH243669   3.098   2.099   0.041  0.0745 -0.1113 -0.2620
 7393TIP3    H143670   3.078   2.117  -0.051  0.5555  1.6115 -0.0617
 7393TIP3    H243671   3.038   2.028   0.065 -1.2011  0.5177 -1.4508
 7394TIP3   OH243672   0.321   3.770  14.961  0.0176 -0.4724  0.5232
 7394TIP3    H143673   0.315   3.808  14.873  2.6729 -2.9912 -0.9342
 7394TIP3    H243674   0.246   3.710  14.965  0.2883 -0.8908 -0.3664
 7395TIP3   OH243675   3.840   5.727  14.786  0.8289  0.6939 -0.1874
 7395TIP3    H143676   3.774   5.755  14.849 -1.5848  1.7647 -2.9258
 7395TIP3    H243677   3.833   5.632  14.784  0.1143  0.7300  0.3036
 7396TIP3   OH243678   1.233   4.341  12.805  0.3807 -1.0927 -0.7999
 7396TIP3    H143679   1.276   4.290  12.736  1.5738 -0.2313 -0.7353
 7396TIP3    H243680   1.268   4.429  12.795  0.0165 -0.7850  0.4457
 7397TIP3   OH243681   4.013   2.945   6.294 -1.0094  0.0670  0.1240
 7397TIP3    H143682   4.086   2.940   6.233 -0.5730  1.4323  0.4889
 7397TIP3    H243683   3.936   2.923   6.242 -0.2306 -3.3285  0.1517
 7398TIP3   OH243684   1.759   1.890  15.686  0.4440 -0.0335  0.2356
 7398TIP3    H143685   1.842   1.844  15.700  0.5565  0.3079  0.7014
 7398TIP3    H243686   1.785   1.973  15.646  0.2961 -0.0888  0.0273
 7399TIP3   OH243687   1.573   4.168  15.970  0.2381 -0.3762 -0.1306
 7399TIP3    H143688   1.525   4.245  15.939  4.0442  1.6246 -1.7485
 7399TIP3    H243689   1.602   4.123  15.891  1.6245 -1.0346  0.7083
 7400TIP3   OH243690   5.324   2.332  15.923 -1.0516 -0.0267  0.5714
 7400TIP3    H143691   5.264   2.257  15.920 -1.7603  0.5272  0.4489
 7400TIP3    H243692   5.310   2.371  16.009  0.0552 -0.6148  1.0299
 7401TIP3   OH243693   3.815   6.442  13.567  0.1532  0.2825 -0.0767
 7401TIP3    H143694   3.719   6.448  13.561  0.1757  1.8254  0.5315
 7401TIP3    H243695   3.838   6.370  13.510 -1.3059  0.4533 -0.9426
 7402TIP3   OH243696   2.571   4.349  10.640  0.3663  0.3815  0.4083
 7402TIP3    H143697   2.531   4.264  10.659 -2.6032  0.4709 -4.0297
 7402TIP3    H243698   2.655   4.326  10.599 -0.5444 -0.5369 -1.0452
 7403TIP3   OH243699   4.940   5.595  16.831 -0.4828  0.3687  0.1460
 7403TIP3    H143700   5.032   5.568  16.837 -0.5588 -0.5615 -1.9044
 7403TIP3    H243701   4.895   5.518  16.797 -1.9176  1.0223  0.5061
 7404TIP3   OH243702   0.220   4.084   5.324  0.0118 -0.2685  0.5779
 7404TIP3    H143703   0.261   4.138   5.257  1.2064 -1.8129 -0.0130
 7404TIP3    H243704   0.254   4.117   5.406  1.1414 -0.4121  0.1926
 7405TIP3   OH243705   2.567   5.082   0.632  0.3033 -0.5024 -0.1289
 7405TIP3    H143706   2.545   5.123   0.716  2.4315 -2.7660  1.6868
 7405TIP3    H243707   2.505   5.010   0.624 -1.6532  1.2311 -1.9733
 7406TIP3   OH243708   1.557   2.482  13.567  0.5531 -0.6248  0.1079
 7406TIP3    H143709   1.569   2.496  13.661 -0.8379  3.1725 -0.0889
 7406TIP3    H243710   1.462   2.481  13.555  0.7010 -0.2223 -1.3144
 7407TIP3   OH243711   3.243   0.030   1.475  0.5365  0.2522  0.2729
 7407TIP3    H143712   3.157  -0.012   1.483 -0.2555  1.8249  0.3706
 7407TIP3    H243713   3.291  -0.027   1.414 -1.6917  0.9713 -2.3591
 7408TIP3   OH243714   6.370   6.305   6.318 -0.2468  0.4784  0.0373
 7408TIP3    H143715   6.454   6.347   6.335  0.2250 -1.4613  3.4307
 7408TIP3    H243716   6.391   6.231   6.261  0.2435  0.3761  0.3489
 7409TIP3   OH243717   6.045   4.521   1.860  0.1815  0.2700  0.5921
 7409TIP3    H143718   6.035   4.609   1.898  1.5207  0.6480  0.1522
 7409TIP3    H243719   6.035   4.536   1.765  1.7117  0.2028  0.3951
 7410TIP3   OH243720   5.054   3.931  10.958 -0.3278  0.3886  0.8918
 7410TIP3    H143721   4.990   3.870  10.922  2.4033 -2.3523  0.3133
 7410TIP3    H243722   5.070   3.900  11.047 -1.0708  2.2064  1.7280
 7411TIP3   OH243723   3.591   0.968  13.293  0.1978  0.0680  0.9447
 7411TIP3    H143724   3.550   1.047  13.256 -1.3681 -0.8467  0.6061
 7411TIP3    H243725   3.666   1.001  13.343 -0.3961  1.7682  0.7978
 7412TIP3   OH243726   0.845   3.789   0.380  0.2675  0.3720  0.1038
 7412TIP3    H143727   0.864   3.706   0.335  1.6565  0.7937 -0.1283
 7412TIP3    H243728   0.905   3.852   0.341 -0.1089  1.2869  0.9555
 7413TIP3   OH243729   0.405   5.428   0.622 -0.3699  0.1209  0.2249
 7413TIP3    H143730   0.383   5.338   0.596 -1.6489  0.7910 -1.1321
 7413TIP3    H243731   0.431   5.420   0.714 -2.4639 -1.3778  0.7576
 7414TIP3   OH243732   1.561   6.592   4.981 -0.1052  0.1453 -0.5275
 7414TIP3    H143733   1.477   6.564   4.944  0.0913 -2.3590  0.7894
 7414TIP3    H243734   1.539   6.665   5.039 -1.2095  0.1039 -0.8784
 7415TIP3   OH243735   0.922   0.154  11.604 -0.7541 -0.8301 -0.2463
 7415TIP3    H143736   1.010   0.170  11.570 -0.2897 -0.9126  0.8782
 7415TIP3    H243737   0.881   0.099  11.538  0.3072 -1.4448 -0.4131
 7416TIP3   OH243738   4.504   0.631   0.076  0.2458 -0.0010 -0.1538
 7416TIP3    H143739   4.439   0.664   0.014  2.0377  1.0661 -1.5820
 7416TIP3    H243740   4.473   0.544   0.100 -0.5151 -0.5083 -2.6385
 7417TIP3   OH243741   3.614   0.164  13.066 -0.2467  0.4740  0.3612
 7417TIP3    H143742   3.654   0.248  13.088  3.2135 -1.6260  3.2350
 7417TIP3    H243743   3.600   0.121  13.150 -3.1966 -1.4136 -0.9143
 7418TIP3   OH243744   4.901   2.365  12.083 -0.1557  0.0352 -0.2287
 7418TIP3    H143745   4.817   2.387  12.044 -0.9386  0.7432  1.7233
 7418TIP3    H243746   4.879   2.329  12.169  1.5616  2.6292  1.4445
 7419TIP3   OH243747   1.196   0.960   4.841 -0.0498 -0.5227  0.4291
 7419TIP3    H143748   1.125   0.999   4.893  0.2486  3.0815 -1.5118
 7419TIP3    H243749   1.151   0.903   4.778 -1.0002 -0.1508  0.7511
 7420TIP3   OH243750   5.652   4.715  14.566 -0.0041  0.0225 -0.7459
 7420TIP3    H143751   5.729   4.714  14.509  0.0284 -1.2548 -0.7047
 7420TIP3    H243752   5.578   4.724  14.506  0.1681  2.1459 -0.7366
 7421TIP3   OH243753   2.113   4.558   0.141 -0.1695  0.6083  0.0978
 7421TIP3    H143754   2.042   4.620   0.127 -0.4018  0.2630 -0.2888
 7421TIP3    H243755   2.136   4.528   0.053 -0.5069 -0.3369  0.3175
 7422TIP3   OH243756   3.672   4.537   1.385  0.0130 -0.3557  0.2043
 7422TIP3    H143757   3.585   4.498   1.380  0.5310 -1.4087 -2.0255
 7422TIP3    H243758   3.721   4.478   1.442 -0.1160 -1.1579 -0.4806
 7423TIP3   OH243759   0.562   3.857  15.769  0.6001 -0.1675  0.2957
 7423TIP3    H143760   0.525   3.933  15.723  0.0017  0.0385  1.0864
 7423TIP3    H243761   0.559   3.882  15.861  0.4399 -1.1355  0.5573
 7424TIP3   OH243762   0.277   0.645   5.002  0.4698 -0.1837  0.1933
 7424TIP3    H143763   0.335   0.693   5.062  0.1036  0.6626 -0.1167
 7424TIP3    H243764   0.248   0.570   5.054 -1.7202  1.7500  1.9936
 7425TIP3   OH243765   5.972   5.898  16.743  0.2304  1.1627 -0.6534
 7425TIP3    H143766   5.905   5.906  16.811 -1.1217 -0.2952 -1.7271
 7425TIP3    H243767   5.925   5.916  16.661  0.0272 -3.5058 -1.8495
 7426TIP3   OH243768   1.797   1.373   4.998  0.4969  0.2157 -0.2494
 7426TIP3    H143769   1.804   1.291   4.950 -0.8119  1.1381 -2.1410
 7426TIP3    H243770   1.800   1.441   4.931  1.8932  1.7758  1.2871
 7427TIP3   OH243771   0.430   3.787  15.523  0.0283 -0.2713 -0.0648
 7427TIP3    H143772   0.480   3.754  15.597  0.1046  0.4145  0.2029
 7427TIP3    H243773   0.477   3.757  15.445 -0.0109 -0.9307  0.1646
 7428TIP3   OH243774   1.049   4.192  12.927  0.1502  0.4658 -0.4265
 7428TIP3    H143775   1.117   4.144  12.975  0.1976  0.2134 -0.7393
 7428TIP3    H243776   1.097   4.258  12.877  0.1162  0.6234 -0.2509
 7429TIP3   OH243777   1.667   0.722   1.880 -0.1448 -0.2134 -0.3430
 7429TIP3    H143778   1.651   0.807   1.923 -0.7651 -1.2448  1.5937
 7429TIP3    H243779   1.586   0.703   1.834 -0.4921 -0.3561  0.3190
 7430TIP3   OH243780   2.552   4.513  15.334 -0.3375 -0.3037  0.5787
 7430TIP3    H143781   2.628   4.456  15.327 -0.5201 -0.5862  0.8374
 7430TIP3    H243782   2.573   4.572  15.406  0.8322  1.5026 -1.1328
 7431TIP3   OH243783   3.996   1.550   0.862  0.4527 -0.4375 -0.0524
 7431TIP3    H143784   4.025   1.486   0.798  1.1611  1.1291 -1.3588
 7431TIP3    H243785   4.067   1.554   0.926  1.0013 -0.0355 -0.6761
 7432TIP3   OH243786   4.330   1.818   2.526 -0.4989 -0.2089  0.4489
 7432TIP3    H143787   4.390   1.820   2.601  1.9438  1.8247 -1.3962
 7432TIP3    H243788   4.345   1.733   2.485 -0.1505 -0.4096  0.9831
 7433TIP3   OH243789   3.423   2.623   3.610 -0.3338  0.1597 -0.3228
 7433TIP3    H143790   3.409   2.681   3.685 -0.6454  3.0694 -2.4126
 7433TIP3    H243791   3.517   2.606   3.609 -0.1386  1.1582  0.0509
 7434TIP3   OH243792   2.443   3.640   0.152 -0.2702  0.1514  0.2251
 7434TIP3    H143793   2.508   3.707   0.132 -0.0837 -0.1353 -0.1600
 7434TIP3    H243794   2.372   3.655   0.090 -0.5603  0.4440  0.6241
 7435TIP3   OH243795   2.005   4.614   2.170 -0.3737  0.5978 -0.6755
 7435TIP3    H143796   1.919   4.652   2.189 -0.3609  1.1022 -1.5712
 7435TIP3    H243797   2.053   4.621   2.253 -0.8076  1.3739 -0.4780
 7436TIP3   OH243798   0.587   0.173   4.685 -0.4159 -0.3941 -0.0526
 7436TIP3    H143799   0.596   0.092   4.635  0.8792 -0.1274 -0.2890
 7436TIP3    H243800   0.598   0.243   4.620 -0.0375 -0.0383  0.3863
 7437TIP3   OH243801   6.354   1.219  15.594 -0.2363 -0.3755 -0.0597
 7437TIP3    H143802   6.381   1.183  15.678 -1.9001  0.8293  1.0552
 7437TIP3    H243803   6.435   1.246  15.552  0.5414  0.3494  1.8151
 7438TIP3   OH243804   4.037   5.360  14.866 -0.0915  0.0189 -0.0136
 7438TIP3    H143805   4.130   5.357  14.888  0.2242 -0.0931 -1.2882
 7438TIP3    H243806   3.998   5.413  14.935  0.8153 -0.4257  0.8610
 7439TIP3   OH243807   1.337   5.014  15.679  0.7078  0.4469 -0.0517
 7439TIP3    H143808   1.318   5.029  15.587  1.6454 -0.2314 -0.3689
 7439TIP3    H243809   1.281   4.940  15.704  0.5570  0.5396 -0.1182
 7440TIP3   OH243810   4.881   5.649  12.314  0.3346 -0.3319 -0.5800
 7440TIP3    H143811   4.923   5.650  12.400  1.4656  2.4000 -1.0647
 7440TIP3    H243812   4.787   5.644  12.334  0.5186  1.1801  0.8970
 7441TIP3   OH243813   5.891   0.255   6.549 -0.6634 -0.1474  0.0749
 7441TIP3    H143814   5.842   0.217   6.621 -1.4293 -0.1923 -0.4601
 7441TIP3    H243815   5.953   0.316   6.591 -1.1547 -0.1084  0.7543
 7442TIP3   OH243816   2.897   6.566   5.118 -0.1944 -0.3236  0.0458
 7442TIP3    H143817   2.981   6.588   5.078 -0.0835  0.4664  0.6892
 7442TIP3    H243818   2.913   6.572   5.212 -0.8334 -0.6961  0.1797
 7443TIP3   OH243819   4.482   3.065   2.500  0.2716 -0.7599  0.1940
 7443TIP3    H143820   4.497   3.114   2.580 -0.4709  0.7002 -0.5198
 7443TIP3    H243821   4.555   3.089   2.442  0.0878 -0.7654 -0.0436
 7444TIP3   OH243822   3.832   5.663  15.443  0.1773 -0.1530  0.1873
 7444TIP3    H143823   3.914   5.613  15.444  1.7826  2.3253  1.2558
 7444TIP3    H243824   3.830   5.706  15.529 -1.4473  1.0790 -0.4297
 7445TIP3   OH243825   5.368   4.480   0.420  0.9212 -0.3864 -0.4385
 7445TIP3    H143826   5.305   4.541   0.382  0.7601 -0.3119 -0.0590
 7445TIP3    H243827   5.452   4.526   0.416  1.2626 -1.0554 -2.3178
 7446TIP3   OH243828   6.733   0.760  16.769 -0.0246  0.1172  0.5130
 7446TIP3    H143829   6.657   0.814  16.792 -0.1742 -0.5408  1.6184
 7446TIP3    H243830   6.703   0.705  16.696  0.3102  1.8836 -1.0602
 7447TIP3   OH243831   1.887   1.777   5.568 -0.4447 -0.8439  0.3517
 7447TIP3    H143832   1.964   1.816   5.526 -0.3119 -1.1167  0.3388
 7447TIP3    H243833   1.880   1.690   5.529 -0.2580 -1.1438  0.9693
 7448TIP3   OH243834   1.333   2.368  16.134  0.5408 -0.1182  0.0623
 7448TIP3    H143835   1.308   2.278  16.115  1.3193 -0.1096 -1.0585
 7448TIP3    H243836   1.253   2.407  16.171  0.5675 -1.6072  1.8349
 7449TIP3   OH243837   0.702   3.257  17.166  0.3923 -0.0366  0.7787
 7449TIP3    H143838   0.765   3.324  17.140  0.3037  0.0211  0.7141
 7449TIP3    H243839   0.715   3.247  17.261  0.9070 -0.4435  0.6743
 7450TIP3   OH243840   4.088   0.646   6.441 -0.0636  0.1222  0.0955
 7450TIP3    H143841   4.074   0.722   6.384 -1.2294  0.8087  1.2465
 7450TIP3    H243842   4.004   0.632   6.483  0.4217 -1.1944  0.6750
 7451TIP3   OH243843   3.260   5.046   2.667 -0.5647  0.3658 -0.1125
 7451TIP3    H143844   3.204   4.970   2.681 -0.0994 -0.1700 -1.0296
 7451TIP3    H243845   3.253   5.096   2.747 -0.5858 -0.8507  0.6767
 7452TIP3   OH243846   1.770   2.034  12.100 -0.9653  0.4268  0.1381
 7452TIP3    H143847   1.712   2.000  12.168 -0.1860  0.2422  0.7201
 7452TIP3    H243848   1.787   2.125  12.126 -0.7007  0.3691  0.1666
 7453TIP3   OH243849   3.073   5.524  16.423 -0.2846  0.3781  0.8029
 7453TIP3    H143850   3.138   5.585  16.388 -1.4594  1.8733  1.1401
 7453TIP3    H243851   3.126   5.457  16.467  1.0870  0.3131 -0.8312
 7454TIP3   OH243852   6.223   2.482  13.365  0.6415  0.1117  0.3796
 7454TIP3    H143853   6.133   2.511  13.352  0.8197  0.8003  0.6386
 7454TIP3    H243854   6.216   2.407  13.424  0.1499 -0.5915 -0.5490
 7455TIP3   OH243855   6.452   6.813   2.896  0.0845  0.3993  0.3165
 7455TIP3    H143856   6.443   6.760   2.817 -1.6538  0.8819  0.1494
 7455TIP3    H243857   6.445   6.904   2.866  0.8816  0.6498  0.8559
 7456TIP3   OH243858   2.648   2.427   2.963 -0.4114 -0.2275 -0.2325
 7456TIP3    H143859   2.692   2.492   2.909 -0.5422 -0.4640 -0.6310
 7456TIP3    H243860   2.715   2.361   2.980  0.2646  0.8984  1.7257
 7457TIP3   OH243861   3.145   6.297  14.161  0.0996  0.4393  0.8307
 7457TIP3    H143862   3.088   6.346  14.220  1.5965  0.1220  2.6108
 7457TIP3    H243863   3.234   6.320  14.188  0.8446 -1.6019  0.3079
 7458TIP3   OH243864   1.677   4.881  17.092  0.5846 -1.1160  0.2888
 7458TIP3    H143865   1.628   4.926  17.024  3.2886  2.9343  0.7190
 7458TIP3    H243866   1.613   4.868  17.163 -1.6595 -3.2894 -1.9191
 7459TIP3   OH243867   6.331   5.176  11.904 -0.3731 -0.4975  0.1985
 7459TIP3    H143868   6.361   5.263  11.877 -0.4312 -0.2567  0.9077
 7459TIP3    H243869   6.268   5.151  11.836  0.2772 -0.3612 -0.4784
 7460TIP3   OH243870   0.082   5.318  11.566 -0.5596 -0.3357  0.0827
 7460TIP3    H143871   0.162   5.369  11.581 -0.6313 -0.2203  0.0793
 7460TIP3    H243872   0.094   5.238  11.617 -0.8294  0.0775  0.8073
 7461TIP3   OH243873   2.576   4.914   4.764 -0.2208  0.0393 -0.1222
 7461TIP3    H143874   2.626   4.835   4.745 -0.4075  0.1626 -1.1453
 7461TIP3    H243875   2.595   4.973   4.692 -0.0105  0.9771  0.6751
 7462TIP3   OH243876   5.098   3.085   1.648 -0.0811 -0.2166  0.7039
 7462TIP3    H143877   5.054   3.169   1.633  1.2852  0.6633  1.3916
 7462TIP3    H243878   5.118   3.053   1.560 -0.9849 -0.0381  0.4202
 7463TIP3   OH243879   0.627   6.233   2.369 -0.3486  0.4515 -0.0644
 7463TIP3    H143880   0.654   6.141   2.364 -1.9968  0.0057 -1.9571
 7463TIP3    H243881   0.578   6.239   2.451 -0.6119 -0.4802 -0.1424
 7464TIP3   OH243882   3.322   5.329  13.445 -0.0604  0.3333 -0.6458
 7464TIP3    H143883   3.327   5.260  13.379  0.0435 -1.1793  0.8632
 7464TIP3    H243884   3.344   5.285  13.528 -0.8657  1.9787  0.5081
 7465TIP3   OH243885   5.406   0.361  13.811 -0.1420  0.4008  0.1109
 7465TIP3    H143886   5.311   0.362  13.818 -0.1592 -2.0652  1.0114
 7465TIP3    H243887   5.433   0.451  13.833 -2.2496  1.2734 -0.6708
 7466TIP3   OH243888   5.325   4.490   3.365 -0.2598  0.2166  0.1275
 7466TIP3    H143889   5.385   4.503   3.438 -0.4740 -3.1228  1.0831
 7466TIP3    H243890   5.238   4.484   3.406 -0.5051 -0.6950 -0.4983
 7467TIP3   OH243891   5.507   5.446  10.718  0.1846  0.5855  0.1372
 7467TIP3    H143892   5.543   5.398  10.643 -1.6330  0.0415 -0.4508
 7467TIP3    H243893   5.584   5.483  10.762  1.4480 -0.6427 -0.9191
 7468TIP3   OH243894   3.727   3.831   0.110 -0.5084  0.5716 -0.0521
 7468TIP3    H143895   3.758   3.885   0.183 -0.8182  2.0740 -0.9923
 7468TIP3    H243896   3.777   3.750   0.118 -0.7475  0.5492  1.9975
 7469TIP3   OH243897   3.808   5.111  17.131 -0.1114  0.4543 -0.5907
 7469TIP3    H143898   3.805   5.078  17.221  1.9374 -0.4213 -0.7968
 7469TIP3    H243899   3.736   5.066  17.086 -3.5592  3.5116  1.3009
 7470TIP3   OH243900   6.456   5.038   4.380  0.3040 -0.5985  0.2506
 7470TIP3    H143901   6.544   5.078   4.381 -0.2824  0.7385  0.5506
 7470TIP3    H243902   6.397   5.110   4.359 -0.8227 -1.3097  0.8746
 7471TIP3   OH243903   2.664   3.244   0.433 -0.4266  0.0674 -0.2850
 7471TIP3    H143904   2.582   3.224   0.389  0.0325  0.0152 -1.1303
 7471TIP3    H243905   2.722   3.172   0.410 -0.1482  0.0758  0.3526
 7472TIP3   OH243906   0.720   0.715   2.262  0.5569  0.5628 -0.4959
 7472TIP3    H143907   0.632   0.681   2.246  0.0054  1.2254  0.8924
 7472TIP3    H243908   0.707   0.807   2.282  1.4239  0.4199  0.8772
 7473TIP3   OH243909   2.753   2.446  13.444  0.2702  0.2228  0.2683
 7473TIP3    H143910   2.757   2.356  13.412 -0.3821  1.0336 -2.3315
 7473TIP3    H243911   2.675   2.448  13.499 -1.2222 -0.2974 -1.6679
 7474TIP3   OH243912   0.755   3.214  16.774  0.3369  0.2486  0.7332
 7474TIP3    H143913   0.848   3.230  16.786  0.1875  1.2634  0.6942
 7474TIP3    H243914   0.730   3.270  16.700 -0.0306 -1.0963 -0.2046
 7475TIP3   OH243915   1.579   2.205   4.776 -0.8795  0.6604 -0.3322
 7475TIP3    H143916   1.580   2.109   4.774  0.2262  0.6416  0.2598
 7475TIP3    H243917   1.559   2.230   4.686  0.4537 -0.1369 -0.8893
 7476TIP3   OH243918   4.579   3.701   0.330  0.1224  0.5030 -0.0561
 7476TIP3    H143919   4.570   3.792   0.358 -0.0842  0.3437  0.4001
 7476TIP3    H243920   4.670   3.679   0.350 -0.2803  0.0827  1.4523
 7477TIP3   OH243921   0.035   3.048  13.673 -0.3921 -0.1795 -0.4727
 7477TIP3    H143922  -0.034   3.089  13.724 -0.4555 -0.8911  0.0224
 7477TIP3    H243923   0.106   3.112  13.673 -0.2596 -0.3038  0.8090
 7478TIP3   OH243924   0.996   0.547  14.419 -0.4037  0.3125  0.1774
 7478TIP3    H143925   0.970   0.558  14.510 -2.5971  0.2601 -0.4015
 7478TIP3    H243926   1.006   0.452  14.408 -1.5450  0.1964  0.0281
 7479TIP3   OH243927   3.961   2.165  15.485  0.3192 -0.6008  0.2350
 7479TIP3    H143928   3.981   2.078  15.521  0.1207 -0.4368  0.7414
 7479TIP3    H243929   3.891   2.199  15.540 -0.7238 -0.7627 -0.9304
 7480TIP3   OH243930   3.279   2.378  14.893 -0.6554 -0.4608  0.5055
 7480TIP3    H143931   3.348   2.443  14.879 -0.5190 -0.7813 -0.3548
 7480TIP3    H243932   3.268   2.376  14.988  1.0588 -0.9273  0.7354
 7481TIP3   OH243933   1.573   3.163   5.158  0.1173  0.8043  0.4978
 7481TIP3    H143934   1.627   3.095   5.198 -0.8280  1.0957  2.3982
 7481TIP3    H243935   1.634   3.232   5.132  0.7296  0.9674  2.2546
 7482TIP3   OH243936   4.644   3.762  15.556  0.3019 -0.3832 -0.1436
 7482TIP3    H143937   4.614   3.703  15.487  2.5948 -1.8728  0.0548
 7482TIP3    H243938   4.629   3.850  15.521  0.7195 -1.1023 -2.2198
 7483TIP3   OH243939   6.302   1.448  16.580  0.1920 -0.1261  0.2471
 7483TIP3    H143940   6.305   1.357  16.551 -1.4331  0.3376 -1.6094
 7483TIP3    H243941   6.226   1.453  16.638  1.0621 -0.2060  1.4169
 7484TIP3   OH243942   3.581   2.592   1.270  0.2957  0.3354  0.3432
 7484TIP3    H143943   3.538   2.586   1.356 -0.0284 -2.8071  0.0466
 7484TIP3    H243944   3.514   2.566   1.207  0.6648  2.1824 -0.9080
 7485TIP3   OH243945   3.387   3.353   2.374  0.3051  0.0494  0.2819
 7485TIP3    H143946   3.390   3.272   2.323  0.2891  1.1296 -1.5245
 7485TIP3    H243947   3.325   3.334   2.445 -0.7746 -1.0890 -0.9014
 7486TIP3   OH243948   2.658   0.755  11.678  0.2980  0.4999 -0.4172
 7486TIP3    H143949   2.571   0.717  11.664  0.3770 -0.0807  0.5557
 7486TIP3    H243950   2.649   0.846  11.649  0.0781 -0.1800 -2.7007
 7487TIP3   OH243951   2.360   0.426  16.167 -0.2080  0.7281  0.0795
 7487TIP3    H143952   2.422   0.426  16.241 -1.2499  2.0361  0.9980
 7487TIP3    H243953   2.286   0.374  16.199 -0.5918  1.1590 -0.1169
 7488TIP3   OH243954   6.494   3.617   2.583  0.0191  0.1287  0.4273
 7488TIP3    H143955   6.564   3.682   2.590  0.5584 -0.5050  1.1708
 7488TIP3    H243956   6.519   3.549   2.645 -0.3769 -0.9287 -0.5377
 7489TIP3   OH243957   3.483   0.126   1.597  0.3446 -0.7388 -0.1056
 7489TIP3    H143958   3.405   0.114   1.543 -0.4152  0.8239  0.5783
 7489TIP3    H243959   3.450   0.123   1.687  0.7482  1.5518  0.1834
 7490TIP3   OH243960   4.979   3.353   5.395 -0.3270  0.5007  0.1248
 7490TIP3    H143961   5.033   3.395   5.328 -1.0289 -0.5770 -1.1593
 7490TIP3    H243962   4.953   3.424   5.453 -0.3527  1.6062 -1.2009
 7491TIP3   OH243963   5.068   2.943  15.562  0.6452  0.7175 -0.0785
 7491TIP3    H143964   5.080   3.029  15.602  0.6734 -0.3209  2.3284
 7491TIP3    H243965   5.156   2.908  15.552  0.6619  1.0744 -1.4350
 7492TIP3   OH243966   4.122   5.812   1.287  0.2807  0.3544 -0.1260
 7492TIP3    H143967   4.188   5.845   1.225  1.2635 -0.0719  0.6633
 7492TIP3    H243968   4.149   5.722   1.306  0.7689  0.8752  1.8968
 7493TIP3   OH243969   0.618   5.068   2.105 -0.5821 -0.4224 -0.3097
 7493TIP3    H143970   0.524   5.048   2.110 -0.3489 -1.5131  0.3045
 7493TIP3    H243971   0.649   5.054   2.195 -0.1554  1.8056 -0.0512
 7494TIP3   OH243972   2.148   1.546  13.228  0.2862  0.0117  0.0508
 7494TIP3    H143973   2.067   1.585  13.196 -0.0711 -0.8330 -0.1194
 7494TIP3    H243974   2.123   1.505  13.311  0.6398  0.1200  0.2106
 7495TIP3   OH243975   0.142   3.275  13.333 -0.1701 -0.1367  0.4282
 7495TIP3    H143976   0.124   3.369  13.337  0.3195 -0.0698  1.6716
 7495TIP3    H243977   0.177   3.261  13.245  0.1544  0.9193  0.3660
 7496TIP3   OH243978   0.754   3.016  11.576 -0.0321 -0.8826 -0.1415
 7496TIP3    H143979   0.686   3.026  11.642  0.3647 -0.7144  0.2499
 7496TIP3    H243980   0.796   3.102  11.572  0.0400 -0.9332 -0.5113
 7497TIP3   OH243981   5.266   3.727   0.536 -0.3533 -0.4153 -1.0937
 7497TIP3    H143982   5.311   3.767   0.610 -1.4591 -1.3208  0.1217
 7497TIP3    H243983   5.255   3.798   0.473  0.7123  0.3486 -0.4487
 7498TIP3   OH243984   4.832   2.533  15.120  0.0359  0.3644  0.3191
 7498TIP3    H143985   4.787   2.609  15.083  1.1169  0.9042  0.0957
 7498TIP3    H243986   4.818   2.540  15.215 -1.6859 -0.3535  0.1673
 7499TIP3   OH243987   0.262   2.579  14.082 -0.5675 -0.5909  0.3952
 7499TIP3    H143988   0.332   2.522  14.051 -1.1082  0.5820 -3.4406
 7499TIP3    H243989   0.286   2.666  14.050 -1.8572  0.6183  2.4690
 7500TIP3   OH243990   0.495   2.586   6.166  0.4098 -0.8850  0.5742
 7500TIP3    H143991   0.543   2.667   6.151 -0.2331 -0.5084  0.5229
 7500TIP3    H243992   0.404   2.607   6.145  0.1318 -1.4385  1.1878
 7501TIP3   OH243993   0.672   1.529   4.761  0.0726 -0.3290  0.3101
 7501TIP3    H143994   0.633   1.475   4.693  0.0501  1.3720 -1.1304
 7501TIP3    H243995   0.602   1.589   4.788  0.2346 -0.6506  1.4645
 7502TIP3   OH243996   6.715   3.884   0.418  0.4310  0.3954 -0.3780
 7502TIP3    H143997   6.769   3.852   0.346 -0.5091  0.6210 -1.2105
 7502TIP3    H243998   6.732   3.978   0.420  2.0418  0.1163  1.0831
 7503TIP3   OH243999   6.839   3.376  16.628  0.1798  0.4433 -0.2732
 7503TIP3    H144000   6.836   3.413  16.716  0.5039 -1.0910  0.3986
 7503TIP3    H244001   6.932   3.360  16.611  0.0161 -0.4048 -0.4027
 7504TIP3   OH244002   1.607   1.231  11.362 -0.2202  0.5416 -0.0558
 7504TIP3    H144003   1.542   1.267  11.422 -0.4538  1.6337 -0.9345
 7504TIP3    H244004   1.631   1.146  11.401  0.7838  1.8616  2.4000
 7505TIP3   OH244005   6.204   5.861   3.630  0.7731 -0.6994 -0.0920
 7505TIP3    H144006   6.297   5.863   3.608  0.1943 -2.2943 -3.2222
 7505TIP3    H244007   6.198   5.793   3.698  1.9324 -0.0034  0.7610
 7506TIP3   OH244008   2.108   4.294   0.297  0.5167  0.0067  0.0812
 7506TIP3    H144009   2.106   4.333   0.209 -2.2631  1.2511  0.5905
 7506TIP3    H244010   2.065   4.209   0.286 -0.0419  0.2639  0.2744
 7507TIP3   OH244011   5.979   3.135  13.168 -0.4723 -0.1719 -0.4892
 7507TIP3    H144012   5.999   3.054  13.214  0.6731  0.9953  1.1962
 7507TIP3    H244013   6.065   3.169  13.142 -1.0348 -0.3290 -2.7395
 7508TIP3   OH244014   4.391   5.299   0.320  0.4206  0.2907  0.6673
 7508TIP3    H144015   4.428   5.387   0.317  2.0693 -0.3829 -1.0233
 7508TIP3    H244016   4.442   5.253   0.386 -2.3324  1.2496  3.7630
 7509TIP3   OH244017   1.534   3.517  12.328  0.5485 -0.0811  0.1928
 7509TIP3    H144018   1.458   3.568  12.302 -0.0793 -0.3978  1.3369
 7509TIP3    H244019   1.603   3.581  12.342 -0.4131  0.5838  2.2726
 7510TIP3   OH244020   1.253   2.966   5.862 -0.7243 -0.0924  0.6155
 7510TIP3    H144021   1.204   2.902   5.914  0.2023 -0.7778  0.6632
 7510TIP3    H244022   1.295   2.914   5.794 -0.3875  0.5426  0.3288
 7511TIP3   OH244023   1.090   2.867  13.403 -0.5520 -0.2486  0.2818
 7511TIP3    H144024   1.158   2.934  13.397 -0.2840 -0.5827 -0.4362
 7511TIP3    H244025   1.064   2.851  13.313 -2.2373  0.5234  0.6039
 7512TIP3   OH244026   4.405   6.286   2.099 -0.8381 -0.4621  0.0946
 7512TIP3    H144027   4.470   6.355   2.083 -0.2804 -1.0046  0.0177
 7512TIP3    H244028   4.443   6.231   2.167 -0.2644 -1.9928 -1.3984
 7513TIP3   OH244029   2.852   5.978  15.031  0.2467 -0.3456 -0.3080
 7513TIP3    H144030   2.926   5.921  15.053 -0.3990 -1.2938 -0.5451
 7513TIP3    H244031   2.881   6.065  15.057  2.1302 -0.3972 -1.9676
 7514TIP3   OH244032   4.052   3.889   4.920  0.2076 -0.1222  0.7623
 7514TIP3    H144033   4.147   3.878   4.915  0.6023  2.9091 -1.6796
 7514TIP3    H244034   4.038   3.945   4.996 -0.1494 -3.3012  3.2552
 7515TIP3   OH244035   5.442   6.800  12.791  0.0514 -0.4146 -0.0115
 7515TIP3    H144036   5.446   6.826  12.699  2.8090 -0.6427 -0.0098
 7515TIP3    H244037   5.409   6.710  12.789  1.6583 -1.0095 -0.9324
 7516TIP3   OH244038   0.559   4.026  13.492 -0.5385 -0.2695 -0.0428
 7516TIP3    H144039   0.480   3.989  13.530 -1.1343  1.2609  0.2912
 7516TIP3    H244040   0.603   4.069  13.565 -1.2020  1.8760 -0.8020
 7517TIP3   OH244041   1.759   6.371  10.312 -0.2043 -0.3299 -0.1209
 7517TIP3    H144042   1.814   6.293  10.314  0.9654  0.4855  0.1560
 7517TIP3    H244043   1.813   6.439  10.273 -1.4965  0.1527 -1.1391
 7518TIP3   OH244044   2.588   5.300   4.024 -0.4875 -0.0788  0.4549
 7518TIP3    H144045   2.555   5.390   4.025  1.3448  0.6248  0.6028
 7518TIP3    H244046   2.677   5.307   3.990 -0.8736 -2.0594 -1.1296
 7519TIP3   OH244047   2.057   0.183  11.872 -0.0355  0.2381 -0.5343
 7519TIP3    H144048   2.026   0.094  11.891  1.3298  0.4703  3.8934
 7519TIP3    H244049   2.136   0.170  11.820  1.6977 -1.5056  2.2641
 7520TIP3   OH244050   5.300   3.085   1.050  0.0874  0.3756 -0.5646
 7520TIP3    H144051   5.227   3.142   1.027  0.2890  0.8321 -0.0933
 7520TIP3    H244052   5.349   3.074   0.968  0.8429  2.0481 -0.3738
 7521TIP3   OH244053   5.343   0.974  16.435 -0.4346  0.2432  0.5133
 7521TIP3    H144054   5.366   0.937  16.521 -0.7589 -0.9628  0.1090
 7521TIP3    H244055   5.361   0.903  16.374 -2.1398  0.3647 -0.1827
 7522TIP3   OH244056   0.157   1.672  14.535 -0.5141 -0.0744 -0.3655
 7522TIP3    H144057   0.217   1.709  14.599 -0.2616 -2.3206  0.7844
 7522TIP3    H244058   0.070   1.684  14.573 -0.2737 -2.6940  1.2018
 7523TIP3   OH244059   2.275   6.269   1.481  0.0620 -0.0788  0.2287
 7523TIP3    H144060   2.301   6.355   1.448 -1.5812  0.3824  0.0650
 7523TIP3    H244061   2.343   6.247   1.546  0.6571  1.1933  0.0630
 7524TIP3   OH244062   1.990   4.935  16.499  0.3091 -0.5122  0.5460
 7524TIP3    H144063   2.001   4.852  16.452  3.2768 -0.3089  0.7214
 7524TIP3    H244064   1.942   4.991  16.438 -2.7277 -2.5662  0.8223
 7525TIP3   OH244065   0.362   2.372  11.703 -0.1095  0.3305 -0.4816
 7525TIP3    H144066   0.354   2.465  11.724  0.6625  0.5024 -0.9026
 7525TIP3    H244067   0.303   2.359  11.628  0.9612  0.8428 -1.4406
 7526TIP3   OH244068   3.161   4.792   1.272  0.2196  0.2800 -0.0414
 7526TIP3    H144069   3.209   4.823   1.348  1.1227  0.2465 -0.5904
 7526TIP3    H244070   3.169   4.696   1.277  0.4657  0.2890 -0.3070
 7527TIP3   OH244071   2.695   4.519  10.905 -0.0319 -0.4457 -0.2278
 7527TIP3    H144072   2.678   4.611  10.884  0.7108 -0.5722 -1.4935
 7527TIP3    H244073   2.701   4.476  10.820  2.4025 -1.1452  0.2217
 7528TIP3   OH244074   6.641   1.369  12.447 -0.0256  0.3437 -0.3481
 7528TIP3    H144075   6.736   1.362  12.461  0.0694  0.6731 -0.7839
 7528TIP3    H244076   6.632   1.381  12.353 -0.5188  0.1167 -0.3326
 7529TIP3   OH244077   5.740   2.290  15.834 -0.2345  0.1440  0.4409
 7529TIP3    H144078   5.762   2.364  15.777  1.3618 -2.1853 -2.2320
 7529TIP3    H244079   5.797   2.300  15.910  1.8954  0.3525 -1.0939
 7530TIP3   OH244080   0.753   2.194  15.651  0.1353 -0.3172 -0.0818
 7530TIP3    H144081   0.765   2.101  15.632  1.3576  0.0925 -1.4100
 7530TIP3    H244082   0.678   2.196  15.712 -0.2188 -2.1136 -0.4019
 7531TIP3   OH244083   5.881   1.285   1.475 -0.0026  0.2891  0.5559
 7531TIP3    H144084   5.974   1.274   1.451 -0.3964 -1.0762 -0.4835
 7531TIP3    H244085   5.846   1.196   1.476 -1.3035  0.7887  0.9440
 7532TIP3   OH244086   4.061   3.761  13.164  1.1593  0.4287  0.0942
 7532TIP3    H144087   4.015   3.844  13.152 -0.1608 -0.2080  0.5587
 7532TIP3    H244088   4.061   3.720  13.077  0.9504  0.4839  0.0681
 7533TIP3   OH244089   5.527   5.082   5.679 -0.0148  0.1052 -0.1064
 7533TIP3    H144090   5.577   5.072   5.760  1.0273  1.3399 -0.5712
 7533TIP3    H244091   5.593   5.100   5.611 -1.0457  1.8631 -0.7204
 7534TIP3   OH244092   6.494   0.687  14.654 -0.5196  0.0758 -0.0453
 7534TIP3    H144093   6.412   0.684  14.604 -1.0458  1.0603  0.7278
 7534TIP3    H244094   6.467   0.685  14.745  0.1990  1.9945  0.2559
 7535TIP3   OH244095   4.471   4.731   0.025  0.1362  0.5726  0.0830
 7535TIP3    H144096   4.434   4.720  -0.062  1.1542  1.5104 -0.5024
 7535TIP3    H244097   4.452   4.822   0.048 -1.8269 -0.1730  1.7031
 7536TIP3   OH244098   2.891   3.164  12.336 -0.3334  0.0148 -0.3789
 7536TIP3    H144099   2.815   3.130  12.384  0.5611 -1.9875 -0.2812
 7536TIP3    H244100   2.956   3.093  12.340  0.4971  0.5258 -2.9155
 7537TIP3   OH244101   5.524   6.496   5.427 -0.1863 -0.0949 -0.0447
 7537TIP3    H144102   5.474   6.484   5.507  0.8868 -0.5032  0.5872
 7537TIP3    H244103   5.531   6.591   5.417 -0.7745 -0.0369  0.0417
 7538TIP3   OH244104   0.970   6.407  14.650 -0.1915  0.1682  0.7370
 7538TIP3    H144105   0.907   6.474  14.626  0.7223  1.1126  0.9009
 7538TIP3    H244106   0.932   6.325  14.618 -0.7540  0.9118 -0.5551
 7539TIP3   OH244107   5.181   3.163  14.180  0.0969  0.0831  0.3649
 7539TIP3    H144108   5.144   3.216  14.110 -0.2164 -2.4525 -1.5215
 7539TIP3    H244109   5.117   3.093  14.194  0.9360 -0.4148  2.0555
 7540TIP3   OH244110   4.520   1.876  12.082 -0.1444 -0.0345 -0.1104
 7540TIP3    H144111   4.549   1.950  12.029  0.1115 -0.6806 -0.8928
 7540TIP3    H244112   4.561   1.890  12.167  1.2757 -0.1436 -0.7560
 7541TIP3   OH244113   6.824   5.070   2.394  0.0411  0.4416 -0.1169
 7541TIP3    H144114   6.869   5.152   2.370 -0.0438 -0.0942 -2.3510
 7541TIP3    H244115   6.736   5.097   2.418  0.1038  1.0556 -0.5444
 7542TIP3   OH244116   0.525   1.576   2.315 -0.5214  0.3034 -0.1299
 7542TIP3    H144117   0.540   1.533   2.231 -0.0048 -2.2456  1.1627
 7542TIP3    H244118   0.429   1.578   2.323 -0.5746 -1.4522  0.1147
 7543TIP3   OH244119   3.720   1.853   4.947 -0.4140  0.1316 -0.0846
 7543TIP3    H144120   3.735   1.790   5.018 -1.1592 -0.2252 -0.2261
 7543TIP3    H244121   3.749   1.808   4.868  0.1529  0.4200 -0.0397
 7544TIP3   OH244122   0.615   5.080   6.652  0.0464  0.3366  0.4348
 7544TIP3    H144123   0.600   5.167   6.614  1.1892  0.3100 -0.1104
 7544TIP3    H244124   0.556   5.022   6.604 -0.7170  0.7966  0.7969
 7545TIP3   OH244125   5.512   4.039  16.244 -0.1171 -0.5636 -0.2797
 7545TIP3    H144126   5.472   4.085  16.171  0.5624 -0.6409 -0.7014
 7545TIP3    H244127   5.459   4.064  16.320 -0.7951 -0.4507 -0.7880
 7546TIP3   OH244128   4.490   4.251   2.353 -0.2300 -0.1563 -0.7929
 7546TIP3    H144129   4.542   4.217   2.425  0.7723 -1.9402 -2.2985
 7546TIP3    H244130   4.410   4.198   2.353 -0.3639  0.0426 -0.8113
 7547TIP3   OH244131   1.575   6.425   2.196 -0.2966  0.4446 -0.4935
 7547TIP3    H144132   1.621   6.342   2.210 -1.7153 -0.7440 -2.4101
 7547TIP3    H244133   1.643   6.491   2.205  0.9933 -0.9471  0.5794
 7548TIP3   OH244134   5.401   2.598   4.093 -0.3018 -0.4685 -0.1137
 7548TIP3    H144135   5.466   2.540   4.053  0.7349  1.7504 -1.9081
 7548TIP3    H244136   5.452   2.662   4.141 -1.3324 -0.1959  0.6521
 7549TIP3   OH244137   6.297   1.662   1.099  0.0843 -0.4049 -0.0604
 7549TIP3    H144138   6.216   1.611   1.107 -0.8795  0.6684 -2.2665
 7549TIP3    H244139   6.365   1.603   1.131 -1.5788 -1.0864  2.6085
 7550TIP3   OH244140   4.439   0.368   0.124  0.1771  0.4933  0.3547
 7550TIP3    H144141   4.415   0.348   0.214 -1.0873  0.2407 -0.0215
 7550TIP3    H244142   4.382   0.313   0.070  0.6558  0.9004 -0.6064
 7551TIP3   OH244143   3.907   0.015  14.477 -0.3145 -0.4727 -0.8616
 7551TIP3    H144144   3.823   0.058  14.493 -0.0909 -0.6921  1.1701
 7551TIP3    H244145   3.939   0.054  14.396 -0.9571  1.8735 -0.0532
 7552TIP3   OH244146   6.503   4.010   6.513  0.2881 -0.1431  0.2185
 7552TIP3    H144147   6.546   3.935   6.555 -1.9008 -0.7690  1.5157
 7552TIP3    H244148   6.424   3.973   6.473 -1.5490  1.5918  2.0014
 7553TIP3   OH244149   1.870   5.624  14.719  0.4861  0.2953  0.7547
 7553TIP3    H144150   1.838   5.587  14.636 -0.0452 -1.0161  1.5199
 7553TIP3    H244151   1.832   5.712  14.722 -0.1604  0.0533 -0.0099
 7554TIP3   OH244152   2.019   5.289   3.212  0.6124  0.4056  0.0063
 7554TIP3    H144153   1.940   5.313   3.164 -0.8823 -3.5952  0.0682
 7554TIP3    H244154   1.995   5.298   3.304 -0.0787 -1.2979  0.0375
 7555TIP3   OH244155   0.591   6.675  12.283  0.8490  0.3902  0.3869
 7555TIP3    H144156   0.633   6.589  12.271  2.3434  1.0708  0.5751
 7555TIP3    H244157   0.527   6.661  12.353  1.4298 -0.4569  0.7625
 7556TIP3   OH244158   3.658   1.759  11.743 -0.0984 -0.1734 -0.4751
 7556TIP3    H144159   3.752   1.747  11.757  0.1109  0.8147 -0.9620
 7556TIP3    H244160   3.617   1.706  11.811  0.7884 -1.5409 -0.9576
 7557TIP3   OH244161   5.306   5.000  12.704  0.2324 -0.6495  0.3296
 7557TIP3    H144162   5.376   4.952  12.661  0.3509  0.6947 -1.0714
 7557TIP3    H244163   5.352   5.067  12.756  0.0573  0.9760 -1.4825
 7558TIP3   OH244164   3.865   6.288   4.582 -0.5334  0.1769  0.6828
 7558TIP3    H144165   3.839   6.229   4.653 -0.8696  0.4046  0.7520
 7558TIP3    H244166   3.932   6.344   4.621  1.2670 -1.4317  0.0697
 7559TIP3   OH244167   5.450   2.003   5.730  0.5730  0.2541  0.3286
 7559TIP3    H144168   5.501   2.076   5.693 -1.7841  0.9293 -1.9135
 7559TIP3    H244169   5.367   2.042   5.756 -0.3196 -1.4218  0.1602
 7560TIP3   OH244170   1.690   1.056   5.693 -0.6568  0.0350  0.1833
 7560TIP3    H144171   1.605   1.055   5.737 -1.2701  1.6096 -0.8644
 7560TIP3    H244172   1.687   0.981   5.633 -1.5517  0.4236 -0.2687
 7561TIP3   OH244173   5.058   4.456   3.467 -0.0711  0.2430 -0.1920
 7561TIP3    H144174   4.995   4.425   3.402  0.1461  0.8252 -0.6902
 7561TIP3    H244175   5.013   4.527   3.513 -0.5979 -0.8252  1.0050
 7562TIP3   OH244176   0.487   6.586  15.949  0.3642  0.0152 -0.4970
 7562TIP3    H144177   0.530   6.572  16.034 -1.2168  0.3080  0.3798
 7562TIP3    H244178   0.542   6.538  15.887  1.0711 -0.9523  0.8175
 7563TIP3   OH244179   2.350   0.808   4.186 -0.3485  0.3633 -0.9191
 7563TIP3    H144180   2.382   0.733   4.136  1.4276 -0.7103  1.5936
 7563TIP3    H244181   2.256   0.794   4.193 -0.1034 -1.4785 -0.8140
 7564TIP3   OH244182   2.691   4.681  14.856  0.6539 -0.0407  0.1430
 7564TIP3    H144183   2.766   4.705  14.911  0.4400  0.5658  0.1824
 7564TIP3    H244184   2.666   4.763  14.813  0.5520 -0.4206 -0.5381
 7565TIP3   OH244185   4.856   4.560   1.947 -0.1527  0.0539 -0.3972
 7565TIP3    H144186   4.831   4.479   1.903  1.0523 -0.5056 -0.0812
 7565TIP3    H244187   4.906   4.608   1.882  3.0094 -1.4633  0.6907
 7566TIP3   OH244188   0.878   4.961  11.391 -0.4647 -0.2995 -0.3770
 7566TIP3    H144189   0.853   4.898  11.324  0.7652  0.1660 -1.3265
 7566TIP3    H244190   0.829   5.040  11.369 -0.5766 -0.3517 -0.3160
 7567TIP3   OH244191   4.703   5.439   2.066 -0.4740  0.4376 -0.0214
 7567TIP3    H144192   4.623   5.463   2.114 -0.6384  0.5623 -0.3518
 7567TIP3    H244193   4.709   5.505   1.997 -0.6210 -0.1387 -0.5991
 7568TIP3   OH244194   4.700   4.591  11.789  0.0952  0.0375  0.0768
 7568TIP3    H144195   4.649   4.672  11.793  0.0377 -0.0211  0.7821
 7568TIP3    H244196   4.749   4.597  11.708  0.0937  0.7859  0.1248
 7569TIP3   OH244197   6.277   3.349   5.974  0.7342  0.1207  0.3033
 7569TIP3    H144198   6.294   3.289   5.902 -2.5541  1.5028 -1.8718
 7569TIP3    H244199   6.316   3.432   5.946  1.0602  0.2211  1.0268
 7570TIP3   OH244200   0.594   2.270   1.449  0.4692 -0.2372  0.1921
 7570TIP3    H144201   0.532   2.333   1.486  0.4876  0.1169 -0.3731
 7570TIP3    H244202   0.557   2.184   1.472 -0.1299 -0.0289  0.0356
 7571TIP3   OH244203   6.773   2.437  15.541 -0.1222  0.1529 -0.3349
 7571TIP3    H144204   6.827   2.409  15.615 -0.9260 -0.2142  0.1237
 7571TIP3    H244205   6.695   2.382  15.546 -0.4689  0.5644 -1.0842
 7572TIP3   OH244206   4.787   5.499  15.271 -0.3671  0.2651 -0.4726
 7572TIP3    H144207   4.758   5.578  15.224  0.8764  1.4844  0.7189
 7572TIP3    H244208   4.866   5.471  15.224  0.4043  1.0040  0.3430
 7573TIP3   OH244209   1.145   3.840   4.276  0.3484 -0.0340 -0.2960
 7573TIP3    H144210   1.240   3.854   4.277  0.7797 -2.2453  2.8009
 7573TIP3    H244211   1.134   3.752   4.239 -0.2742 -0.6167  1.2163
 7574TIP3   OH244212   1.185   6.476  16.035  0.4211  0.4709 -0.4678
 7574TIP3    H144213   1.246   6.541  16.072  1.6792 -0.2039 -1.2797
 7574TIP3    H244214   1.128   6.452  16.108  1.6702  0.5152  0.5580
 7575TIP3   OH244215   6.488   1.615  16.703  0.2050  0.3978  0.9096
 7575TIP3    H144216   6.414   1.572  16.661 -0.2177  2.5219 -0.6580
 7575TIP3    H244217   6.565   1.575  16.663 -0.1776  0.9978 -0.4829
 7576TIP3   OH244218   2.768   6.411  10.910  0.5465 -1.0082  0.0921
 7576TIP3    H144219   2.716   6.340  10.873 -0.1318  0.5765 -2.2186
 7576TIP3    H244220   2.766   6.480  10.844  1.6350  0.9820  1.9725
 7577TIP3   OH244221   0.606   0.803   5.615  0.6353 -0.5965 -0.6257
 7577TIP3    H144222   0.701   0.793   5.629  0.4009 -1.4134  0.5897
 7577TIP3    H244223   0.568   0.791   5.702 -0.5298  0.7387 -0.9079
 7578TIP3   OH244224   3.825   4.195  11.566  0.0906 -0.2185 -0.2718
 7578TIP3    H144225   3.735   4.226  11.554  0.6338  1.9158  0.6016
 7578TIP3    H244226   3.871   4.223  11.487  0.4084  0.6014  0.1813
 7579TIP3   OH244227   0.308   1.494   5.303 -0.8870 -0.0781 -0.6322
 7579TIP3    H144228   0.326   1.431   5.233 -0.5144  0.6955 -1.2510
 7579TIP3    H244229   0.369   1.470   5.373  0.1624  0.3718 -1.3670
 7580TIP3   OH244230   6.395   3.735   1.622 -0.5275  0.0593 -0.0692
 7580TIP3    H144231   6.441   3.651   1.624 -1.4070 -0.4370 -0.0363
 7580TIP3    H244232   6.347   3.738   1.705  0.5095  1.1980  0.5254
 7581TIP3   OH244233   1.634   0.978   1.940  0.7131 -0.0378 -0.2287
 7581TIP3    H144234   1.598   0.994   1.853 -0.9791  0.3507  0.5075
 7581TIP3    H244235   1.612   1.057   1.990  0.8977 -0.6228  0.7973
 7582TIP3   OH244236   2.386   1.725  14.121  0.0788  0.3004 -0.2642
 7582TIP3    H144237   2.327   1.715  14.047  0.0346  0.8289 -0.3053
 7582TIP3    H244238   2.343   1.679  14.193 -1.2384  2.1079  0.1721
 7583TIP3   OH244239   6.498   5.497   4.145  0.1167  0.1410  0.2011
 7583TIP3    H144240   6.424   5.463   4.094 -0.3044  2.1760 -0.6349
 7583TIP3    H244241   6.545   5.554   4.085  0.4892  1.4255  1.6417
 7584TIP3   OH244242   6.619   2.937  14.277  0.3158 -0.1210  0.0223
 7584TIP3    H144243   6.714   2.940  14.267  0.1756 -0.1856 -1.5111
 7584TIP3    H244244   6.594   2.849  14.248 -0.1408 -0.4292  1.2844
 7585TIP3   OH244245   3.078   1.938   6.009  0.2846 -0.1415  0.2562
 7585TIP3    H144246   3.093   1.953   5.916  0.1989 -1.1063  0.0696
 7585TIP3    H244247   3.165   1.926   6.046  0.3535  0.7565  0.4079
 7586TIP3   OH244248   5.787   3.494   4.520 -0.0787  0.6057  0.2834
 7586TIP3    H144249   5.775   3.557   4.449 -1.6264 -0.2521 -0.2637
 7586TIP3    H244250   5.700   3.482   4.557 -0.5410 -3.3321 -1.5503
 7587TIP3   OH244251   2.742   5.710  11.713  0.2327  0.7547 -0.6942
 7587TIP3    H144252   2.831   5.684  11.740  0.0995  1.4815  0.5528
 7587TIP3    H244253   2.756   5.781  11.650  0.5680  1.2594 -0.0782
 7588TIP3   OH244254   1.087   0.124  10.981 -0.2181  0.0248 -0.1213
 7588TIP3    H144255   0.993   0.110  10.983 -0.0547 -1.4696 -1.0936
 7588TIP3    H244256   1.110   0.121  10.888  0.6355  1.6404  0.0010
 7589TIP3   OH244257   0.614   6.442   2.220 -0.2501 -0.3360 -0.3425
 7589TIP3    H144258   0.627   6.358   2.264 -1.4410 -0.4894 -0.2343
 7589TIP3    H244259   0.543   6.483   2.269  1.4659  1.5498  0.7229
 7590TIP3   OH244260   5.755   6.192  14.236  0.0286 -0.4424  0.0456
 7590TIP3    H144261   5.751   6.111  14.185 -0.5024 -0.5567  0.2639
 7590TIP3    H244262   5.788   6.257  14.174 -1.6035 -0.3396 -0.7731
 7591TIP3   OH244263   5.547   1.578  16.998  0.5077 -0.2341  0.2904
 7591TIP3    H144264   5.479   1.531  17.047  0.1071 -0.4820 -0.4802
 7591TIP3    H244265   5.561   1.659  17.048 -0.8960  0.1749  0.0932
 7592TIP3   OH244266   6.563   4.135   3.664 -0.0421  0.5031 -0.5851
 7592TIP3    H144267   6.646   4.095   3.638 -0.2854  1.1073 -2.3658
 7592TIP3    H244268   6.525   4.072   3.726  1.5351  0.0314 -0.0488
 7593TIP3   OH244269   5.694   2.740  11.318 -0.1038 -0.6019  0.6144
 7593TIP3    H144270   5.650   2.659  11.292  1.1653 -0.8228 -1.0167
 7593TIP3    H244271   5.766   2.711  11.375  0.1840 -0.6067  0.2523
 7594TIP3   OH244272   6.087   3.302  10.447 -0.0440  0.0190  0.1972
 7594TIP3    H144273   6.007   3.355  10.445  1.3850  2.3386 -2.1986
 7594TIP3    H244274   6.064   3.222  10.399 -1.2717  0.0048  0.7541
 7595TIP3   OH244275   2.528   1.576   0.916  0.1880 -0.0707  0.0410
 7595TIP3    H144276   2.488   1.509   0.860  0.5876 -1.4177  1.3029
 7595TIP3    H244277   2.460   1.642   0.927 -1.2629 -1.6318  1.0010
 7596TIP3   OH244278   4.779   3.454  16.250 -0.3513  0.2315  0.3813
 7596TIP3    H144279   4.863   3.499  16.237 -0.3000  0.6229  1.8935
 7596TIP3    H244280   4.803   3.364  16.272 -0.3252  0.3365  0.7854
 7597TIP3   OH244281   1.602   0.263   0.378 -0.0250 -0.2836  0.8635
 7597TIP3    H144282   1.620   0.345   0.424 -0.5372  0.4166 -0.1340
 7597TIP3    H244283   1.510   0.244   0.398  0.2749 -0.9611  1.6093
 7598TIP3   OH244284   2.719   2.451   3.845 -0.6694  0.0658  0.1648
 7598TIP3    H144285   2.780   2.508   3.891  1.6437 -1.6146 -0.6136
 7598TIP3    H244286   2.711   2.374   3.901 -2.1999  0.2602  0.2737
 7599TIP3   OH244287   5.157   0.007  11.427 -0.0658 -0.2019 -0.1574
 7599TIP3    H144288   5.194   0.041  11.346 -0.1220 -2.5763 -1.2605
 7599TIP3    H244289   5.219  -0.059  11.457  0.0149  0.7097  1.8438
 7600TIP3   OH244290   0.350   4.731  14.148 -0.1521  0.1306 -0.1192
 7600TIP3    H144291   0.311   4.645  14.135 -1.2556  0.4981  0.6722
 7600TIP3    H244292   0.327   4.780  14.069  1.5568 -0.6520 -1.1617
 7601TIP3   OH244293   6.738   5.117   5.873 -0.3049  0.0668  0.2881
 7601TIP3    H144294   6.734   5.132   5.968 -3.1325 -2.4997  0.7304
 7601TIP3    H244295   6.740   5.021   5.864  0.0306  0.2424 -2.2602
 7602TIP3   OH244296   3.433   6.042  15.207 -0.4442 -0.1080 -0.1227
 7602TIP3    H144297   3.376   5.990  15.151 -1.3039  0.9507 -0.2819
 7602TIP3    H244298   3.376   6.072  15.277  0.6013 -1.3668  1.3247
 7603TIP3   OH244299   2.198   2.511  14.109 -0.5423 -0.2613 -0.2235
 7603TIP3    H144300   2.137   2.525  14.181  0.2670  1.8223  0.1199
 7603TIP3    H244301   2.280   2.483  14.151  0.3125  2.1507 -0.1339
 7604TIP3   OH244302   0.408   3.601   6.202  0.2316 -0.0848  0.1510
 7604TIP3    H144303   0.411   3.620   6.296 -2.8194  0.4320  0.2365
 7604TIP3    H244304   0.395   3.506   6.197 -1.3233  0.0947  0.3576
 7605TIP3   OH244305   6.020   3.195  11.506 -0.0147 -0.6327 -0.2094
 7605TIP3    H144306   5.974   3.113  11.488 -3.0581  1.1404 -1.2366
 7605TIP3    H244307   6.060   3.182  11.592  1.5730 -3.8946 -1.2507
 7606TIP3   OH244308   2.775   6.670   3.352  0.0059 -0.3428  0.1954
 7606TIP3    H144309   2.803   6.711   3.434  1.4866  0.0247 -0.4533
 7606TIP3    H244310   2.686   6.701   3.339 -1.0434 -2.0157  2.6640
 7607TIP3   OH244311   6.758   2.142   5.706  0.1730  0.2078  1.5473
 7607TIP3    H144312   6.848   2.131   5.737  1.0884  0.1626 -0.9221
 7607TIP3    H244313   6.755   2.232   5.674  0.1170 -0.4816 -0.5504
 7608TIP3   OH244314   2.753   6.625  12.963 -0.8155  0.0152  0.0342
 7608TIP3    H144315   2.691   6.563  12.925 -1.6379  0.7846  0.0629
 7608TIP3    H244316   2.775   6.684  12.892  0.0549 -0.3667 -0.0246
 7609TIP3   OH244317   4.692   2.248   5.215  0.0480 -0.2012  0.1633
 7609TIP3    H144318   4.700   2.313   5.146 -0.2984  1.3329  1.5009
 7609TIP3    H244319   4.727   2.167   5.177  0.5484  0.7693 -1.5238
 7610TIP3   OH244320   0.678   5.384   4.536  0.0333  0.1037 -0.3284
 7610TIP3    H144321   0.618   5.410   4.606  1.5655  0.7386  0.8039
 7610TIP3    H244322   0.677   5.288   4.539  2.0207  0.0287  2.4294
 7611TIP3   OH244323   5.607   4.196   1.134 -0.2451  0.3018  0.7976
 7611TIP3    H144324   5.678   4.259   1.121 -1.1599  1.2412  0.0813
 7611TIP3    H244325   5.543   4.218   1.066 -1.0989 -0.6888  1.2428
 7612TIP3   OH244326   1.413   5.938   5.834  0.4503 -0.2317 -0.6980
 7612TIP3    H144327   1.344   5.916   5.771 -0.7575  0.0094  0.4899
 7612TIP3    H244328   1.442   6.025   5.808 -1.3120  0.6413  0.1021
 7613TIP3   OH244329   5.456   5.989  14.073 -0.1187 -0.3536  0.1264
 7613TIP3    H144330   5.477   5.916  14.131 -2.0943 -1.3613 -0.3268
 7613TIP3    H244331   5.416   5.948  13.996 -0.6801  1.1527 -0.4310
 7614TIP3   OH244332   1.516   0.988  12.387 -0.4440 -0.1857  0.3106
 7614TIP3    H144333   1.576   0.967  12.458 -1.8458 -1.9719  1.0177
 7614TIP3    H244334   1.538   0.926  12.317 -1.6158 -1.0761  0.6956
 7615TIP3   OH244335   4.743   2.820  14.337 -0.0227 -0.1689 -0.5582
 7615TIP3    H144336   4.719   2.746  14.393 -0.0352  0.6061  0.4993
 7615TIP3    H244337   4.828   2.849  14.371 -1.0407  1.6866  0.5374
 7616TIP3   OH244338   3.245   5.218  16.057 -0.5092 -0.8603  0.1742
 7616TIP3    H144339   3.290   5.151  16.004 -1.3751 -1.7216  0.4940
 7616TIP3    H244340   3.158   5.181  16.073 -1.4732  0.9020 -0.7135
 7617TIP3   OH244341   0.362   5.936   3.536 -0.4373  0.0576  0.4752
 7617TIP3    H144342   0.287   5.996   3.537 -0.5911 -0.1328  0.7312
 7617TIP3    H244343   0.432   5.985   3.579  0.0659  0.8238 -1.1470
 7618TIP3   OH244344   1.208   4.457   0.977 -0.0245 -0.2696  0.4834
 7618TIP3    H144345   1.272   4.450   0.906  1.7890 -0.0502  2.0194
 7618TIP3    H244346   1.131   4.496   0.936  0.4214 -1.4512 -1.6508
 7619TIP3   OH244347   2.715   5.749   4.198 -0.2674 -0.2277 -0.0714
 7619TIP3    H144348   2.733   5.809   4.271 -0.0374  2.2242 -2.0472
 7619TIP3    H244349   2.782   5.681   4.208  1.8067  1.7236  0.2901
 7620TIP3   OH244350   0.790   2.646  14.824  0.2479  0.2572  0.1046
 7620TIP3    H144351   0.707   2.694  14.811 -0.4768 -0.5546  1.5395
 7620TIP3    H244352   0.846   2.708  14.869 -0.1675  0.2641  0.6218
 7621TIP3   OH244353   0.114   2.452   1.234  0.2524 -0.0733 -0.5038
 7621TIP3    H144354   0.052   2.514   1.195 -1.5475 -2.4189 -1.5865
 7621TIP3    H244355   0.160   2.414   1.160 -0.9165 -2.2346 -0.2207
 7622TIP3   OH244356   0.137   0.808   4.377  0.0632  0.2476  0.2881
 7622TIP3    H144357   0.220   0.817   4.330 -1.0431  0.6213 -1.7288
 7622TIP3    H244358   0.141   0.874   4.446  1.7599 -0.3326  0.8064
 7623TIP3   OH244359   0.348   3.424   1.296  0.4642 -0.4944 -0.5421
 7623TIP3    H144360   0.257   3.454   1.302  1.3592  2.2614  1.7195
 7623TIP3    H244361   0.348   3.337   1.335 -1.1811 -0.4592 -0.4030
 7624TIP3   OH244362   2.568   5.003   5.531 -0.0985  0.0626  0.1168
 7624TIP3    H144363   2.544   4.913   5.553  0.6291 -0.1295  0.1495
 7624TIP3    H244364   2.592   4.999   5.439 -2.8333  0.8014 -0.7201
 7625TIP3   OH244365   2.987   6.282  16.460 -0.4831 -0.3807  0.0388
 7625TIP3    H144366   3.064   6.281  16.404  1.9768  0.9345  3.1086
 7625TIP3    H244367   2.922   6.230  16.412  2.6643 -2.6508 -2.1775
 7626TIP3   OH244368   1.771   4.826  15.691  0.1158 -0.3684  0.2706
 7626TIP3    H144369   1.853   4.840  15.738  0.9048 -2.1157 -0.5334
 7626TIP3    H244370   1.709   4.887  15.732  1.8379  1.1157  0.7672
 7627TIP3   OH244371   2.708   5.516   1.946  0.0716 -0.3794 -0.1540
 7627TIP3    H144372   2.617   5.532   1.923 -0.5134 -2.7263  0.3378
 7627TIP3    H244373   2.729   5.432   1.907  1.2418 -1.0442  1.7523
 7628TIP3   OH244374   0.620   1.489  13.321  0.4793 -0.0395 -0.0523
 7628TIP3    H144375   0.617   1.584  13.337 -4.3814  0.4357 -2.0828
 7628TIP3    H244376   0.696   1.477  13.265  1.4912  2.5597  0.5897
 7629TIP3   OH244377   5.624   6.289   4.502  0.4205  0.0842 -0.2417
 7629TIP3    H144378   5.542   6.258   4.540  0.1100  1.7413  0.5594
 7629TIP3    H244379   5.691   6.269   4.567  0.9341 -2.4272 -1.4353
 7630TIP3   OH244380   0.194   6.614   5.168  0.2381 -0.1229  0.0309
 7630TIP3    H144381   0.262   6.553   5.139 -1.0815 -1.4433 -0.4313
 7630TIP3    H244382   0.158   6.651   5.088 -0.5274 -0.5381  0.1614
 7631TIP3   OH244383   3.628   6.372  11.795  0.2165 -0.3344 -0.7349
 7631TIP3    H144384   3.612   6.424  11.874 -0.3352  0.1033 -1.1276
 7631TIP3    H244385   3.723   6.362  11.791  0.2662 -0.0848 -0.1908
 7632TIP3   OH244386   4.267   3.046  15.888 -0.0315  0.1568 -0.1001
 7632TIP3    H144387   4.243   2.974  15.830  0.8305 -0.8548  0.7271
 7632TIP3    H244388   4.297   3.002  15.968  1.3360  1.4027  0.1203
 7633TIP3   OH244389   6.603   5.167  15.041 -0.0597 -0.0678 -0.1902
 7633TIP3    H144390   6.666   5.238  15.030  0.4704 -0.6902 -1.4048
 7633TIP3    H244391   6.518   5.205  15.017  0.1453  0.3005 -0.3273
 7634TIP3   OH244392   1.971   4.463  11.177  0.0401  0.0546 -0.1688
 7634TIP3    H144393   1.912   4.389  11.188  0.3313  0.0348  1.5806
 7634TIP3    H244394   2.050   4.438  11.225  0.2890  1.3286  0.1367
 7635TIP3   OH244395   1.448   5.272  13.948 -0.1292  0.1244  0.2697
 7635TIP3    H144396   1.427   5.362  13.920 -0.9605  0.3918  1.6206
 7635TIP3    H244397   1.496   5.284  14.029  0.6930 -0.6488 -0.0964
 7636TIP3   OH244398   3.314   5.988   4.465  0.1840 -0.2244 -0.0995
 7636TIP3    H144399   3.410   5.986   4.458  0.2048  0.1472  0.0791
 7636TIP3    H244400   3.293   6.081   4.477 -0.2333 -0.2447 -0.6463
 7637TIP3   OH244401   5.871   4.741   0.789  0.3599 -0.4887 -0.2993
 7637TIP3    H144402   5.796   4.681   0.789 -0.3742  0.3800  0.8158
 7637TIP3    H244403   5.849   4.805   0.856  1.9293  0.0308 -0.2602
 7638TIP3   OH244404   2.558   5.074   1.092 -0.2054  0.6045  0.2507
 7638TIP3    H144405   2.531   4.990   1.055  1.3285 -0.5646  1.6501
 7638TIP3    H244406   2.486   5.098   1.150 -0.1142 -0.4245  0.8281
 7639TIP3   OH244407   1.775   5.435  12.887  0.2459 -0.0946  0.3102
 7639TIP3    H144408   1.684   5.418  12.913  0.3249 -0.3136  0.4488
 7639TIP3    H244409   1.768   5.496  12.814 -0.0126 -0.0911  0.3366
 7640TIP3   OH244410   5.428   2.788  11.107 -0.1779 -0.2503  0.4651
 7640TIP3    H144411   5.439   2.870  11.059 -0.7849 -0.2784  0.2638
 7640TIP3    H244412   5.370   2.735  11.052  0.3571 -0.8917  0.5047
 7641TIP3   OH244413   3.888   0.267  16.673  0.1847  0.7090  0.6693
 7641TIP3    H144414   3.843   0.344  16.638  0.1447  0.1393 -0.6223
 7641TIP3    H244415   3.922   0.222  16.595  1.2656  0.0645  1.4822
 7642TIP3   OH244416   6.495   1.266  11.314  0.4457  0.1475 -0.3221
 7642TIP3    H144417   6.472   1.254  11.222 -4.0445 -0.2804  0.6005
 7642TIP3    H244418   6.481   1.180  11.354  2.7408  0.2080  0.7758
 7643TIP3   OH244419   3.746   5.590  10.873  0.2545  0.5060  0.2565
 7643TIP3    H144420   3.688   5.596  10.797  0.5456  4.7628  0.0907
 7643TIP3    H244421   3.707   5.522  10.928 -1.8333 -0.4487 -2.1786
 7644TIP3   OH244422   6.072   5.299  14.916 -0.0621 -0.6073 -0.5011
 7644TIP3    H144423   6.010   5.362  14.954  0.5588  0.8623 -1.7952
 7644TIP3    H244424   6.017   5.231  14.878 -0.7332 -1.2845  1.5156
 7645TIP3   OH244425   3.682   1.912  11.985  0.3831  0.0746 -1.5413
 7645TIP3    H144426   3.705   1.847  11.919 -1.2540 -1.2099 -0.9409
 7645TIP3    H244427   3.590   1.933  11.967  0.2852  0.6445 -0.4610
 7646TIP3   OH244428   1.186   2.906  13.689 -0.3873  0.6690  0.7113
 7646TIP3    H144429   1.253   2.873  13.629 -0.7547  0.4683  0.4035
 7646TIP3    H244430   1.122   2.950  13.633 -2.1290 -1.7797  0.5749
 7647TIP3   OH244431   3.577   3.706  11.154 -0.2199  0.0603  0.3581
 7647TIP3    H144432   3.518   3.729  11.227 -0.6970  1.7562 -0.5018
 7647TIP3    H244433   3.645   3.774  11.157 -0.2093  0.1033 -0.7401
 7648TIP3   OH244434   5.126   2.235   0.739  0.0922 -0.7063 -0.2482
 7648TIP3    H144435   5.088   2.287   0.810  2.0252 -0.2267  0.4971
 7648TIP3    H244436   5.207   2.281   0.716  0.6309 -2.0767 -1.2441
 7649TIP3   OH244437   3.752   4.248  11.061  0.5805 -0.3088 -0.0074
 7649TIP3    H144438   3.691   4.258  11.134 -1.0532 -0.7073 -1.2553
 7649TIP3    H244439   3.766   4.337  11.029  1.8212 -0.0532  1.1382
 7650TIP3   OH244440   6.423   6.470  14.549 -0.5163  0.6949  0.0652
 7650TIP3    H144441   6.459   6.551  14.583 -1.1339  0.9310  0.1804
 7650TIP3    H244442   6.333   6.468  14.582 -0.9653  0.6681 -1.1209
 7651TIP3   OH244443   1.381   5.502  14.156 -0.1284  1.2319  0.9246
 7651TIP3    H144444   1.440   5.540  14.091 -0.4960 -0.0405 -0.1876
 7651TIP3    H244445   1.435   5.491  14.234  1.0138  0.4133  0.0453
 7652TIP3   OH244446   4.114   4.259   0.872  0.2498  0.4284 -0.3413
 7652TIP3    H144447   4.031   4.298   0.897 -0.0331 -0.3284 -0.0467
 7652TIP3    H244448   4.161   4.328   0.825 -0.2918  1.0513  0.0237
 7653TIP3   OH244449   2.678   4.768  16.391 -0.0588  0.4860  0.3159
 7653TIP3    H144450   2.641   4.736  16.473  2.1892 -0.6813  0.9755
 7653TIP3    H244451   2.621   4.840  16.365 -2.6611 -1.0909  1.2300
 7654TIP3   OH244452   0.577   4.900   4.926  0.2895  0.0728 -0.1415
 7654TIP3    H144453   0.644   4.832   4.934  1.9174  1.6651  0.1170
 7654TIP3    H244454   0.519   4.867   4.857  2.0203 -0.8168 -1.2485
 7655TIP3   OH244455   2.312   3.664  11.361 -0.1187 -0.1831  0.0505
 7655TIP3    H144456   2.260   3.736  11.324  1.0043  0.4031 -0.4499
 7655TIP3    H244457   2.256   3.587  11.352 -1.2805  0.5922  0.4360
 7656TIP3   OH244458   3.939   2.070  12.566  0.1145  0.1681 -0.0670
 7656TIP3    H144459   4.002   2.125  12.520 -2.0200  1.7207 -1.3230
 7656TIP3    H244460   3.854   2.094  12.529 -1.1187 -3.0161  0.3140
 7657TIP3   OH244461   1.154   2.524   5.244  0.3629  0.1064 -0.1156
 7657TIP3    H144462   1.208   2.592   5.284  1.7293 -0.6256 -0.6585
 7657TIP3    H244463   1.156   2.544   5.150  2.3034 -1.6481 -0.5253
 7658TIP3   OH244464   0.061   6.292  14.434 -0.0710  0.5942 -0.0327
 7658TIP3    H144465   0.095   6.248  14.512  0.1162  0.1648 -0.3528
 7658TIP3    H244466   0.139   6.322  14.387 -0.1942  1.2199  0.1486
 7659TIP3   OH244467   3.898   3.243  15.630 -0.8115 -0.4801 -0.3459
 7659TIP3    H144468   3.878   3.151  15.648 -0.4923 -0.5620 -0.4111
 7659TIP3    H244469   3.993   3.248  15.631 -0.8292 -0.1195 -0.1919
 7660TIP3   OH244470   1.262   5.950   5.353 -0.4816  0.3212  0.0244
 7660TIP3    H144471   1.323   6.012   5.393  0.1312 -1.0768  1.3739
 7660TIP3    H244472   1.313   5.869   5.343 -1.7083 -0.4658 -0.1506
 7661TIP3   OH244473   0.693   5.976  12.504 -0.1914 -0.0297 -0.5531
 7661TIP3    H144474   0.729   5.948  12.587  1.0627  0.1771 -1.0075
 7661TIP3    H244475   0.598   5.977  12.518  0.0321  1.0001  1.1774
 7662TIP3   OH244476   1.635   3.654   2.798 -0.3590 -0.0578  0.1716
 7662TIP3    H144477   1.632   3.559   2.791 -1.1977 -0.1101  1.0643
 7662TIP3    H244478   1.629   3.685   2.707  0.5538 -0.8529 -0.1743
 7663TIP3   OH244479   4.631   4.627  14.415  0.2239 -0.0688  0.2377
 7663TIP3    H144480   4.716   4.616  14.456 -0.5331 -0.1210  1.8916
 7663TIP3    H244481   4.647   4.679  14.337  1.4696  1.8816  1.7233
 7664TIP3   OH244482   2.414   3.864  13.816  0.1448 -0.0035 -0.7126
 7664TIP3    H144483   2.362   3.881  13.894 -0.4787  0.1962 -1.1702
 7664TIP3    H244484   2.504   3.883  13.844  0.1815 -1.7362  0.5005
 7665TIP3   OH244485   2.200   5.360   2.706  0.1737 -0.1602 -0.0239
 7665TIP3    H144486   2.110   5.392   2.708  0.4568  0.6904 -0.4707
 7665TIP3    H244487   2.191   5.265   2.695 -0.6869  0.0998 -2.1661
 7666TIP3   OH244488   6.181   6.165   1.987  0.1554 -0.2903  0.1900
 7666TIP3    H144489   6.150   6.233   2.046 -1.9103 -1.8793  1.0999
 7666TIP3    H244490   6.166   6.083   2.035  2.0133 -1.4563 -1.0578
 7667TIP3   OH244491   0.686   1.642  16.439 -0.2281  0.0450  0.1105
 7667TIP3    H144492   0.613   1.584  16.415 -0.5778  0.5771 -0.1330
 7667TIP3    H244493   0.688   1.639  16.534 -0.2828 -0.3228  0.1015
 7668TIP3   OH244494   3.799   0.199   2.761  0.3024  0.6292 -0.3981
 7668TIP3    H144495   3.885   0.162   2.781  0.1310  0.2465 -0.3759
 7668TIP3    H244496   3.752   0.129   2.716 -0.3600  0.4825  0.4987
 7669TIP3   OH244497   3.685   6.397   4.118  0.3068 -0.5230  0.1239
 7669TIP3    H144498   3.599   6.412   4.157  0.4611  0.3542  0.1498
 7669TIP3    H244499   3.733   6.349   4.185  0.0797 -0.3416  0.4223
 7670TIP3   OH244500   0.190   4.400  17.022  0.4273  0.6118  0.4142
 7670TIP3    H144501   0.127   4.357  16.965 -0.5904  0.8472  1.3310
 7670TIP3    H244502   0.235   4.329  17.067  1.7001  0.3986 -1.1224
 7671TIP3   OH244503   2.988   2.163   5.290 -0.1749  0.2957  0.0763
 7671TIP3    H144504   2.893   2.176   5.286 -0.5289 -1.9245 -0.4872
 7671TIP3    H244505   2.999   2.070   5.270  2.1663  0.6225 -0.3749
 7672TIP3   OH244506   2.898   4.778   4.927 -0.1319 -0.0626  0.3917
 7672TIP3    H144507   2.915   4.783   4.833  2.2322  2.6229  0.8108
 7672TIP3    H244508   2.927   4.690   4.953 -0.0066 -0.5293 -1.2622
 7673TIP3   OH244509   0.522   4.711   2.817  0.1588 -0.2409  0.2459
 7673TIP3    H144510   0.475   4.634   2.851  0.6671  0.2175  2.1080
 7673TIP3    H244511   0.587   4.674   2.757 -2.3776 -0.8927 -2.2993
 7674TIP3   OH244512   4.747   3.892  14.667  0.4590  0.2761  0.0464
 7674TIP3    H144513   4.840   3.889  14.647 -0.0159  0.5723 -2.5560
 7674TIP3    H244514   4.739   3.957  14.736  2.2175 -0.1318  0.6724
 7675TIP3   OH244515   5.563   4.781  15.335  0.4176  0.2766  0.3201
 7675TIP3    H144516   5.501   4.787  15.262  0.7876  0.5043  0.0185
 7675TIP3    H244517   5.611   4.700  15.319 -1.1696 -0.9874  1.6645
 7676TIP3   OH244518   1.182   2.199   3.559  0.1268  1.0609  0.4425
 7676TIP3    H144519   1.097   2.230   3.590 -1.3729 -1.0643 -1.2105
 7676TIP3    H244520   1.167   2.176   3.467  1.7767 -1.7125  0.7341
 7677TIP3   OH244521   4.432   3.896  10.219 -0.3203  0.0998 -0.1824
 7677TIP3    H144522   4.378   3.880  10.142  1.4016  1.0654 -1.6753
 7677TIP3    H244523   4.378   3.953  10.274 -1.4281 -0.2593 -0.8493
 7678TIP3   OH244524   3.066   0.003  13.605  0.6484  0.2910 -0.4294
 7678TIP3    H144525   3.158   0.025  13.593  0.9771 -0.4581  0.6517
 7678TIP3    H244526   3.060  -0.091  13.586  0.3611  0.0550  0.7331
 7679TIP3   OH244527   3.667   3.512  15.789 -0.4733  0.0689 -0.4627
 7679TIP3    H144528   3.688   3.472  15.873 -0.2943 -0.1390 -0.6059
 7679TIP3    H244529   3.735   3.577  15.776 -1.4010  1.2429  0.3144
 7680TIP3   OH244530   1.416   6.714   3.017  0.0898  0.3678  0.4842
 7680TIP3    H144531   1.376   6.697   3.103 -0.2848 -1.3885 -0.0013
 7680TIP3    H244532   1.503   6.676   3.023 -0.6199 -1.5682 -0.4973
 7681TIP3   OH244533   2.562   6.296  12.731 -0.3808  0.3809 -0.2670
 7681TIP3    H144534   2.526   6.241  12.801  0.1448  1.8861  1.2395
 7681TIP3    H244535   2.641   6.250  12.703  1.2829  1.3535  2.5003
 7682TIP3   OH244536   2.945   3.165   1.371 -0.0648 -0.0693 -0.3070
 7682TIP3    H144537   3.002   3.111   1.316  0.2222 -0.1328  0.0496
 7682TIP3    H244538   2.901   3.103   1.429  0.2187  0.0688  0.0615
 7683TIP3   OH244539   5.782   0.281   3.274 -0.5127  0.2743  0.0287
 7683TIP3    H144540   5.749   0.335   3.202 -1.7532  1.0813  1.1429
 7683TIP3    H244541   5.722   0.206   3.276  0.6189 -0.6990 -0.8931
 7684TIP3   OH244542   5.077   0.934  15.408  0.3604 -0.4240 -0.3048
 7684TIP3    H144543   5.007   0.934  15.473  0.3949  0.5864 -0.2539
 7684TIP3    H244544   5.060   0.857  15.354 -1.3084  0.2801 -0.8434
 7685TIP3   OH244545   2.740   5.713   0.240  0.2127 -0.5305 -0.3464
 7685TIP3    H144546   2.703   5.628   0.216  1.5348 -0.8332 -1.4473
 7685TIP3    H244547   2.834   5.701   0.231  0.3675  1.5802 -2.4962
 7686TIP3   OH244548   2.885   1.510  16.613  0.1749 -0.0424  0.5002
 7686TIP3    H144549   2.931   1.567  16.551  0.3553 -1.5418 -0.8082
 7686TIP3    H244550   2.933   1.427  16.609 -3.2492 -2.1667 -1.9180
 7687TIP3   OH244551   4.140   6.546   6.114 -0.6793  0.1766  0.3493
 7687TIP3    H144552   4.136   6.452   6.096 -1.4144  0.0949  0.9177
 7687TIP3    H244553   4.082   6.559   6.189  1.8839  0.5772  2.4009
 7688TIP3   OH244554   6.614   5.838  13.251  0.3514  0.0302  0.6458
 7688TIP3    H144555   6.552   5.909  13.235  1.5430  0.8395 -0.6600
 7688TIP3    H244556   6.692   5.864  13.203  1.4030 -1.3831  1.5251
 7689TIP3   OH244557   6.843   3.328   6.037 -0.4717 -0.4013 -0.5767
 7689TIP3    H144558   6.833   3.258   6.102 -0.8318 -1.0857 -1.3485
 7689TIP3    H244559   6.788   3.399   6.069 -1.8192 -1.2808 -0.8623
 7690TIP3   OH244560   1.514   0.378   5.050  0.2776  0.0181 -0.3686
 7690TIP3    H144561   1.597   0.333   5.034 -1.4474 -3.2327 -1.0590
 7690TIP3    H244562   1.514   0.396   5.144  2.3302  1.4616 -0.5920
 7691TIP3   OH244563   3.141   2.798  11.566  0.4194 -0.1834 -0.2051
 7691TIP3    H144564   3.166   2.856  11.494 -1.8706  1.3314  0.0972
 7691TIP3    H244565   3.105   2.721  11.522  2.3732 -0.9184 -0.6155
 7692TIP3   OH244566   0.487   6.603   1.452 -0.8420  0.0283  0.2055
 7692TIP3    H144567   0.510   6.646   1.534 -2.8982 -1.2270  1.5170
 7692TIP3    H244568   0.528   6.516   1.457 -0.5327  0.1340 -0.3572
 7693TIP3   OH244569   3.934   6.386   1.877  0.1954  0.8060 -0.3286
 7693TIP3    H144570   3.892   6.468   1.851 -2.2345  0.2359  1.4139
 7693TIP3    H244571   4.020   6.412   1.911 -1.2947  3.0256  2.1433
 7694TIP3   OH244572   6.571   2.890  12.527 -0.3280  0.4244 -0.1050
 7694TIP3    H144573   6.530   2.865  12.445  0.2327  0.5266 -0.4203
 7694TIP3    H244574   6.577   2.808  12.577  0.4389  0.1272 -0.6642
 7695TIP3   OH244575   3.250   4.391   4.301 -0.1145  0.2395  0.1113
 7695TIP3    H144576   3.297   4.318   4.341 -1.9885  1.0182  4.1819
 7695TIP3    H244577   3.157   4.370   4.312 -0.7577  1.7813 -1.6458
 7696TIP3   OH244578   5.230   2.094  11.753  0.1172 -0.5837 -0.7661
 7696TIP3    H144579   5.200   2.005  11.734 -2.5187 -0.2307  1.1541
 7696TIP3    H244580   5.174   2.150  11.700  0.5074 -0.0291 -0.5960
 7697TIP3   OH244581   1.905   6.136   5.550  0.4166  0.2478 -0.6868
 7697TIP3    H144582   1.918   6.072   5.620 -0.0397  1.1538  0.2433
 7697TIP3    H244583   1.916   6.221   5.592  1.9575  0.7936 -2.1068
 7698TIP3   OH244584   5.653   5.700  16.330  0.2388 -0.0641  0.0967
 7698TIP3    H144585   5.565   5.687  16.365 -1.4369 -0.0426 -3.5708
 7698TIP3    H244586   5.693   5.613  16.332 -0.2949 -0.2996  0.7920
 7699TIP3   OH244587   3.144   1.976  12.959  0.6747  0.3463 -0.2555
 7699TIP3    H144588   3.190   1.962  12.876  0.5033  1.4336 -0.5605
 7699TIP3    H244589   3.210   2.014  13.017  1.0285 -1.2444  0.4088
 7700TIP3   OH244590   5.542   5.317   1.456  0.3611  0.5919 -0.1029
 7700TIP3    H144591   5.472   5.272   1.409  1.0370 -1.7325  0.9454
 7700TIP3    H244592   5.519   5.309   1.548  0.6691  2.2119  0.1470
 7701TIP3   OH244593   0.958   1.556  10.480  0.2071 -0.5737  0.3529
 7701TIP3    H144594   1.006   1.488  10.526  2.1129  0.1575 -0.4237
 7701TIP3    H244595   0.890   1.510  10.431 -1.1923 -1.4598  2.9583
 7702TIP3   OH244596   4.700   5.000  15.025  0.0825 -0.0348  0.2473
 7702TIP3    H144597   4.680   5.037  15.111 -1.8119  0.3539 -0.3291
 7702TIP3    H244598   4.762   5.062  14.986 -1.0535  1.1885  0.3292
 7703TIP3   OH244599   2.818   4.072   2.480 -0.4211 -0.7674 -0.2620
 7703TIP3    H144600   2.863   4.120   2.549 -0.8058 -0.2256 -0.3880
 7703TIP3    H244601   2.747   4.129   2.452  0.9173 -0.0556 -2.5068
 7704TIP3   OH244602   3.955   0.403  14.013  0.1850  0.1744 -0.0254
 7704TIP3    H144603   3.926   0.390  14.103 -0.7579  0.6919 -0.2386
 7704TIP3    H244604   4.016   0.477  14.018  0.4763 -0.0791  0.2426
 7705TIP3   OH244605   5.171   1.889  16.059  0.8739 -0.0416  0.3113
 7705TIP3    H144606   5.263   1.880  16.034  1.2298  0.4538  1.3879
 7705TIP3    H244607   5.132   1.805  16.036  1.7581 -0.5039  0.4447
 7706TIP3   OH244608   5.383   3.657  13.427 -0.1812  0.1747 -0.0672
 7706TIP3    H144609   5.321   3.650  13.500 -1.8728  1.9642 -1.2348
 7706TIP3    H244610   5.418   3.746  13.435  1.3329 -0.3901 -0.1614
 7707TIP3   OH244611   3.407   0.866  14.471 -0.1853  0.1902  0.3635
 7707TIP3    H144612   3.343   0.874  14.400 -0.2470 -0.9327  0.2671
 7707TIP3    H244613   3.369   0.916  14.543 -0.3455  0.9497 -0.2435
 7708TIP3   OH244614   5.427   6.145   4.907  0.2109  0.0830  0.2439
 7708TIP3    H144615   5.383   6.060   4.909 -1.1385  0.7293 -0.8307
 7708TIP3    H244616   5.427   6.170   4.814  1.6583  0.7367  0.3850
 7709TIP3   OH244617   0.530   0.780  11.878 -0.0521 -0.3389  0.2092
 7709TIP3    H144618   0.528   0.811  11.969 -1.4395 -1.5162  0.6152
 7709TIP3    H244619   0.579   0.697  11.883 -2.0819 -1.5962  0.3371
 7710TIP3   OH244620   5.261   1.282  12.393 -0.3916 -0.1599 -0.4114
 7710TIP3    H144621   5.205   1.205  12.399 -2.8946  1.3787 -2.0058
 7710TIP3    H244622   5.262   1.318  12.481  0.2781 -1.5902  0.2060
 7711TIP3   OH244623   6.358   2.739  13.052  0.0031  0.3643  0.1148
 7711TIP3    H144624   6.272   2.706  13.081  0.1013  1.5832  1.9650
 7711TIP3    H244625   6.421   2.678  13.091  0.0220 -0.4664 -1.1529
 7712TIP3   OH244626   4.426   1.154   4.205 -0.2566  0.3515 -0.1328
 7712TIP3    H144627   4.474   1.234   4.224 -0.0026  0.0392  0.5814
 7712TIP3    H244628   4.493   1.085   4.208 -0.5834  0.0355 -0.0994
 7713TIP3   OH244629   5.741   5.477   5.451  0.2498 -0.0232 -0.2415
 7713TIP3    H144630   5.751   5.410   5.384  1.7772 -0.4700  0.3807
 7713TIP3    H244631   5.669   5.532   5.420  0.6255 -0.4697 -2.0032
 7714TIP3   OH244632   4.205   5.785  14.223 -0.0220  0.0131  0.2873
 7714TIP3    H144633   4.285   5.832  14.247 -0.0535 -0.3669  1.1807
 7714TIP3    H244634   4.179   5.740  14.303  1.4082 -3.6462 -1.1068
 7715TIP3   OH244635   6.771   4.378   3.001 -0.7701 -0.3513 -0.0492
 7715TIP3    H144636   6.838   4.310   2.997 -0.4008  0.0349 -0.8001
 7715TIP3    H244637   6.783   4.418   3.087 -1.1709 -1.4032  0.5027
 7716TIP3   OH244638   6.466   3.838   5.243  0.1772  0.0866  0.1064
 7716TIP3    H144639   6.554   3.836   5.206 -0.3486 -0.5652 -1.1822
 7716TIP3    H244640   6.460   3.758   5.296  0.8482  0.8978  1.4549
 7717TIP3   OH244641   1.309   5.997   1.796  0.5780  0.5430  0.4541
 7717TIP3    H144642   1.268   6.069   1.845  1.3967  0.3556  1.4558
 7717TIP3    H244643   1.390   5.978   1.845  0.3075 -1.1588  0.3025
 7718TIP3   OH244644   6.567   0.168   0.272  0.4020 -0.4502 -0.2672
 7718TIP3    H144645   6.605   0.081   0.286  3.4348  0.7371 -0.3305
 7718TIP3    H244646   6.550   0.202   0.359 -3.1371 -1.8832 -0.2235
 7719TIP3   OH244647   1.249   4.067   3.031 -0.3475 -0.0405 -0.0154
 7719TIP3    H144648   1.160   4.048   3.002 -0.0437 -2.4248  0.4334
 7719TIP3    H244649   1.240   4.095   3.122 -0.5281 -2.5653  0.8112
 7720TIP3   OH244650   3.390   2.086   5.331 -0.4480 -0.2806  0.3694
 7720TIP3    H144651   3.344   2.163   5.298 -1.3747  0.2721  2.7340
 7720TIP3    H244652   3.474   2.087   5.284 -0.8412  1.5862 -0.4062
 7721TIP3   OH244653   0.754   5.444   1.114  0.0337  0.6426  0.3985
 7721TIP3    H144654   0.722   5.433   1.204 -0.3927  0.4441  0.2306
 7721TIP3    H244655   0.716   5.527   1.086 -0.6887  0.2062  0.0582
 7722TIP3   OH244656   5.503   3.662  11.423  0.2247  0.5365 -0.3841
 7722TIP3    H144657   5.439   3.732  11.436  0.0634  0.4339 -0.6146
 7722TIP3    H244658   5.496   3.639  11.330 -0.0679 -0.1104 -0.2131
 7723TIP3   OH244659   5.867   5.725   1.601 -0.2081 -0.4907  0.2593
 7723TIP3    H144660   5.831   5.649   1.555 -1.8598  0.2821  0.2016
 7723TIP3    H244661   5.872   5.793   1.534  1.5275 -0.5841  0.2466
 7724TIP3   OH244662   2.215   3.744  12.208  0.1490  0.3557 -0.4004
 7724TIP3    H144663   2.179   3.665  12.167  0.9289 -0.6121  0.7336
 7724TIP3    H244664   2.208   3.811  12.140 -1.4022 -0.4310 -1.0794
 7725TIP3   OH244665   3.741   3.601   3.514 -0.2457  0.5038 -0.0133
 7725TIP3    H144666   3.818   3.654   3.537  0.2579 -0.8606  1.5975
 7725TIP3    H244667   3.768   3.552   3.436  0.4873  0.1256  0.4712
 7726TIP3   OH244668   1.412   0.529   4.563  0.1248 -0.2122 -0.3681
 7726TIP3    H144669   1.378   0.553   4.476 -0.1940  1.2682  0.1467
 7726TIP3    H244670   1.337   0.537   4.621  1.1048  2.5206  0.6805
 7727TIP3   OH244671   0.779   1.139  11.395  0.3364  0.0561 -0.5979
 7727TIP3    H144672   0.747   1.216  11.349 -0.8109 -0.2157 -0.2960
 7727TIP3    H244673   0.859   1.168  11.439 -1.7721  2.0904  2.3074
 7728TIP3   OH244674   5.697   0.783  11.242  0.4022  0.4879 -0.2965
 7728TIP3    H144675   5.634   0.790  11.314  1.7045  1.7407  0.7682
 7728TIP3    H244676   5.644   0.801  11.164 -0.5912  1.4273  0.5542
 7729TIP3   OH244677   6.584   5.381  15.264  0.2151 -0.1561  0.3920
 7729TIP3    H144678   6.499   5.419  15.242 -0.3089 -0.5299  1.7020
 7729TIP3    H244679   6.564   5.294  15.298  0.9818  0.2635  2.0244
 7730TIP3   OH244680   6.742   1.806  16.701  0.8009  0.2531 -0.0915
 7730TIP3    H144681   6.777   1.894  16.691 -1.3981  1.5046  2.2737
 7730TIP3    H244682   6.748   1.768  16.613  2.0799  2.6124 -1.1185
 7731TIP3   OH244683   0.721   5.597   1.817  0.1023 -0.6634  0.1570
 7731TIP3    H144684   0.724   5.665   1.750  2.3376 -1.2936 -0.4841
 7731TIP3    H244685   0.799   5.544   1.800 -1.0535 -2.8201  1.2279
 7732TIP3   OH244686   2.056   0.355  17.108 -0.1902  0.0589 -0.0978
 7732TIP3    H144687   2.150   0.362  17.088  0.1067 -1.5050  0.6553
 7732TIP3    H244688   2.028   0.445  17.122  1.1526  0.5693 -0.5481
 7733TIP3   OH244689   6.059   4.784  11.374  0.0673 -0.1075  0.4201
 7733TIP3    H144690   6.129   4.751  11.318 -0.8791 -0.0944 -0.8154
 7733TIP3    H244691   6.083   4.756  11.462 -0.3237 -3.5729 -0.4317
 7734TIP3   OH244692   4.147   0.325   4.135 -0.6372  0.3561 -0.4553
 7734TIP3    H144693   4.146   0.236   4.173  0.4600  0.5220  0.0000
 7734TIP3    H244694   4.125   0.382   4.209 -2.8579  0.3932 -1.0715
 7735TIP3   OH244695   4.253   2.351  14.125 -0.1345  0.2114 -0.0790
 7735TIP3    H144696   4.326   2.290  14.112 -0.3396 -0.3244  1.1252
 7735TIP3    H244697   4.277   2.401  14.204 -0.6273  0.7069 -0.2342
 7736TIP3   OH244698   5.708   0.316   5.535  0.7259 -0.8775  0.1964
 7736TIP3    H144699   5.778   0.379   5.516 -0.4248  0.4406  0.1428
 7736TIP3    H244700   5.692   0.326   5.629  0.6415 -1.2071  0.2169
 7737TIP3   OH244701   2.241   2.543   3.701 -0.4745 -0.9954 -0.2389
 7737TIP3    H144702   2.283   2.603   3.762  0.6609 -2.4581  0.4991
 7737TIP3    H244703   2.229   2.594   3.621  0.2969  0.2464  0.4043
 7738TIP3   OH244704   2.306   1.870   1.276  0.4408 -0.0321 -0.4239
 7738TIP3    H144705   2.284   1.944   1.332 -0.0016 -0.2668 -0.2849
 7738TIP3    H244706   2.236   1.867   1.211  0.8863  0.1622 -0.9165
 7739TIP3   OH244707   3.663   3.924   1.779 -0.1692  0.3330 -0.3600
 7739TIP3    H144708   3.749   3.888   1.799  0.1197  0.5644 -1.1397
 7739TIP3    H244709   3.601   3.858   1.810  0.3010 -0.0128 -0.1545
 7740TIP3   OH244710   5.697   5.088   1.279  0.6331  0.6596  0.1324
 7740TIP3    H144711   5.603   5.101   1.273  0.1385 -0.6885  2.9299
 7740TIP3    H244712   5.735   5.157   1.225 -1.9232  1.0354 -1.3361
 7741TIP3   OH244713   0.023   2.824   5.794 -0.1628 -0.1350 -0.0111
 7741TIP3    H144714   0.112   2.811   5.825  0.1570 -0.3382 -0.9604
 7741TIP3    H244715  -0.015   2.736   5.793  0.2804 -0.3433 -1.4406
 7742TIP3   OH244716   2.619   5.011  15.430  0.0609 -0.2525  0.4231
 7742TIP3    H144717   2.596   4.940  15.371  2.2710 -0.3032 -0.4649
 7742TIP3    H244718   2.536   5.053  15.450 -0.8662 -0.5957 -2.2711
 7743TIP3   OH244719   6.004   0.071   5.705  0.5213  0.1277 -0.3627
 7743TIP3    H144720   6.053   0.029   5.776  2.1879 -0.2547 -1.6814
 7743TIP3    H244721   5.912   0.057   5.728  1.0201 -0.7171  1.2755
 7744TIP3   OH244722   1.720   0.740   2.575  0.3505 -0.0112 -0.2536
 7744TIP3    H144723   1.800   0.730   2.627  0.2474  1.2400  0.1784
 7744TIP3    H244724   1.745   0.801   2.505 -0.1784  0.2578 -0.2082
 7745TIP3   OH244725   6.772   5.329   1.136 -0.1934 -0.6316  0.1844
 7745TIP3    H144726   6.719   5.294   1.207 -0.2127 -0.8798  0.0487
 7745TIP3    H244727   6.862   5.323   1.167 -0.1665 -1.1538  0.0130
 7746TIP3   OH244728   4.862   6.347  11.226 -0.3313  0.7419 -0.6080
 7746TIP3    H144729   4.931   6.390  11.175  0.0741  0.2614 -0.4781
 7746TIP3    H244730   4.867   6.389  11.312  0.1787  0.3373 -0.4286
 7747TIP3   OH244731   0.855   2.841  11.966 -0.5758  0.7375 -0.4336
 7747TIP3    H144732   0.771   2.865  12.005 -0.0187  0.4916  0.9816
 7747TIP3    H244733   0.858   2.745  11.972  0.1061  0.7851  0.2210
 7748TIP3   OH244734   2.538   6.471  12.516  0.0621  0.2026  0.6544
 7748TIP3    H144735   2.592   6.550  12.522  1.6000 -0.6554 -1.0077
 7748TIP3    H244736   2.590   6.403  12.559 -1.1424 -0.0004  1.8499
 7749TIP3   OH244737   5.473   6.374   4.259 -0.2952 -0.2588 -0.2231
 7749TIP3    H144738   5.542   6.342   4.319  0.1134  0.6475 -0.1955
 7749TIP3    H244739   5.489   6.327   4.177  0.8475  0.5061 -0.4555
 7750TIP3   OH244740   4.921   5.255  11.398 -0.7074  0.1672 -0.0482
 7750TIP3    H144741   4.978   5.291  11.466  0.1740  2.2788 -1.8070
 7750TIP3    H244742   4.972   5.183  11.360 -0.4865  0.1239  0.3159
 7751TIP3   OH244743   1.303   3.907   2.186  0.1140 -0.1924  0.2862
 7751TIP3    H144744   1.273   3.826   2.146 -3.0162  1.8715 -1.9836
 7751TIP3    H244745   1.281   3.898   2.279  0.5565 -2.1753  0.2425
 7752TIP3   OH244746   1.882   0.104  15.020 -0.2585 -0.3315  0.4027
 7752TIP3    H144747   1.871   0.186  15.067  0.7112  0.0458  0.0077
 7752TIP3    H244748   1.948   0.123  14.953  0.3980 -1.5559  0.6510
 7753TIP3   OH244749   5.948   2.931  17.061 -0.3057 -0.4300 -0.2652
 7753TIP3    H144750   5.930   2.924  16.968 -1.3644 -0.7264 -0.0524
 7753TIP3    H244751   5.981   3.020  17.073 -0.4107 -0.3061 -0.8865
 7754TIP3   OH244752   3.741   3.024   0.194 -0.0985 -0.5021  0.2073
 7754TIP3    H144753   3.810   2.981   0.244  0.4108  1.1723  1.0169
 7754TIP3    H244754   3.665   3.023   0.253 -0.8272 -2.2851 -0.6572
 7755TIP3   OH244755   6.277   6.288  15.410  0.2969 -0.3526 -0.3637
 7755TIP3    H144756   6.362   6.320  15.377  0.4354 -1.4190 -1.0936
 7755TIP3    H244757   6.300   6.227  15.480  0.1204 -0.2931 -0.2548
 7756TIP3   OH244758   6.508   1.753  11.110  0.0730 -0.4116  0.1566
 7756TIP3    H144759   6.589   1.739  11.158  1.0902  1.0383 -1.0685
 7756TIP3    H244760   6.446   1.693  11.151  1.6546 -1.3179  1.3390
 7757TIP3   OH244761   1.201   4.523  15.485 -0.3645  0.2377 -0.2016
 7757TIP3    H144762   1.154   4.541  15.567 -1.1711 -0.4538 -0.4987
 7757TIP3    H244763   1.257   4.448  15.506 -0.1746  0.3990 -0.1340
 7758TIP3   OH244764   1.750   6.830   5.693  0.3074  0.2591 -1.0650
 7758TIP3    H144765   1.730   6.747   5.736  0.1135  0.8856  0.1037
 7758TIP3    H244766   1.825   6.811   5.636 -1.3829 -1.3244 -2.8909
 7759TIP3   OH244767   3.037   6.592  13.511 -0.2449  0.2813 -0.1053
 7759TIP3    H144768   3.042   6.537  13.433 -0.3285 -0.3440  0.3235
 7759TIP3    H244769   2.974   6.547  13.568 -0.0614  0.6423  0.3922
 7760TIP3   OH244770   5.419   1.034   2.388  0.3836 -0.8587 -0.8611
 7760TIP3    H144771   5.484   1.034   2.318  1.4071  0.1011  0.0512
 7760TIP3    H244772   5.387   0.944   2.391  1.4311 -1.2706 -1.5562
 7761TIP3   OH244773   5.996   5.399  16.793 -0.0746 -0.3108 -0.1446
 7761TIP3    H144774   6.066   5.359  16.844 -1.5421 -0.3413  1.9742
 7761TIP3    H244775   6.028   5.487  16.772  0.8914 -0.5934  0.1246
 7762TIP3   OH244776   0.564   1.476  15.384 -0.7835  0.5253 -0.3835
 7762TIP3    H144777   0.586   1.560  15.343 -0.2058  0.4066 -0.3261
 7762TIP3    H244778   0.620   1.472  15.461 -1.4341  0.4716  0.0996
 7763TIP3   OH244779   4.739   0.492   2.827 -0.1766 -0.0293 -0.4120
 7763TIP3    H144780   4.783   0.407   2.825 -1.2534 -0.5997 -0.7236
 7763TIP3    H244781   4.715   0.504   2.919 -1.7158 -1.0019 -0.6360
 7764TIP3   OH244782   0.071   3.101  14.761 -0.3845  0.5761 -0.7389
 7764TIP3    H144783   0.158   3.126  14.791  0.0410 -2.8979  1.3771
 7764TIP3    H244784   0.085   3.025  14.704 -1.9981  0.2100 -0.7019
 7765TIP3   OH244785   6.349   3.907   2.937 -0.2616  0.1872  0.1095
 7765TIP3    H144786   6.420   3.908   2.873  0.7404 -3.1854  0.9910
 7765TIP3    H244787   6.328   3.815   2.949 -3.7157  0.9531  1.1569
 7766TIP3   OH244788   5.622   3.789  13.936 -0.3635  0.3351  0.3185
 7766TIP3    H144789   5.671   3.763  14.014  1.0927  1.8612 -0.0458
 7766TIP3    H244790   5.537   3.818  13.970  0.0958  0.5813  1.2913
 7767TIP3   OH244791   4.663   2.306  15.784 -0.4593 -0.3985  0.6081
 7767TIP3    H144792   4.634   2.308  15.876  1.3172 -1.9306  1.2625
 7767TIP3    H244793   4.692   2.396  15.767  0.7685 -0.4495  2.1395
 7768TIP3   OH244794   2.322   1.239   0.014  0.2701  0.2999  0.1314
 7768TIP3    H144795   2.323   1.145   0.033  1.8585  0.4283  0.8365
 7768TIP3    H244796   2.386   1.276   0.075 -0.5015  1.8770  0.0128
 7769TIP3   OH244797   5.274   3.522   4.556  0.0616 -0.3658  0.6583
 7769TIP3    H144798   5.259   3.615   4.542  1.3405 -0.2939 -0.3763
 7769TIP3    H244799   5.224   3.479   4.486  0.3148 -0.3929  0.4918
 7770TIP3   OH244800   1.648   2.466   6.245 -0.6528 -0.7748  0.3621
 7770TIP3    H144801   1.706   2.408   6.195 -2.9326 -1.0383 -2.2049
 7770TIP3    H244802   1.702   2.542   6.266  0.3799 -0.4256 -3.0205
 7771TIP3   OH244803   3.949   1.629  14.071 -0.4197  0.1399 -0.3917
 7771TIP3    H144804   4.038   1.636  14.105 -0.5071  1.8871 -0.4006
 7771TIP3    H244805   3.950   1.680  13.990 -1.0715 -1.0644 -1.1804
 7772TIP3   OH244806   2.445   3.388  11.801  0.4280  0.4291  0.7951
 7772TIP3    H144807   2.381   3.402  11.732  1.7820 -0.4658 -0.6938
 7772TIP3    H244808   2.463   3.294  11.799  3.3193  0.9010 -0.3218
 7773TIP3   OH244809   5.396   2.027   4.972  0.8891 -0.0351  0.3410
 7773TIP3    H144810   5.451   2.096   5.008  1.7738  0.0519 -1.0975
 7773TIP3    H244811   5.428   1.946   5.013  0.3409  0.3070  1.4661
 7774TIP3   OH244812   6.163   5.444   1.811  0.4061  0.1356 -0.6268
 7774TIP3    H144813   6.150   5.416   1.902  1.9698  0.1987 -0.3532
 7774TIP3    H244814   6.203   5.368   1.768 -0.4384  0.0592 -1.3184
 7775TIP3   OH244815   2.354   2.504  15.078 -0.0224 -0.5697  0.8237
 7775TIP3    H144816   2.358   2.476  14.987 -0.8559 -0.1734  0.6570
 7775TIP3    H244817   2.288   2.573  15.079 -0.1846 -0.7256  1.7660
 7776TIP3   OH244818   0.173   3.218  11.367 -0.0184 -0.5705  0.0649
 7776TIP3    H144819   0.125   3.168  11.300 -3.3252 -0.3999  2.0964
 7776TIP3    H244820   0.167   3.309  11.338 -0.7658 -0.5806  0.1571
 7777TIP3   OH244821   6.652   4.775  13.935  0.1001 -0.3908  0.3270
 7777TIP3    H144822   6.731   4.815  13.898 -0.4437  0.8591  0.4637
 7777TIP3    H244823   6.607   4.847  13.979 -0.6387 -1.2881  1.0783
 7778TIP3   OH244824   3.197   1.904  12.216 -0.1910 -0.0911 -0.2579
 7778TIP3    H144825   3.119   1.861  12.180 -0.7636 -0.2085  1.0671
 7778TIP3    H244826   3.246   1.832  12.258 -0.3788  0.2909  0.6333
 7779TIP3   OH244827   5.578   2.762  14.571 -0.4218 -0.6266 -0.5882
 7779TIP3    H144828   5.636   2.687  14.582  0.9832  0.4043 -0.7738
 7779TIP3    H244829   5.551   2.784  14.660 -1.6406 -1.9224 -0.6009
 7780TIP3   OH244830   6.685   5.428   4.838  1.0609  0.3693  0.4689
 7780TIP3    H144831   6.611   5.489   4.844 -0.2459 -1.0302 -0.5642
 7780TIP3    H244832   6.743   5.467   4.773  0.4097  0.6836  0.0651
 7781TIP3   OH244833   0.136   0.580  11.103  0.2891 -0.1186  0.3607
 7781TIP3    H144834   0.142   0.599  11.010  0.6162 -1.7112  0.0215
 7781TIP3    H244835   0.172   0.491  11.112 -0.4497 -0.3037  1.8924
 7782TIP3   OH244836   2.695   5.345  15.445 -0.3741 -0.3292 -0.6012
 7782TIP3    H144837   2.749   5.270  15.471 -0.1535 -0.1010 -0.4018
 7782TIP3    H244838   2.637   5.359  15.520 -1.2561 -1.0673 -1.1218
 7783TIP3   OH244839   1.506   5.425   0.702  0.1019 -0.2385 -0.5660
 7783TIP3    H144840   1.585   5.453   0.656 -0.2152  0.0764 -0.9152
 7783TIP3    H244841   1.530   5.340   0.741  1.0900  0.5090  0.5484
 7784TIP3   OH244842   3.313   3.445   1.058  0.4206 -0.4875 -0.1787
 7784TIP3    H144843   3.311   3.360   1.101 -0.6200 -0.5227 -0.2854
 7784TIP3    H244844   3.221   3.469   1.046  0.6936  0.1110 -1.2260
 7785TIP3   OH244845   3.322   0.690  12.851 -0.4872  0.3722 -0.5656
 7785TIP3    H144846   3.248   0.666  12.906  0.2367  0.7916  0.6365
 7785TIP3    H244847   3.336   0.613  12.795 -0.3571 -0.6688  0.8409
 7786TIP3   OH244848   1.036   1.527  14.602 -0.5420 -0.1153 -0.1336
 7786TIP3    H144849   1.050   1.605  14.655 -0.6815 -0.3666  0.2749
 7786TIP3    H244850   0.941   1.519  14.595 -0.5777 -1.0939  1.1053
 7787TIP3   OH244851   3.096   1.628   0.292  0.6110  0.9015 -0.6349
 7787TIP3    H144852   3.177   1.661   0.331  1.1186  0.2547 -1.1190
 7787TIP3    H244853   3.116   1.617   0.199  0.6441 -1.2489 -0.4169
 7788TIP3   OH244854   0.447   5.201  11.478 -0.1610 -0.6862  0.0012
 7788TIP3    H144855   0.443   5.129  11.541  1.6803 -0.4475  0.4479
 7788TIP3    H244856   0.488   5.162  11.401 -0.5357 -0.4677 -0.3121
 7789TIP3   OH244857   3.872   1.030  13.377  0.3221  0.3597 -0.1886
 7789TIP3    H144858   3.941   0.966  13.361 -0.4297 -0.0348 -2.0589
 7789TIP3    H244859   3.900   1.108  13.328 -0.9793 -0.1304 -1.7934
 7790TIP3   OH244860   4.289   4.552   3.509  0.2436  0.1363 -0.5651
 7790TIP3    H144861   4.321   4.463   3.494  0.5559  0.3005 -0.9049
 7790TIP3    H244862   4.300   4.596   3.424 -0.2043  0.4072 -0.4828
 7791TIP3   OH244863   6.197   2.902   1.965  0.2316  0.3962  0.0179
 7791TIP3    H144864   6.248   2.942   2.035  0.2348  0.0967  0.1872
 7791TIP3    H244865   6.247   2.825   1.940 -0.2234 -0.0046  0.3151
 7792TIP3   OH244866   2.391   2.895   4.117 -0.5781  0.3441 -0.4750
 7792TIP3    H144867   2.436   2.901   4.201 -1.4773 -0.0201  0.0520
 7792TIP3    H244868   2.460   2.896   4.052  0.1210  1.0004  0.2530
 7793TIP3   OH244869   1.027   6.740  16.814 -0.0359  0.0012  0.0554
 7793TIP3    H144870   1.021   6.770  16.724 -2.1735 -1.4365 -0.3759
 7793TIP3    H244871   1.032   6.820  16.866  0.5813  0.8739 -1.2958
 7794TIP3   OH244872   1.691   1.752   3.742  0.4051 -0.1813 -0.3657
 7794TIP3    H144873   1.644   1.784   3.819 -1.5048 -0.3816 -1.4053
 7794TIP3    H244874   1.655   1.665   3.727  0.2814  0.1153 -1.8814
 7795TIP3   OH244875   1.885   6.430  11.042  0.1647 -0.3106  0.4597
 7795TIP3    H144876   1.864   6.346  11.083  2.1313 -1.1008 -0.0845
 7795TIP3    H244877   1.946   6.408  10.972 -0.9519  1.3475 -1.1051
 7796TIP3   OH244878   4.515   4.812   3.830 -0.1405 -0.4981  0.2413
 7796TIP3    H144879   4.450   4.755   3.789 -0.8900 -0.4672  1.3330
 7796TIP3    H244880   4.493   4.809   3.924 -0.7980  2.2544  0.2658
 7797TIP3   OH244881   3.506   6.006   5.507 -0.1169 -0.4284  0.6501
 7797TIP3    H144882   3.477   5.946   5.576  0.1382 -1.3078  0.0070
 7797TIP3    H244883   3.432   6.065   5.494 -0.1410 -0.1963  1.7267
 7798TIP3   OH244884   1.748   3.403   6.183  0.0705 -0.6429  0.4073
 7798TIP3    H144885   1.724   3.311   6.197 -2.0336 -0.1758  0.2266
 7798TIP3    H244886   1.714   3.423   6.095  0.1039  0.4307  0.6310
 7799TIP3   OH244887   6.312   1.889   1.709 -0.5406 -0.0995 -0.0615
 7799TIP3    H144888   6.362   1.953   1.759  0.3663  0.4735 -1.6145
 7799TIP3    H244889   6.263   1.941   1.645 -1.8183 -0.7835  0.3338
 7800TIP3   OH244890   6.481   6.437   2.541  0.1697 -0.0305 -0.4439
 7800TIP3    H144891   6.505   6.345   2.531  2.2426  0.5536 -1.4656
 7800TIP3    H244892   6.464   6.467   2.452  0.6827  0.8355 -0.2609
 7801TIP3   OH244893   0.214   1.187  11.605  0.2887 -0.2396 -0.4027
 7801TIP3    H144894   0.249   1.269  11.570  2.1165 -1.4378 -1.5628
 7801TIP3    H244895   0.155   1.154  11.537 -0.9107  0.3565  0.3135
 7802TIP3   OH244896   3.711   4.134  16.082  0.3378 -0.0847  0.1470
 7802TIP3    H144897   3.671   4.191  16.015 -0.5819  0.2764  0.9716
 7802TIP3    H244898   3.783   4.090  16.036  0.2873  0.8150 -0.8403
 7803TIP3   OH244899   3.472   5.578   1.184  0.1612  0.0735 -0.2104
 7803TIP3    H144900   3.396   5.614   1.229  1.1178  0.3777  1.2236
 7803TIP3    H244901   3.535   5.650   1.180  1.7602 -1.0805  1.9123
 7804TIP3   OH244902   5.652   3.901   2.323  0.3544 -0.2136  0.0667
 7804TIP3    H144903   5.616   3.840   2.258 -0.8039  0.0271  0.4577
 7804TIP3    H244904   5.580   3.914   2.385  1.0032  0.6037  0.6584
 7805TIP3   OH244905   0.920   2.480   3.795 -0.4627  0.4541  0.1855
 7805TIP3    H144906   0.913   2.576   3.794 -1.5291  0.3989  1.1905
 7805TIP3    H244907   1.009   2.463   3.764 -0.4969  1.7376 -0.7104
 7806TIP3   OH244908   1.147   6.675  16.340 -0.4725 -0.1551 -0.3245
 7806TIP3    H144909   1.098   6.605  16.295  2.4004 -1.9024 -1.0406
 7806TIP3    H244910   1.103   6.684  16.424 -1.4401 -2.3245 -0.5030
 7807TIP3   OH244911   4.928   0.249  12.517  0.1257 -0.2981 -0.5412
 7807TIP3    H144912   4.865   0.178  12.527 -0.2661  0.0380 -0.5562
 7807TIP3    H244913   4.952   0.247  12.424 -0.1021 -0.2355 -0.6030
 7808TIP3   OH244914   0.781   1.668   1.390  0.3750 -0.4998  0.1460
 7808TIP3    H144915   0.864   1.683   1.344 -1.5411  0.3207 -3.4342
 7808TIP3    H244916   0.763   1.575   1.375  1.2969 -1.1241  2.3854
 7809TIP3   OH244917   5.407   2.442   5.214  0.1573  0.3859 -0.6648
 7809TIP3    H144918   5.460   2.389   5.273  0.2664  0.0263 -1.0809
 7809TIP3    H244919   5.464   2.460   5.139 -0.2246  0.1982 -1.0067
 7810TIP3   OH244920   6.245   0.437  12.414 -0.1301  0.3323 -0.1943
 7810TIP3    H144921   6.250   0.497  12.340  0.8221  0.7906  0.2216
 7810TIP3    H244922   6.151   0.428  12.431 -0.3242  0.8611 -0.9419
 7811TIP3   OH244923   6.787   6.759   2.587 -0.1631 -0.8455  0.2795
 7811TIP3    H144924   6.798   6.710   2.505  2.8477 -0.7287  0.5022
 7811TIP3    H244925   6.726   6.829   2.565 -0.3528 -1.5317 -1.5500
 7812TIP3   OH244926   6.763   0.557  11.776  0.2656  0.6481 -0.2224
 7812TIP3    H144927   6.743   0.648  11.795 -0.1052  0.6565 -0.6482
 7812TIP3    H244928   6.733   0.544  11.686  0.1430  0.0538 -0.0964
 7813TIP3   OH244929   5.613   6.626  13.270  0.0345  0.1995  0.3204
 7813TIP3    H144930   5.627   6.711  13.311  2.2131  0.3995 -0.6934
 7813TIP3    H244931   5.572   6.646  13.186 -3.5232 -0.1465  1.7929
 7814TIP3   OH244932   4.879   3.451   4.683 -0.1523  0.1011  0.1506
 7814TIP3    H144933   4.804   3.460   4.741  1.1095  0.2078  1.8482
 7814TIP3    H244934   4.904   3.359   4.688  1.6767  0.6360  2.1026
 7815TIP3   OH244935   6.624   1.808   4.921 -0.0811  0.6369 -0.0560
 7815TIP3    H144936   6.710   1.826   4.883 -0.7926 -0.9902 -2.6857
 7815TIP3    H244937   6.638   1.736   4.981 -0.0276 -2.4336 -3.4208
 7816TIP3   OH244938   5.158   5.226  11.675 -0.0598 -0.6485  0.0079
 7816TIP3    H144939   5.108   5.262  11.748 -0.9326 -2.8273  0.5632
 7816TIP3    H244940   5.116   5.142  11.656  2.0966 -1.5933 -0.9111
 7817TIP3   OH244941   0.820   6.438  17.151  0.3064 -0.3521  0.0545
 7817TIP3    H144942   0.819   6.392  17.068 -0.9420 -1.6288  0.7340
 7817TIP3    H244943   0.793   6.527  17.130 -2.1890 -1.2118 -0.6470
 7818TIP3   OH244944   0.456   1.669   4.890 -0.0120 -0.3993  0.4007
 7818TIP3    H144945   0.380   1.653   4.834  0.9201 -0.0351 -1.0219
 7818TIP3    H244946   0.442   1.757   4.925 -0.7061 -0.7135  0.9268
 7819TIP3   OH244947   6.291   3.239  14.444 -0.0738  0.1900 -0.4317
 7819TIP3    H144948   6.376   3.213  14.408 -1.0608 -0.1135 -2.6540
 7819TIP3    H244949   6.312   3.309  14.507  1.6484  1.9418 -2.7829
 7820TIP3   OH244950   4.608   5.474   5.403 -0.0084 -0.0742 -0.7165
 7820TIP3    H144951   4.548   5.485   5.329  1.2591  0.9626 -1.6294
 7820TIP3    H244952   4.692   5.454   5.362  0.5697 -0.1550  0.4924
 7821TIP3   OH244953   0.938   2.257   5.325 -0.1299 -0.0415  0.6753
 7821TIP3    H144954   0.862   2.216   5.368 -2.1344  0.4646 -2.1188
 7821TIP3    H244955   0.968   2.191   5.263 -0.9979  1.2008 -1.1689
 7822TIP3   OH244956   2.025   5.755   1.199  1.2998 -0.3582  0.4802
 7822TIP3    H144957   1.999   5.736   1.109  1.6793 -2.2058  0.7129
 7822TIP3    H244958   1.946   5.742   1.251  0.6368  2.3540  0.2923
 7823TIP3   OH244959   5.659   5.857  15.496  1.0265 -0.1069 -0.1775
 7823TIP3    H144960   5.678   5.886  15.585 -0.2931  1.9112 -0.5000
 7823TIP3    H244961   5.579   5.803  15.505 -0.0096  1.3556 -0.2789
 7824TIP3   OH244962   0.152   5.757  12.938 -0.5808 -0.2468  0.4735
 7824TIP3    H144963   0.094   5.735  12.866  0.8363 -1.0560 -0.4703
 7824TIP3    H244964   0.215   5.685  12.941  0.2535  0.4943  1.5725
 7825TIP3   OH244965   1.797   5.476  10.639  0.3487 -0.5040 -0.0626
 7825TIP3    H144966   1.889   5.490  10.617  0.2422  3.0118  1.1151
 7825TIP3    H244967   1.755   5.458  10.555  1.8953 -0.6993 -0.8314
 7826TIP3   OH244968   2.549   0.052  14.967 -0.4455  0.1706  0.1192
 7826TIP3    H144969   2.471   0.103  14.948 -0.5814 -0.0549  0.0654
 7826TIP3    H244970   2.558   0.056  15.063 -2.1942 -2.1982  0.4607
 7827TIP3   OH244971   0.420   2.087  17.022 -0.8811 -0.5243  0.5050
 7827TIP3    H144972   0.396   1.999  16.991 -1.0928 -0.6047  0.8994
 7827TIP3    H244973   0.471   2.071  17.101 -0.9303 -0.2886  0.5843
 7828TIP3   OH244974   0.597   3.803   0.300 -0.3613 -0.2730 -0.1901
 7828TIP3    H144975   0.678   3.829   0.345 -1.0095  0.7541  0.4406
 7828TIP3    H244976   0.614   3.714   0.269  0.2997 -0.8811  1.7336
 7829TIP3   OH244977   4.207   2.516   2.705 -0.3582 -0.7432  0.0500
 7829TIP3    H144978   4.232   2.576   2.775 -2.0917 -0.2828  0.3246
 7829TIP3    H244979   4.289   2.481   2.673  0.5474 -0.0438  1.5081
 7830TIP3   OH244980   0.716   1.723   0.976 -0.6926  0.1130  0.3976
 7830TIP3    H144981   0.667   1.668   1.037 -4.0525  1.0153 -1.2471
 7830TIP3    H244982   0.715   1.810   1.017 -0.7702  0.2020  0.2082
 7831TIP3   OH244983   2.132   3.098  13.753 -1.0257  0.3905  0.0391
 7831TIP3    H144984   2.051   3.147  13.738 -0.2407  1.6422 -0.2239
 7831TIP3    H244985   2.186   3.116  13.676  0.3932  1.4298  1.2254
 7832TIP3   OH244986   5.924   1.584  12.578  0.3533 -0.3467  0.4752
 7832TIP3    H144987   5.966   1.553  12.498 -0.2535  1.1604 -0.4504
 7832TIP3    H244988   5.837   1.613  12.551 -0.1006 -0.3955  1.7947
 7833TIP3   OH244989   3.528   0.184   6.129  0.3761  0.6672 -0.3842
 7833TIP3    H144990   3.596   0.155   6.190  0.1300 -0.6814 -0.7078
 7833TIP3    H244991   3.478   0.249   6.178  0.0742 -0.5236  0.9623
 7834TIP3   OH244992   1.803   0.272  13.020 -0.5417 -0.5055  0.0592
 7834TIP3    H144993   1.772   0.319  12.942 -1.7558 -0.1991  0.6992
 7834TIP3    H244994   1.802   0.338  13.089  0.7542 -0.7183  0.2990
 7835TIP3   OH244995   3.903   4.118  15.550 -0.4419  0.5400 -0.1827
 7835TIP3    H144996   3.819   4.078  15.572 -0.8863  1.1653 -0.6925
 7835TIP3    H244997   3.967   4.047  15.560 -0.6337  0.6372  2.6285
 7836TIP3   OH244998   0.636   3.818  12.444 -0.1347 -0.5398  0.1951
 7836TIP3    H144999   0.663   3.848  12.530 -1.5813 -0.2209  0.5696
 7836TIP3    H245000   0.631   3.898  12.391 -0.0506 -0.6351  0.0407
 7837TIP3   OH245001   5.421   2.826  13.370  0.1623 -0.2202 -0.2212
 7837TIP3    H145002   5.355   2.850  13.435  1.0110 -0.8273  0.9049
 7837TIP3    H245003   5.417   2.896  13.305 -0.1370  0.8552  0.9142
 7838TIP3   OH245004   5.077   2.812  10.239 -0.3090 -0.2566  0.1990
 7838TIP3    H145005   5.111   2.803  10.328 -1.1713  0.4260  0.6127
 7838TIP3    H245006   5.151   2.790  10.182  1.0547  1.7968  1.0508
 7839TIP3   OH245007   3.939   4.832   4.123  0.9739 -0.4991 -0.7450
 7839TIP3    H145008   3.945   4.791   4.210  0.9076  1.1628  0.0963
 7839TIP3    H245009   4.030   4.846   4.097  1.0268  0.7841  0.0007
 7840TIP3   OH245010   4.499   6.462   1.844  0.3531  0.0718 -0.1445
 7840TIP3    H145011   4.534   6.496   1.762 -0.3324  2.7157  0.5541
 7840TIP3    H245012   4.566   6.402   1.876  1.6775  0.7753 -1.4940
 7841TIP3   OH245013   2.660   0.000  12.037 -0.4746 -0.2246 -0.0787
 7841TIP3    H145014   2.568   0.011  12.014 -0.6952  0.8398  1.1950
 7841TIP3    H245015   2.666  -0.088  12.073 -0.9826 -0.3407 -0.2764
 7842TIP3   OH245016   0.451   0.918  13.907 -0.1851  0.0020 -0.0065
 7842TIP3    H145017   0.387   0.987  13.927  0.7872  1.1148 -0.6101
 7842TIP3    H245018   0.455   0.916  13.812  0.1708 -0.5605  0.0157
 7843TIP3   OH245019   4.960   3.690   0.145 -0.0751 -0.0866  0.2668
 7843TIP3    H145020   4.948   3.606   0.189 -1.0725  0.3543  0.8670
 7843TIP3    H245021   4.872   3.714   0.116  0.6473 -1.0221 -3.2727
 7844TIP3   OH245022   3.225   5.216   2.012  0.8306  0.0113 -0.0878
 7844TIP3    H145023   3.239   5.261   2.095 -2.1100  0.6899  0.1444
 7844TIP3    H245024   3.174   5.139   2.033  0.2647  0.0484 -1.2123
 7845TIP3   OH245025   1.094   3.913  16.870 -0.4411  0.0538  0.2994
 7845TIP3    H145026   1.087   3.824  16.837  0.7648  0.2243 -0.5073
 7845TIP3    H245027   1.090   3.968  16.792  0.8742  0.5649  0.5581
 7846TIP3   OH245028   2.681   2.762   3.762  0.0222 -0.0237  0.1046
 7846TIP3    H145029   2.663   2.722   3.677  1.7629 -0.0343 -0.2861
 7846TIP3    H245030   2.702   2.688   3.819  1.2995  0.1446 -0.1160
 7847TIP3   OH245031   1.947   4.846  15.204 -0.2376 -0.3443  0.1430
 7847TIP3    H145032   1.923   4.842  15.111 -1.4466 -0.1590  0.4395
 7847TIP3    H245033   1.971   4.756  15.226  1.1164 -0.2009 -0.6003
 7848TIP3   OH245034   2.423   5.112   6.059 -0.5065  0.4122  0.1970
 7848TIP3    H145035   2.445   5.118   5.966  0.9807  0.6118  0.5384
 7848TIP3    H245036   2.430   5.202   6.090 -1.9421  0.4961  0.3193
 7849TIP3   OH245037   1.644   0.889  12.645 -0.7077 -0.3784  0.0662
 7849TIP3    H145038   1.716   0.950  12.666  0.9110 -2.0829 -0.2924
 7849TIP3    H245039   1.603   0.871  12.729 -0.6188  0.4670  0.3066
 7850TIP3   OH245040   3.051   0.903   2.175 -0.4952 -0.1624 -0.1450
 7850TIP3    H145041   3.011   0.929   2.092  0.1449  0.6368 -0.2157
 7850TIP3    H245042   3.124   0.846   2.151 -0.8268 -0.6260 -0.0770
 7851TIP3   OH245043   6.661   1.422  13.718  0.0385 -0.5109  0.1134
 7851TIP3    H145044   6.603   1.477  13.665 -2.2050 -0.3380  2.5458
 7851TIP3    H245045   6.653   1.335  13.680  0.0468 -0.0262 -1.0256
 7852TIP3   OH245046   6.532   2.009   2.166  0.2526  0.0104 -0.3882
 7852TIP3    H145047   6.555   2.050   2.250 -0.4570  0.9196 -0.6276
 7852TIP3    H245048   6.462   1.948   2.187  0.8983 -0.6581 -0.1310
 7853TIP3   OH245049   4.374   1.537  12.066  0.2250 -0.4613 -0.1482
 7853TIP3    H145050   4.324   1.471  12.114  1.8761 -1.4975  0.2481
 7853TIP3    H245051   4.456   1.545  12.115  0.0094  2.0597 -0.0889
 7854TIP3   OH245052   5.527   0.252   5.785 -0.3663  0.6202 -0.1676
 7854TIP3    H145053   5.467   0.298   5.727 -2.4898 -0.8631  0.7533
 7854TIP3    H245054   5.502   0.160   5.778  0.9069  0.1107  1.2965
 7855TIP3   OH245055   0.117   0.840   5.738  0.3785  0.4085  0.1480
 7855TIP3    H145056   0.158   0.825   5.824  0.9100  0.1609 -0.1395
 7855TIP3    H245057   0.191   0.853   5.679  0.0005  1.5488 -0.1071
 7856TIP3   OH245058   1.797   5.318   0.857 -0.3993 -0.2391 -0.1864
 7856TIP3    H145059   1.783   5.413   0.856 -0.9525 -0.3158 -0.2917
 7856TIP3    H245060   1.800   5.293   0.764 -0.8407 -0.3983 -0.1634
 7857TIP3   OH245061   2.969   4.599   0.170 -0.0282 -0.0441  0.5081
 7857TIP3    H145062   3.015   4.673   0.208  0.8982 -0.6367  0.5686
 7857TIP3    H245063   2.909   4.570   0.238  2.6209 -2.0118  2.1947
 7858TIP3   OH245064   3.052   2.075  15.217  0.7461 -0.2078  0.3274
 7858TIP3    H145065   3.005   2.151  15.253  0.5938 -0.5677  0.9033
 7858TIP3    H245066   3.123   2.114  15.165  0.5485  0.3329  0.4526
 7859TIP3   OH245067   1.579   4.057   3.962  0.4517 -0.1824  0.3682
 7859TIP3    H145068   1.593   4.022   3.874 -2.1697 -1.8693  0.4912
 7859TIP3    H245069   1.587   3.981   4.020 -1.8693  0.0052  1.0689
 7860TIP3   OH245070   0.277   0.500   1.326 -0.1907  0.1001 -0.2178
 7860TIP3    H145071   0.187   0.467   1.331 -0.3673  0.5643 -0.2510
 7860TIP3    H245072   0.331   0.422   1.311 -0.6259 -0.1346 -0.5773
 7861TIP3   OH245073   3.790   4.478  16.426  0.3708 -0.5490  0.0071
 7861TIP3    H145074   3.797   4.563  16.382 -1.5322 -0.2604  0.1759
 7861TIP3    H245075   3.854   4.422  16.382  0.8423  0.6490 -0.8777
 7862TIP3   OH245076   3.496   2.549   2.258  0.9825 -1.1688 -0.3732
 7862TIP3    H145077   3.522   2.638   2.280  1.3647 -1.1482 -0.9096
 7862TIP3    H245078   3.400   2.553   2.254  0.8585 -1.2066  1.4039
 7863TIP3   OH245079   6.615   1.369  12.862 -0.7147  0.5592 -0.5625
 7863TIP3    H145080   6.628   1.289  12.812  3.4632  0.5956  0.1508
 7863TIP3    H245081   6.629   1.344  12.953 -2.2124  1.6397  0.0236
 7864TIP3   OH245082   1.266   6.759   1.442  0.8601  0.3909  0.2423
 7864TIP3    H145083   1.305   6.838   1.480  1.2488  0.5809 -0.5383
 7864TIP3    H245084   1.288   6.764   1.349  1.1114 -0.7819  0.2305
 7865TIP3   OH245085   3.840   6.217  15.212  0.0321  0.2403  0.2791
 7865TIP3    H145086   3.850   6.260  15.127  2.0149  1.2153  0.9565
 7865TIP3    H245087   3.863   6.284  15.276 -0.6925 -0.7039  1.5613
 7866TIP3   OH245088   1.809   3.726  13.732  1.2111  0.5846  0.5418
 7866TIP3    H145089   1.790   3.766  13.817 -0.3328  2.1738 -0.4781
 7866TIP3    H245090   1.888   3.771  13.701 -0.3418  2.8014 -0.4624
 7867TIP3   OH245091   3.411   5.795   1.999  0.5187 -0.0360  0.1836
 7867TIP3    H145092   3.424   5.768   2.090 -1.4983  0.0547  0.5417
 7867TIP3    H245093   3.411   5.713   1.950 -2.0117 -0.4613  0.7897
 7868TIP3   OH245094   0.076   6.310  15.950 -0.1299  0.3872  0.3168
 7868TIP3    H145095   0.068   6.346  15.862 -1.6315  0.9192  0.6367
 7868TIP3    H245096   0.170   6.296  15.962  0.0840  0.0680 -1.4445
 7869TIP3   OH245097   1.663   2.775  16.495  0.2918  0.2415  0.7382
 7869TIP3    H145098   1.682   2.865  16.467  2.4481 -0.1178  0.9371
 7869TIP3    H245099   1.742   2.746  16.540 -0.7127 -1.4626  1.5014
 7870TIP3   OH245100   0.106   5.608   4.171 -0.0585 -0.2680  0.1751
 7870TIP3    H145101   0.086   5.682   4.115 -2.2752 -0.1950  0.9657
 7870TIP3    H245102   0.042   5.614   4.243 -0.1557 -2.7949  0.3923
 7871TIP3   OH245103   0.737   0.073  12.040  0.4070 -0.0390 -0.0137
 7871TIP3    H145104   0.787   0.073  11.959  0.8836 -2.2747  0.2263
 7871TIP3    H245105   0.677   0.147  12.031  0.6761 -0.0299 -2.2524
 7872TIP3   OH245106   2.678   4.386  15.670 -0.4154  0.3299 -0.4492
 7872TIP3    H145107   2.604   4.436  15.704  1.3773  1.2825  2.3305
 7872TIP3    H245108   2.701   4.326  15.741  0.9781 -0.5111 -1.5693
 7873TIP3   OH245109   2.306   6.053  14.820  0.2211  0.6102  0.5285
 7873TIP3    H145110   2.373   5.999  14.779 -0.2032  0.2918  0.2350
 7873TIP3    H245111   2.233   6.050  14.758  0.2230  1.5965  0.4643
 7874TIP3   OH245112   5.544   0.624  12.632  0.1857 -0.3091  0.3019
 7874TIP3    H145113   5.567   0.708  12.671 -0.0076  0.0970 -0.4290
 7874TIP3    H245114   5.483   0.647  12.562  0.3348 -1.0340 -0.0713
 7875TIP3   OH245115   3.083   5.235   0.427 -0.0625 -0.4926 -0.0875
 7875TIP3    H145116   3.056   5.232   0.336  0.0963 -3.4136 -0.1531
 7875TIP3    H245117   3.001   5.233   0.477 -0.1708  1.7238 -0.1002
 7876TIP3   OH245118   2.393   2.306   5.021 -0.2555  0.3730  0.2594
 7876TIP3    H145119   2.371   2.232   4.964  0.6667 -0.3963  0.8674
 7876TIP3    H245120   2.488   2.302   5.029 -0.2414  1.3457  0.6825
 7877TIP3   OH245121   2.015   1.957  14.243 -0.0801 -0.0530 -0.1010
 7877TIP3    H145122   2.039   1.889  14.306  1.4236  0.1832 -0.3675
 7877TIP3    H245123   1.960   1.912  14.179 -0.9779 -0.4745  0.9333
 7878TIP3   OH245124   0.005   1.195   1.120 -0.0686 -0.6930  0.9081
 7878TIP3    H145125   0.019   1.290   1.128  0.7170 -0.8360  1.2701
 7878TIP3    H245126  -0.038   1.185   1.035 -1.1497  0.0820  1.3407
 7879TIP3   OH245127   5.991   1.713  16.244 -0.3084  0.1620 -0.0667
 7879TIP3    H145128   5.895   1.708  16.250 -0.4383  1.7189 -0.4623
 7879TIP3    H245129   6.019   1.750  16.327  0.1914 -2.2475  0.9311
 7880TIP3   OH245130   3.179   6.029   1.853  0.2151  0.4481  0.2724
 7880TIP3    H145131   3.212   5.940   1.849 -1.0252  0.0024 -0.6269
 7880TIP3    H245132   3.189   6.054   1.945  0.7249 -0.5471  0.5011
 7881TIP3   OH245133   0.795   2.376  14.769  0.0158 -0.1257  0.2088
 7881TIP3    H145134   0.759   2.320  14.839 -0.5469  1.4143  1.2077
 7881TIP3    H245135   0.782   2.465  14.802  2.3068  0.5700 -0.6270
 7882TIP3   OH245136   0.576   1.316   5.241 -0.3168 -0.4664  0.3901
 7882TIP3    H145137   0.564   1.256   5.315 -1.3772 -1.0284 -0.2193
 7882TIP3    H245138   0.607   1.397   5.281  2.0114 -1.6302  1.1752
 7883TIP3   OH245139   5.983   4.324   4.938  0.1778 -0.2663 -0.0671
 7883TIP3    H145140   6.077   4.330   4.918  0.0949 -0.5045 -0.5515
 7883TIP3    H245141   5.947   4.406   4.904 -0.0798 -0.9895 -1.6112
 7884TIP3   OH245142   3.999   0.794   1.097 -0.1094  0.1532 -0.2378
 7884TIP3    H145143   3.905   0.785   1.078  0.1316 -0.9463 -1.0248
 7884TIP3    H245144   4.016   0.728   1.164 -0.3603  2.0448  1.8042
 7885TIP3   OH245145   2.308   6.009  14.392 -0.2871  0.8032  0.1528
 7885TIP3    H145146   2.368   6.083  14.383  0.2136  0.2678 -1.3134
 7885TIP3    H245147   2.355   5.936  14.351  1.1284 -1.5241  5.1392
 7886TIP3   OH245148   5.396   6.064   5.757 -0.5383  0.4005 -0.7378
 7886TIP3    H145149   5.407   6.158   5.772 -1.2510  0.3896 -0.1185
 7886TIP3    H245150   5.485   6.032   5.740  0.4524  0.4625  3.3277
 7887TIP3   OH245151   2.290   4.756   3.231 -0.0741 -0.2084  0.7990
 7887TIP3    H145152   2.224   4.748   3.163  0.7485 -2.4366  0.1971
 7887TIP3    H245153   2.312   4.850   3.231 -1.6148  0.2066 -0.4882
 7888TIP3   OH245154   2.054   3.428   2.641  0.1983  0.8784  0.0907
 7888TIP3    H145155   1.993   3.354   2.634  2.8137 -1.6743  1.9813
 7888TIP3    H245156   1.999   3.502   2.663 -2.3201 -1.1363  1.1251
 7889TIP3   OH245157   5.960   4.614   3.141  0.4395  0.5752  0.4271
 7889TIP3    H145158   5.991   4.665   3.216 -0.2358  0.2908  0.9028
 7889TIP3    H245159   5.934   4.530   3.178  0.4974  0.2745 -0.1950
 7890TIP3   OH245160   2.668   3.171   1.763  0.1503  0.1358 -0.5412
 7890TIP3    H145161   2.760   3.150   1.746  0.4854 -0.7683  1.9522
 7890TIP3    H245162   2.671   3.257   1.806 -0.1642  0.0218 -0.2939
 7891TIP3   OH245163   3.593   0.949  11.533 -0.0203  0.2612  0.0587
 7891TIP3    H145164   3.556   0.960  11.446  0.2205 -0.8797 -0.1989
 7891TIP3    H245165   3.520   0.965  11.593 -0.0464  1.6718 -0.3046
 7892TIP3   OH245166   1.851   4.857   0.793 -0.1024 -0.1750 -0.3445
 7892TIP3    H145167   1.866   4.874   0.886 -1.3392 -2.0449  0.2555
 7892TIP3    H245168   1.884   4.768   0.779 -1.6322 -0.6333 -1.2335
 7893TIP3   OH245169   3.661   0.543  13.733 -0.6418 -0.7976 -0.1864
 7893TIP3    H145170   3.722   0.600  13.778 -1.0691  0.5818 -1.2894
 7893TIP3    H245171   3.589   0.530  13.795 -0.3707 -0.4250  0.2022
 7894TIP3   OH245172   0.068   0.371  11.601  0.4080  0.7904  0.0811
 7894TIP3    H145173   0.107   0.284  11.616  0.1505  0.4513 -1.1214
 7894TIP3    H245174   0.058   0.408  11.688  1.1160 -0.1363  0.5727
 7895TIP3   OH245175   0.565   5.200  10.779  0.0343  0.1571 -0.4464
 7895TIP3    H145176   0.580   5.274  10.838 -1.4894 -0.2482  0.5129
 7895TIP3    H245177   0.643   5.197  10.723  1.0457  1.2003  0.8526
 7896TIP3   OH245178   6.271   3.360  15.808 -0.8120  0.2248 -0.2763
 7896TIP3    H145179   6.291   3.279  15.856  0.8926  1.8900  2.0936
 7896TIP3    H245180   6.298   3.430  15.868  1.7618  2.5556 -3.7977
 7897TIP3   OH245181   2.433   3.412  12.077 -0.3499  0.3532  0.2666
 7897TIP3    H145182   2.475   3.332  12.108 -1.5532 -0.4298 -0.0437
 7897TIP3    H245183   2.438   3.406  11.981 -1.3820  0.1104  0.2190
 7898TIP3   OH245184   2.602   1.284   2.467 -0.5321  0.0771 -0.9738
 7898TIP3    H145185   2.595   1.201   2.420 -1.5925 -0.7474  0.5654
 7898TIP3    H245186   2.672   1.331   2.422 -0.2046 -1.4616 -2.1489
 7899TIP3   OH245187   0.830   2.775  11.316  0.3131 -0.0224  0.3402
 7899TIP3    H145188   0.765   2.713  11.348  0.0850  0.1042  0.1321
 7899TIP3    H245189   0.863   2.819  11.394 -1.3910  1.4284  0.3097
 7900TIP3   OH245190   2.428   1.713  11.328 -0.1105  1.2894  0.0050
 7900TIP3    H145191   2.436   1.654  11.403  0.2483  1.3936  0.0542
 7900TIP3    H245192   2.509   1.700  11.279 -0.2949  1.3062 -0.3017
 7901TIP3   OH245193   1.082   0.166  13.692 -0.0074  0.3996  0.1953
 7901TIP3    H145194   1.051   0.164  13.602  1.4990 -0.2418 -0.3393
 7901TIP3    H245195   1.155   0.229  13.690  0.1085  0.2928  0.9299
 7902TIP3   OH245196   1.838   3.232  16.029 -0.1166  0.1615 -0.4248
 7902TIP3    H145197   1.880   3.305  15.984 -0.1758 -0.3467 -1.3372
 7902TIP3    H245198   1.844   3.159  15.967  0.6322 -0.8269  0.7746
 7903TIP3   OH245199   1.355   6.270  15.961  0.7592 -0.0331 -0.0999
 7903TIP3    H145200   1.386   6.262  16.051  0.4077 -0.5680 -0.0215
 7903TIP3    H245201   1.306   6.352  15.960  1.4260  0.3766 -0.0089
 7904TIP3   OH245202   4.464   2.852   2.334  0.0987 -0.0913 -0.1202
 7904TIP3    H145203   4.433   2.772   2.377  1.3408 -0.6330 -0.1848
 7904TIP3    H245204   4.451   2.921   2.399  0.4215 -0.6191  0.5201
 7905TIP3   OH245205   1.388   2.360   3.351  0.0831  0.1673 -0.1668
 7905TIP3    H145206   1.462   2.419   3.341  1.0552 -0.5277  2.2526
 7905TIP3    H245207   1.383   2.343   3.445 -1.9440 -1.3526 -0.4762
 7906TIP3   OH245208   4.716   6.264   3.438 -0.1331  0.3158  0.0018
 7906TIP3    H145209   4.774   6.240   3.510  0.3103  0.8107 -0.1838
 7906TIP3    H245210   4.725   6.192   3.375 -0.0994  0.1537  0.1898
 7907TIP3   OH245211   2.414   0.677  12.373  0.3529 -0.1593 -0.7835
 7907TIP3    H145212   2.386   0.668  12.464 -0.4399  2.8303 -0.6224
 7907TIP3    H245213   2.393   0.593  12.333 -2.3386 -0.4690  1.0374
 7908TIP3   OH245214   0.458   1.414   6.177  0.9701  0.2522 -0.2702
 7908TIP3    H145215   0.446   1.509   6.175  0.2290  0.1786  0.1958
 7908TIP3    H245216   0.475   1.394   6.269  0.6963 -0.1152 -0.2991
 7909TIP3   OH245217   3.804   5.933   0.976  0.5681  0.0148  0.2514
 7909TIP3    H145218   3.898   5.921   0.960  0.4819 -3.0170  1.3590
 7909TIP3    H245219   3.778   5.854   1.023 -2.0949  1.8249  2.0901
 7910TIP3   OH245220   1.249   2.147   4.775  0.5659  0.0735 -0.2866
 7910TIP3    H145221   1.230   2.054   4.772 -1.4003  0.4637 -1.2319
 7910TIP3    H245222   1.301   2.164   4.696  1.4040 -0.2878  0.1726
 7911TIP3   OH245223   6.664   6.316   0.861 -0.6061  0.8807  0.2853
 7911TIP3    H145224   6.700   6.305   0.773  0.5746 -0.6628  0.9032
 7911TIP3    H245225   6.714   6.387   0.900  1.9318 -1.1791  1.1029
 7912TIP3   OH245226   1.317   0.351  16.958 -0.1024  0.2156 -0.1957
 7912TIP3    H145227   1.378   0.309  16.898  0.4871  2.1868 -1.0704
 7912TIP3    H245228   1.325   0.444  16.939  0.6377  1.0729  3.4392
 7913TIP3   OH245229   1.689   6.491   0.871  0.8442  0.2794 -0.0708
 7913TIP3    H145230   1.643   6.479   0.955  1.2401  0.4375  0.1729
 7913TIP3    H245231   1.670   6.410   0.823 -0.0287  0.5192 -0.1453
 7914TIP3   OH245232   0.953   4.836  14.168  0.0233 -0.2492  0.0662
 7914TIP3    H145233   0.930   4.853  14.259  1.3728 -1.0226  0.5739
 7914TIP3    H245234   0.885   4.776  14.136 -0.6164  0.2544  0.4578
 7915TIP3   OH245235   3.070   2.404  14.612  0.1110 -0.5965 -0.7329
 7915TIP3    H145236   2.993   2.404  14.668  0.9198 -1.4709  0.4425
 7915TIP3    H245237   3.115   2.322  14.633  1.8238  0.3037 -0.7034
 7916TIP3   OH245238   4.747   0.901  12.594 -0.2107 -0.0722  0.1340
 7916TIP3    H145239   4.790   0.903  12.509  0.9442 -0.8169  0.6666
 7916TIP3    H245240   4.755   0.991  12.627 -2.3753  0.7233 -1.3046
 7917TIP3   OH245241   4.742   5.899   0.587 -0.0414 -0.2270 -0.0570
 7917TIP3    H145242   4.784   5.944   0.660  0.8989 -1.5632  0.2700
 7917TIP3    H245243   4.702   5.821   0.628  0.0871 -0.7420 -0.8939
 7918TIP3   OH245244   5.079   1.070   4.679 -0.1805  0.0488  0.0575
 7918TIP3    H145245   5.109   0.988   4.638 -0.9302  0.0313 -0.4787
 7918TIP3    H245246   5.034   1.116   4.608  2.9392  2.4264 -0.6059
 7919TIP3   OH245247   2.787   3.034  13.022  0.2964 -0.4119 -0.0233
 7919TIP3    H145248   2.807   3.127  13.028 -2.9064  0.4991 -1.4967
 7919TIP3    H245249   2.833   2.995  13.097  2.1873  2.1925  0.3140
 7920TIP3   OH245250   1.821   1.776   3.468 -0.4683  0.0046  0.2071
 7920TIP3    H145251   1.815   1.747   3.559 -3.2325  0.2116  0.1892
 7920TIP3    H245252   1.748   1.731   3.424  0.4120  0.4108 -1.7593
 7921TIP3   OH245253   3.411   4.352   5.899 -0.0824  0.4169 -0.3808
 7921TIP3    H145254   3.333   4.303   5.870  0.8222 -0.5717 -1.2070
 7921TIP3    H245255   3.457   4.291   5.956  0.3717  0.8057 -0.3319
 7922TIP3   OH245256   2.382   2.912  10.321  0.0864  0.3705 -0.5273
 7922TIP3    H145257   2.399   2.999  10.357  1.2160 -0.3778  0.8045
 7922TIP3    H245258   2.288   2.913  10.301 -0.4939  1.0470  1.9179
 7923TIP3   OH245259   1.548   5.170  15.123 -0.6446 -0.1191 -0.5613
 7923TIP3    H145260   1.546   5.175  15.218  0.3599  1.0363 -0.5946
 7923TIP3    H245261   1.458   5.146  15.099 -1.8442  2.8278  0.5147
 7924TIP3   OH245262   4.670   4.553  12.759 -0.0551  0.2691  1.3302
 7924TIP3    H145263   4.736   4.622  12.765  0.2306  0.3825 -1.5872
 7924TIP3    H245264   4.614   4.580  12.686 -0.2647 -2.2607  0.4654
 7925TIP3   OH245265   6.806   5.760  14.625  0.3013  0.2381 -0.3720
 7925TIP3    H145266   6.712   5.759  14.645  0.5822 -1.1046  1.0799
 7925TIP3    H245267   6.817   5.698  14.554  0.0958  0.4014 -0.5480
 7926TIP3   OH245268   1.329   2.470   6.406  0.0397  0.2093  0.7941
 7926TIP3    H145269   1.281   2.416   6.344 -0.8421 -1.3149  2.7108
 7926TIP3    H245270   1.261   2.517   6.454  0.6868  1.1322  0.8386
 7927TIP3   OH245271   5.740   3.549   0.091 -0.3270  0.1436 -0.1422
 7927TIP3    H145272   5.739   3.563   0.186 -0.4533 -1.6275  0.1538
 7927TIP3    H245273   5.816   3.599   0.060  0.3181 -0.0593  1.0412
 7928TIP3   OH245274   2.760   3.854  16.921 -0.1084  0.2213  0.5056
 7928TIP3    H145275   2.836   3.890  16.967 -0.3726  0.6940  0.5756
 7928TIP3    H245276   2.724   3.789  16.981 -0.0897  0.3983  0.7079
 7929TIP3   OH245277   3.879   4.448   2.442 -0.7849 -0.1713 -0.0236
 7929TIP3    H145278   3.873   4.398   2.523 -1.8040  1.2570  0.8133
 7929TIP3    H245279   3.869   4.539   2.468 -1.7196  0.2893 -1.8059
 7930TIP3   OH245280   0.398   0.120  13.659  0.0966 -0.3192 -0.8920
 7930TIP3    H145281   0.410   0.206  13.699 -0.6180 -0.5594 -0.1448
 7930TIP3    H245282   0.352   0.137  13.577 -1.7349 -0.1253  0.1221
 7931TIP3   OH245283   4.618   3.525  13.606  0.0366  0.3464  0.0616
 7931TIP3    H145284   4.709   3.555  13.607  1.9996 -4.6129 -0.5541
 7931TIP3    H245285   4.596   3.518  13.513 -0.6642  0.7094  0.1958
 7932TIP3   OH245286   0.254   5.933   2.827  0.3133 -0.2067 -0.4993
 7932TIP3    H145287   0.318   5.882   2.777 -0.8469 -2.1941 -0.0540
 7932TIP3    H245288   0.178   5.939   2.769 -0.7493 -1.8396  0.6540
 7933TIP3   OH245289   1.179   4.597   4.970  0.0598 -0.5639  0.5731
 7933TIP3    H145290   1.111   4.542   5.009  0.7423 -2.7832 -1.0753
 7933TIP3    H245291   1.141   4.627   4.888  0.3484 -0.1445  0.5910
 7934TIP3   OH245292   4.528   3.343   0.135  0.1892  0.1768  1.2314
 7934TIP3    H145293   4.549   3.429   0.099 -1.4139 -0.1908 -0.7313
 7934TIP3    H245294   4.612   3.298   0.141  0.7463  0.9813 -0.1381
 7935TIP3   OH245295   4.484   4.178   1.663  0.0115  0.1036 -0.0732
 7935TIP3    H145296   4.521   4.117   1.600  1.7826  0.9150  0.1044
 7935TIP3    H245297   4.484   4.263   1.618 -0.9547  0.2688  0.2068
 7936TIP3   OH245298   1.099   3.589  13.815 -0.0393 -0.1006 -0.1442
 7936TIP3    H145299   1.143   3.654  13.870 -3.1153  1.7385  0.3785
 7936TIP3    H245300   1.089   3.512  13.871  1.3439 -0.1375  0.0936
 7937TIP3   OH245301   1.752   6.550   5.676  0.0095 -0.1857  0.8863
 7937TIP3    H145302   1.843   6.527   5.655  0.0434  0.5919  0.1178
 7937TIP3    H245303   1.701   6.508   5.607  0.0148  1.4191 -0.1331
 7938TIP3   OH245304   6.750   4.200  15.501 -0.1269 -0.1436  0.1433
 7938TIP3    H145305   6.763   4.148  15.421 -0.9606  2.0524 -1.5269
 7938TIP3    H245306   6.705   4.278  15.471  1.0140  1.5434  2.5447
 7939TIP3   OH245307   1.834   3.665  17.016  0.3132 -0.3281 -0.0810
 7939TIP3    H145308   1.752   3.711  16.996  0.1737 -0.6482 -0.2489
 7939TIP3    H245309   1.879   3.723  17.077  0.5031  0.4129 -0.9058
 7940TIP3   OH245310   1.137   2.153   3.270 -0.1360 -0.1372  0.1157
 7940TIP3    H145311   1.058   2.197   3.300 -1.1116 -1.4012 -0.4641
 7940TIP3    H245312   1.178   2.215   3.209 -0.3613  0.7588  0.8671
 7941TIP3   OH245313   5.679   3.889   4.140  0.6374 -0.0398  0.4162
 7941TIP3    H145314   5.700   3.982   4.135  0.8919 -0.1563 -1.7621
 7941TIP3    H245315   5.595   3.881   4.094  0.9491 -0.9537 -0.0230
 7942TIP3   OH245316   6.076   4.655  16.260 -0.5171 -0.2931 -0.2651
 7942TIP3    H145317   6.031   4.686  16.182 -1.8321  1.0801  0.9733
 7942TIP3    H245318   6.033   4.573  16.282 -1.2946  0.1675 -0.0452
 7943TIP3   OH245319   5.676   2.075   0.214  0.8879  0.0423 -0.4299
 7943TIP3    H145320   5.667   2.157   0.167  1.4693  0.5754  0.3609
 7943TIP3    H245321   5.686   2.101   0.306 -0.4876 -0.9696  0.0393
 7944TIP3   OH245322   3.512   2.722   0.378  0.2586  0.3006 -0.3778
 7944TIP3    H145323   3.530   2.813   0.402 -0.3246 -0.0535  1.5541
 7944TIP3    H245324   3.442   2.695   0.437 -1.3820 -0.6624 -2.6329
 7945TIP3   OH245325   3.931   3.244   3.990 -0.1667  0.1488 -0.2594
 7945TIP3    H145326   3.851   3.292   4.009 -0.7071 -0.7053 -0.3124
 7945TIP3    H245327   3.901   3.155   3.970  0.9672 -0.9169  2.3302
 7946TIP3   OH245328   0.744   2.710   0.868  0.0404 -0.2076 -0.5173
 7946TIP3    H145329   0.808   2.701   0.798  0.4422 -0.7475 -0.0980
 7946TIP3    H245330   0.685   2.779   0.839  1.9894  1.7828 -0.0498
 7947TIP3   OH245331   6.323   0.339   1.276  0.3660  0.4326 -0.0687
 7947TIP3    H145332   6.275   0.271   1.228  0.9590 -1.5797  1.9989
 7947TIP3    H245333   6.298   0.326   1.367  3.1926  0.6771  0.8220
 7948TIP3   OH245334   2.998   5.970  15.876  0.1840  0.4245 -0.0276
 7948TIP3    H145335   2.918   6.017  15.853 -0.3757 -0.7710 -0.6355
 7948TIP3    H245336   2.978   5.878  15.856  1.5620  0.0507  0.2168
 7949TIP3   OH245337   0.833   1.137  13.275  0.2879  0.3941 -0.3672
 7949TIP3    H145338   0.792   1.168  13.356  2.7976  1.0210  0.7982
 7949TIP3    H245339   0.795   1.051  13.260 -2.9070  1.7337 -0.6316
 7950TIP3   OH245340   4.699   4.870   2.390  0.0775 -0.3480 -0.2730
 7950TIP3    H145341   4.724   4.781   2.366  0.1791 -0.2484 -0.5424
 7950TIP3    H245342   4.708   4.873   2.485  1.3312 -0.2449 -0.3803
 7951TIP3   OH245343   5.992   3.546  15.935 -0.3009 -0.1929  0.1665
 7951TIP3    H145344   5.978   3.614  16.001 -0.1038  0.4316 -0.4250
 7951TIP3    H245345   6.061   3.581  15.879 -0.3121 -0.8152 -0.2435
 7952TIP3   OH245346   0.895   5.874   2.027 -0.2266  0.1152  0.0545
 7952TIP3    H145347   0.947   5.917   2.094 -1.6731 -0.3697  1.5455
 7952TIP3    H245348   0.846   5.945   1.985  0.6492  0.4119 -0.5008
 7953TIP3   OH245349   2.476   4.638  10.180  0.3373  0.2317  0.1192
 7953TIP3    H145350   2.444   4.579  10.248 -1.3722  2.4199  1.3312
 7953TIP3    H245351   2.564   4.662  10.208  0.4330 -0.4738  0.4487
 7954TIP3   OH245352   3.862   5.766  16.448  0.7553 -0.0632  0.1259
 7954TIP3    H145353   3.819   5.837  16.401  1.3545 -0.4013 -0.9553
 7954TIP3    H245354   3.933   5.738  16.390  1.2501 -0.7716  1.0510
 7955TIP3   OH245355   6.529   5.916   5.183 -0.0072 -0.3676 -0.8913
 7955TIP3    H145356   6.517   5.823   5.162  1.9210 -0.5265 -1.4933
 7955TIP3    H245357   6.609   5.918   5.236  1.0163  1.1161 -2.4028
 7956TIP3   OH245358   3.556   5.567   2.878  0.4305 -0.0043  0.2466
 7956TIP3    H145359   3.537   5.517   2.799 -0.7572  2.3791 -1.0952
 7956TIP3    H245360   3.651   5.574   2.881  0.4911 -0.1811 -0.9438
 7957TIP3   OH245361   1.243   5.148  15.047 -1.0872  0.0953  0.7776
 7957TIP3    H145362   1.181   5.194  14.990 -0.4658  0.6469  0.5303
 7957TIP3    H245363   1.195   5.134  15.129 -1.0763  1.8454  1.1228
 7958TIP3   OH245364   5.386   5.634   4.966 -0.2321 -0.0420  0.4394
 7958TIP3    H145365   5.450   5.611   4.899 -0.9883  0.0034 -0.3189
 7958TIP3    H245366   5.360   5.551   5.005 -0.1874 -0.1216  0.2993
 7959TIP3   OH245367   0.078   2.918  12.249  0.3985 -0.8959  0.2334
 7959TIP3    H145368   0.091   2.825  12.266 -2.2971 -1.2973  0.5438
 7959TIP3    H245369   0.032   2.951  12.326 -0.9149  0.0997 -0.9256
 7960TIP3   OH245370   0.696   1.316   3.196  0.4849 -0.1382  0.1411
 7960TIP3    H145371   0.734   1.392   3.151  0.4082 -0.3243 -0.2488
 7960TIP3    H245372   0.610   1.346   3.225  0.3925 -0.1165 -0.1466
 7961TIP3   OH245373   6.557   5.692  16.709 -0.0833  0.2716  0.5251
 7961TIP3    H145374   6.467   5.667  16.730  0.2292  0.0039  1.6331
 7961TIP3    H245375   6.549   5.755  16.638 -1.2024  0.9492  1.2322
 7962TIP3   OH245376   2.736   6.660   3.009  0.0100 -0.1944  0.3165
 7962TIP3    H145377   2.801   6.703   3.065 -0.4318  0.6411  0.1926
 7962TIP3    H245378   2.652   6.699   3.034 -0.3319 -0.6194 -0.1521
 7963TIP3   OH245379   2.437   4.462  14.564 -0.1751 -1.1526 -0.6003
 7963TIP3    H145380   2.368   4.497  14.508 -1.6797 -0.1702  1.7150
 7963TIP3    H245381   2.416   4.369  14.572 -0.8470 -0.9976 -0.4804
 7964TIP3   OH245382   6.339   4.249  16.379  0.5366  0.2114  0.2823
 7964TIP3    H145383   6.288   4.317  16.424 -0.2252 -0.4946  0.5142
 7964TIP3    H245384   6.426   4.287  16.368  0.1009  1.2557  0.3341
 7965TIP3   OH245385   1.930   1.855  11.406  0.1705  0.3174 -0.2646
 7965TIP3    H145386   1.854   1.818  11.362  0.2397  0.8386 -0.8350
 7965TIP3    H245387   1.906   1.946  11.423  0.6131  0.4537 -0.3458
 7966TIP3   OH245388   4.036   1.071  12.198  0.1003  0.3600  0.0157
 7966TIP3    H145389   4.128   1.084  12.223  0.0452  2.4198 -0.6612
 7966TIP3    H245390   3.986   1.099  12.274  0.0203 -0.0905  0.1296
 7967TIP3   OH245391   5.943   6.744  13.914 -0.0414  0.2933  0.3054
 7967TIP3    H145392   5.963   6.838  13.919  1.6071 -0.0343  0.4020
 7967TIP3    H245393   5.857   6.740  13.872  0.0517  1.8281 -0.0986
 7968TIP3   OH245394   6.380   6.627   0.887  0.2821  0.5628  0.4873
 7968TIP3    H145395   6.409   6.718   0.880  1.4990  0.0854 -1.3119
 7968TIP3    H245396   6.328   6.612   0.808 -0.9465  0.0033  1.3598
 7969TIP3   OH245397   4.615   5.862  11.518 -0.3375 -0.5601 -0.1138
 7969TIP3    H145398   4.657   5.778  11.500 -1.1204 -0.7682 -1.0591
 7969TIP3    H245399   4.528   5.853  11.481 -1.0158  0.0839  1.2619
 7970TIP3   OH245400   3.717   5.429  15.380 -0.0277  0.0463  0.0197
 7970TIP3    H145401   3.789   5.381  15.338 -0.4917 -1.0782  0.4687
 7970TIP3    H245402   3.753   5.516  15.397  1.5147 -0.7450  1.0020
 7971TIP3   OH245403   6.701   3.545  10.898 -0.0429 -0.3260  0.2804
 7971TIP3    H145404   6.751   3.565  10.819  0.1632 -2.0817 -0.0799
 7971TIP3    H245405   6.610   3.544  10.869 -0.1580  0.9324  0.5172
 7972TIP3   OH245406   4.227   4.361   1.219 -0.0964 -0.4737  0.6250
 7972TIP3    H145407   4.276   4.442   1.204 -1.7173  0.5550  0.6044
 7972TIP3    H245408   4.196   4.369   1.310  1.7738 -2.2611  1.4960
 7973TIP3   OH245409   2.895   0.874   5.730 -0.0856  0.0064 -0.8765
 7973TIP3    H145410   2.882   0.841   5.819  0.3481 -1.7983 -1.4189
 7973TIP3    H245411   2.842   0.816   5.675 -0.3857  1.1203 -1.7954
 7974TIP3   OH245412   5.377   4.672  13.223 -0.1670 -0.2452  0.2542
 7974TIP3    H145413   5.281   4.664  13.224 -0.0250 -2.4874  1.6427
 7974TIP3    H245414   5.401   4.659  13.131 -1.1703  0.1820 -0.0847
 7975TIP3   OH245415   5.376   4.344  12.584 -0.0796 -0.1246  0.6473
 7975TIP3    H145416   5.412   4.314  12.668 -0.6908 -0.6602  0.7295
 7975TIP3    H245417   5.314   4.275  12.559  1.7198 -1.1314 -1.3682
 7976TIP3   OH245418   3.072   4.270   0.254 -0.3584 -1.0140 -0.4614
 7976TIP3    H145419   3.019   4.328   0.199  0.4264 -0.4047 -0.5934
 7976TIP3    H245420   3.157   4.269   0.211 -0.0583 -1.4109  0.1411
 7977TIP3   OH245421   1.278   2.143  12.391 -0.3052 -0.1765  0.1671
 7977TIP3    H145422   1.328   2.179  12.318  1.8741 -2.1372  0.5767
 7977TIP3    H245423   1.197   2.110  12.352  0.4700 -0.4622 -1.2458
 7978TIP3   OH245424   6.342   4.900   3.102  0.7199 -0.2732  0.1901
 7978TIP3    H145425   6.273   4.966   3.093  2.5657  1.8624  0.7900
 7978TIP3    H245426   6.368   4.880   3.012  1.3366  1.1927  0.0191
 7979TIP3   OH245427   2.566   1.378   1.282 -0.3419  0.0997  0.3032
 7979TIP3    H145428   2.545   1.295   1.326  0.1256 -0.5501 -0.6786
 7979TIP3    H245429   2.553   1.360   1.189  1.0572  0.7299 -0.0415
 7980TIP3   OH245430   5.292   5.313  16.494  0.3161 -0.4475 -0.5254
 7980TIP3    H145431   5.355   5.268  16.439 -1.1934 -0.7287 -2.1377
 7980TIP3    H245432   5.272   5.394  16.446  1.9174  1.3683  1.6128
 7981TIP3   OH245433   5.591   2.200   5.038  0.1292  0.5269 -0.2557
 7981TIP3    H145434   5.665   2.140   5.051  1.3318  1.7109 -1.3474
 7981TIP3    H245435   5.630   2.279   5.001 -1.5581  1.5996  0.1147
 7982TIP3   OH245436   3.683   1.834   1.261 -0.2071 -0.5225  0.3745
 7982TIP3    H145437   3.663   1.816   1.169  0.1689 -0.9243  0.3657
 7982TIP3    H245438   3.654   1.755   1.307  0.0292 -0.5136  0.5380
 7983TIP3   OH245439   1.878   6.058   4.680  0.3194  0.2599 -0.1606
 7983TIP3    H145440   1.968   6.079   4.704  0.5344 -0.8283  0.0350
 7983TIP3    H245441   1.826   6.126   4.723  1.1469  1.9165 -1.6647
 7984TIP3   OH245442   2.105   6.631  12.831  0.4330 -0.3357  0.0556
 7984TIP3    H145443   2.106   6.642  12.735 -1.5864  1.0158  0.1062
 7984TIP3    H245444   2.154   6.706  12.864  2.3985 -1.5746  0.1161
 7985TIP3   OH245445   4.213   4.759  15.862  0.5394 -0.8183 -0.6498
 7985TIP3    H145446   4.147   4.783  15.927 -0.4849  0.3588 -2.0694
 7985TIP3    H245447   4.296   4.790  15.899 -0.1079  0.3776 -0.1725
 7986TIP3   OH245448   5.718   2.125  13.078  0.1516  0.1025  0.0551
 7986TIP3    H145449   5.765   2.198  13.118  0.9057  0.6689 -1.7873
 7986TIP3    H245450   5.626   2.142  13.098  0.3441  1.3845 -0.0732
 7987TIP3   OH245451   4.677   5.533  13.247  0.1732 -0.6711 -0.2057
 7987TIP3    H145452   4.708   5.571  13.165 -0.4507 -0.9305 -0.5662
 7987TIP3    H245453   4.612   5.469  13.221 -1.6717  0.7893  0.5625
 7988TIP3   OH245454   2.371   4.165  12.733  0.2568 -0.4475  0.0823
 7988TIP3    H145455   2.339   4.244  12.691 -0.3923 -0.1795  1.0430
 7988TIP3    H245456   2.294   4.128  12.777  0.6164 -1.4501 -0.1132
 7989TIP3   OH245457   3.401   2.870   1.611  0.7294 -0.3224 -0.2433
 7989TIP3    H145458   3.484   2.903   1.645 -0.1002  1.0385  0.5355
 7989TIP3    H245459   3.336   2.931   1.645 -0.5468 -1.1349 -1.1833
 7990TIP3   OH245460   5.288   6.075   2.653  0.0531  0.1883  0.4499
 7990TIP3    H145461   5.208   6.035   2.619  2.8489 -3.6355 -2.6172
 7990TIP3    H245462   5.298   6.156   2.602 -2.7057  1.9162  2.3950
 7991TIP3   OH245463   5.126   0.828   1.338 -0.4782 -0.3182  0.3487
 7991TIP3    H145464   5.188   0.761   1.365 -1.6498 -2.3082 -1.5832
 7991TIP3    H245465   5.096   0.867   1.420 -0.0679 -2.4523  1.5898
 7992TIP3   OH245466   5.916   4.689   1.511 -0.0937 -0.4711 -0.3570
 7992TIP3    H145467   5.998   4.734   1.531 -0.2912  0.2417 -1.0949
 7992TIP3    H245468   5.935   4.596   1.525  0.9627 -0.3515 -0.9482
 7993TIP3   OH245469   0.373   2.396  12.812  0.4536  0.1549  0.3654
 7993TIP3    H145470   0.284   2.412  12.841  0.9084  0.9245  1.4012
 7993TIP3    H245471   0.364   2.347  12.731 -0.9101  0.3771  0.3710
 7994TIP3   OH245472   5.572   5.470   4.571  0.5099  0.1649  0.1789
 7994TIP3    H145473   5.496   5.464   4.514  0.3796  2.5503 -0.0183
 7994TIP3    H245474   5.624   5.392   4.552 -1.4454 -1.0688 -0.2950
 7995TIP3   OH245475   2.470   5.344   0.620 -0.4296  0.0877  0.1380
 7995TIP3    H145476   2.504   5.426   0.583 -0.6209  0.1652  0.1348
 7995TIP3    H245477   2.523   5.276   0.579 -2.0339  0.0056 -1.9196
 7996TIP3   OH245478   2.952   0.307   0.644 -0.1306  0.5353 -0.3273
 7996TIP3    H145479   3.014   0.341   0.708  0.9861 -0.8106 -0.6402
 7996TIP3    H245480   2.921   0.225   0.682  1.1032 -0.6659 -1.7571
 7997TIP3   OH245481   4.215   1.011   5.350 -0.0204 -0.5707  1.0535
 7997TIP3    H145482   4.277   0.942   5.328 -1.2074 -1.3446  0.0253
 7997TIP3    H245483   4.207   1.006   5.446 -0.4782 -2.2232  0.9556
 7998TIP3   OH245484   3.878   4.306   0.998 -0.1138 -0.0991  0.1280
 7998TIP3    H145485   3.799   4.345   0.962  0.3312 -0.0648 -0.8553
 7998TIP3    H245486   3.859   4.292   1.091 -1.5745 -0.9008 -0.2706
 7999TIP3   OH245487   2.488   5.635   2.812  0.5761 -0.0201 -0.0256
 7999TIP3    H145488   2.577   5.616   2.783  0.4994 -2.7277  1.1664
 7999TIP3    H245489   2.499   5.684   2.894  1.0107 -0.5467  0.2399
 8000TIP3   OH245490   6.495   1.072   2.953 -0.5618  0.0890 -0.2328
 8000TIP3    H145491   6.566   1.126   2.988 -0.6077  0.0065 -0.0071
 8000TIP3    H245492   6.533   1.029   2.876 -0.1900 -0.3892  0.2063
 8001TIP3   OH245493   0.775   1.565  14.923 -0.1151 -0.5363 -0.1735
 8001TIP3    H145494   0.839   1.498  14.945  1.1201  0.6935  0.1737
 8001TIP3    H245495   0.703   1.551  14.984  0.6229 -0.8526  0.6538
 8002TIP3   OH245496   3.111   4.819  15.926 -0.3105 -0.4027  0.2266
 8002TIP3    H145497   3.120   4.735  15.881 -0.7457 -0.5229  0.3527
 8002TIP3    H245498   3.034   4.859  15.885  0.7203  0.5638 -0.8104
 8003TIP3   OH245499   0.938   1.456  16.143  0.0816  0.0536 -0.1309
 8003TIP3    H145500   1.028   1.480  16.168  1.0341 -2.1859 -1.1402
 8003TIP3    H245501   0.899   1.422  16.223 -0.1186  1.5688  0.4589
 8004TIP3   OH245502   0.025   2.567  13.945 -0.1121 -0.8130  0.1695
 8004TIP3    H145503   0.048   2.551  13.854 -1.1801 -3.3770  0.2666
 8004TIP3    H245504   0.109   2.569  13.991  0.4001  0.0386 -0.7597
 8005TIP3   OH245505   0.840   6.189   5.124  0.2991  0.2951  0.1468
 8005TIP3    H145506   0.827   6.267   5.179  0.9901  0.7277 -0.2974
 8005TIP3    H245507   0.906   6.137   5.170  0.4955  0.4065 -0.0076
 8006TIP3   OH245508   0.657   1.942   4.784 -0.0362 -0.2439  0.3785
 8006TIP3    H145509   0.593   1.942   4.712  0.9006 -0.2044 -0.4778
 8006TIP3    H245510   0.603   1.940   4.863 -1.1676  1.4296 -0.2715
 8007TIP3   OH245511   4.274   0.242   1.287 -0.3074  0.4146  0.0173
 8007TIP3    H145512   4.293   0.221   1.196  1.1360 -1.0732  0.6186
 8007TIP3    H245513   4.335   0.312   1.309 -0.6440  0.7619 -0.1438
 8008TIP3   OH245514   3.361   3.988   3.673  0.0486 -0.4732 -0.2742
 8008TIP3    H145515   3.342   3.895   3.666 -0.3865 -0.3039 -1.6819
 8008TIP3    H245516   3.387   4.014   3.585  0.5925  0.6478  0.1970
 8009TIP3   OH245517   0.126   2.330   1.638  1.0928 -0.4892 -0.1823
 8009TIP3    H145518   0.080   2.259   1.592  1.0864  1.1337 -2.8845
 8009TIP3    H245519   0.083   2.410   1.607  2.5602  0.8277  1.0318
 8010TIP3   OH245520   1.656   2.832  16.886 -0.1423 -0.0312  0.3137
 8010TIP3    H145521   1.725   2.897  16.899  1.2042 -1.0984 -1.1240
 8010TIP3    H245522   1.587   2.879  16.839  0.8352  0.3831 -0.7584
 8011TIP3   OH245523   0.203   5.244  14.743  0.2369  0.2530 -0.2713
 8011TIP3    H145524   0.267   5.272  14.677 -0.1508  0.1028 -0.7160
 8011TIP3    H245525   0.251   5.183  14.799  0.4760  0.1271 -0.6149
 8012TIP3   OH245526   2.664   5.317   3.364  0.5591  0.1404 -0.5397
 8012TIP3    H145527   2.734   5.365   3.408 -1.4835  1.3052  1.6746
 8012TIP3    H245528   2.675   5.339   3.272  2.7173  0.7219 -0.2099
 8013TIP3   OH245529   1.436   2.375   0.787  0.1876 -0.3046  0.0616
 8013TIP3    H145530   1.485   2.293   0.791 -0.2303 -0.5176  3.2128
 8013TIP3    H245531   1.345   2.349   0.797 -0.0413  0.4615  0.0159
 8014TIP3   OH245532   4.526   2.513  12.966 -0.2685  0.1090 -0.4521
 8014TIP3    H145533   4.458   2.564  12.923 -0.1541 -0.0545 -0.8330
 8014TIP3    H245534   4.577   2.476  12.894 -0.9950 -1.4296 -0.2052
 8015TIP3   OH245535   1.889   4.008   3.342 -0.2244  0.0958  0.1681
 8015TIP3    H145536   1.984   4.019   3.349  0.2567 -2.7538 -0.7607
 8015TIP3    H245537   1.866   3.945   3.409 -1.5473  0.9418  0.5542
 8016TIP3   OH245538   4.718   3.060  11.944  0.1734 -0.2749 -0.6202
 8016TIP3    H145539   4.674   3.138  11.911 -0.3423  0.0539  0.7881
 8016TIP3    H245540   4.802   3.058  11.898 -0.2083  0.5644 -1.3781
 8017TIP3   OH245541   1.047   4.156   7.018 -0.6327 -0.1470 -0.2045
 8017TIP3    H145542   1.004   4.187   6.939  0.0019  0.2879 -0.3913
 8017TIP3    H245543   1.125   4.212   7.026  0.1567 -1.2200 -0.1539
 8018TIP3   OH245544   5.217   3.604   3.923 -0.1693 -0.1148 -0.2332
 8018TIP3    H145545   5.157   3.615   3.850 -0.0506  2.3657 -0.0453
 8018TIP3    H245546   5.300   3.642   3.893 -0.2940  1.5421  1.3272
 8019TIP3   OH245547   0.749   0.251   3.060  0.4188  0.4216 -0.1760
 8019TIP3    H145548   0.775   0.205   2.980 -0.1161  1.2697 -0.8709
 8019TIP3    H245549   0.817   0.317   3.073 -0.2413  1.2550 -0.7974
 8020TIP3   OH245550   1.574   1.964  13.634 -0.4976  0.1020 -0.1608
 8020TIP3    H145551   1.663   1.999  13.646  0.1064 -1.2263 -0.5315
 8020TIP3    H245552   1.549   1.993  13.546  0.2681 -0.8858 -0.7356
 8021TIP3   OH245553   2.692   4.241   0.414 -0.2799 -0.0226 -0.0736
 8021TIP3    H145554   2.761   4.183   0.383  0.2022 -1.0584  2.6537
 8021TIP3    H245555   2.716   4.327   0.381  1.0055 -0.7581 -1.1341
 8022TIP3   OH245556   4.705   3.302   4.189 -0.8928 -0.4380 -0.1410
 8022TIP3    H145557   4.738   3.389   4.167  0.6784 -1.0680 -0.4205
 8022TIP3    H245558   4.632   3.288   4.129 -0.6416  0.3630 -0.6529
 8023TIP3   OH245559   6.098   2.939  11.754 -0.1306  0.4894  0.6911
 8023TIP3    H145560   6.084   2.960  11.846  4.8419  0.8367  1.6292
 8023TIP3    H245561   6.152   3.011  11.721  1.7846 -1.6908 -1.2337
 8024TIP3   OH245562   6.488   1.605   4.445  0.0718  0.6553  0.0937
 8024TIP3    H145563   6.464   1.692   4.476  0.3442  0.8029 -0.1011
 8024TIP3    H245564   6.458   1.546   4.513 -2.6167  0.6289 -1.0131
 8025TIP3   OH245565   1.634   6.043  16.306  0.5943  0.1639  0.0156
 8025TIP3    H145566   1.617   6.049  16.400 -1.0211 -2.2933 -0.0220
 8025TIP3    H245567   1.680   5.960  16.295 -2.0633 -1.2045 -1.6209
 8026TIP3   OH245568   2.324   6.358  11.244  0.2977 -0.0829  0.5572
 8026TIP3    H145569   2.377   6.319  11.175  1.7815  2.3345  0.2323
 8026TIP3    H245570   2.361   6.324  11.325 -0.6045 -1.8958  0.2536
 8027TIP3   OH245571   2.498   5.627  15.840 -0.1858  0.1967  0.6843
 8027TIP3    H145572   2.523   5.716  15.865 -1.0336  0.6239  0.0950
 8027TIP3    H245573   2.485   5.581  15.923  1.7738  0.1430  1.0088
 8028TIP3   OH245574   5.642   4.957  16.156  0.4245  0.3248 -0.2624
 8028TIP3    H145575   5.554   4.946  16.192  0.4852 -0.5550 -0.3682
 8028TIP3    H245576   5.637   5.038  16.106 -1.0165 -0.8887 -2.2366
 8029TIP3   OH245577   0.379   2.810  16.605 -0.2535 -0.4782  0.1194
 8029TIP3    H145578   0.385   2.905  16.617  0.7727 -0.7109  1.8125
 8029TIP3    H245579   0.313   2.782  16.668 -1.9589 -0.7453 -1.6626
 8030TIP3   OH245580   3.069   0.919  16.603 -0.1974 -0.7159  1.1035
 8030TIP3    H145581   3.072   0.835  16.650  1.9802 -1.3765 -0.0801
 8030TIP3    H245582   3.094   0.897  16.514 -0.8566  1.0366  0.4473
 8031TIP3   OH245583   1.859   6.430   3.071  0.4299  0.4075 -0.5564
 8031TIP3    H145584   1.889   6.520   3.082 -0.0443  0.4738  0.2260
 8031TIP3    H245585   1.775   6.427   3.116  0.3674 -0.3843 -0.7187
 8032TIP3   OH245586   6.480   0.824   3.952  0.7562  0.1348  0.2451
 8032TIP3    H145587   6.448   0.804   4.040  0.1960  0.1362  0.0424
 8032TIP3    H245588   6.554   0.884   3.967 -1.1181  2.4791  0.6165
 8033TIP3   OH245589   4.476   0.670  15.791  0.0792  0.5881 -0.0006
 8033TIP3    H145590   4.437   0.584  15.774 -1.4662  1.2130  0.1629
 8033TIP3    H245591   4.455   0.721  15.712  0.7223  0.8986  0.0261
 8034TIP3   OH245592   3.596   5.050   0.527 -0.0467  0.3418  0.3332
 8034TIP3    H145593   3.610   4.987   0.598  2.2132  1.5703  1.0791
 8034TIP3    H245594   3.619   5.002   0.447  4.7125  0.8015  1.1069
 8035TIP3   OH245595   4.084   4.726   5.090 -0.2631  0.2990 -0.0508
 8035TIP3    H145596   3.993   4.716   5.060 -0.5905 -2.4463  1.5520
 8035TIP3    H245597   4.076   4.752   5.181  0.6105  1.2226 -0.2227
 8036TIP3   OH245598   0.572   4.896  15.530  0.1302 -0.0122 -0.4329
 8036TIP3    H145599   0.553   4.959  15.600 -1.6842  1.1337 -1.8723
 8036TIP3    H245600   0.493   4.842  15.526  1.4024 -2.0287  0.3341
 8037TIP3   OH245601   0.924   1.670  13.442  0.1306 -0.7721 -0.3064
 8037TIP3    H145602   0.832   1.692  13.429 -0.0369 -1.2139  0.0965
 8037TIP3    H245603   0.970   1.753  13.433 -0.2907 -0.5740 -0.6661
 8038TIP3   OH245604   5.401   3.325   5.139  0.0070 -0.0161 -0.2780
 8038TIP3    H145605   5.328   3.276   5.177 -2.0219  0.9927 -2.6035
 8038TIP3    H245606   5.429   3.384   5.209 -0.0562 -1.7418  1.2901
 8039TIP3   OH245607   2.055   0.790  15.820 -0.0109  0.5064 -0.0432
 8039TIP3    H145608   2.082   0.879  15.847 -0.4344  0.4975  0.4146
 8039TIP3    H245609   2.017   0.802  15.733 -0.2489  0.8087  0.0991
 8040TIP3   OH245610   5.723   2.572   5.816 -0.2916  0.1009 -0.2573
 8040TIP3    H145611   5.782   2.497   5.808  2.2024  2.1066 -2.1735
 8040TIP3    H245612   5.657   2.557   5.748 -0.1652 -0.6217 -0.2329
 8041TIP3   OH245613   1.999   4.805   3.354  0.7807  0.0621 -0.3510
 8041TIP3    H145614   1.975   4.850   3.273 -2.2443 -1.0963 -0.2280
 8041TIP3    H245615   1.980   4.869   3.423  0.7085  0.1184 -0.4228
 8042TIP3   OH245616   0.959   2.243  16.447 -0.6826 -0.1107  0.0575
 8042TIP3    H145617   0.930   2.183  16.516 -1.1516  0.1338  0.0757
 8042TIP3    H245618   0.984   2.186  16.374  2.8406 -0.6299  1.4510
 8043TIP3   OH245619   4.684   5.752   2.978  0.3469  0.0538 -0.8964
 8043TIP3    H145620   4.778   5.765   2.965  0.5256  1.4551  1.3150
 8043TIP3    H245621   4.671   5.658   2.966  2.0910 -0.2267 -0.8421
 8044TIP3   OH245622   1.514   3.241  14.671 -0.7128  0.0690 -0.3715
 8044TIP3    H145623   1.584   3.202  14.725  0.4904  0.4624 -1.5928
 8044TIP3    H245624   1.539   3.333  14.663 -1.4766  0.2517 -0.6899
 8045TIP3   OH245625   2.579   1.239   6.580  0.4727 -0.0251  0.1819
 8045TIP3    H145626   2.502   1.287   6.548  1.9241  1.1472 -1.7798
 8045TIP3    H245627   2.612   1.292   6.652 -0.4302 -0.4599  0.9410
 8046TIP3   OH245628   3.292   4.378  11.703  0.4004  0.4544  0.5394
 8046TIP3    H145629   3.271   4.471  11.708 -2.0124 -0.0887  2.2614
 8046TIP3    H245630   3.301   4.350  11.794  0.5443 -1.0924  0.0794
 8047TIP3   OH245631   2.574   0.966  15.738  0.4299 -0.0894 -0.3970
 8047TIP3    H145632   2.483   0.947  15.715  0.1186  0.1381  0.5869
 8047TIP3    H245633   2.587   0.922  15.821  1.2458 -0.1644 -0.5599
 8048TIP3   OH245634   5.112   5.578  15.467 -0.2357  0.0000 -0.0285
 8048TIP3    H145635   5.105   5.610  15.377  2.5242  0.7865 -0.0500
 8048TIP3    H245636   5.180   5.511  15.463 -1.0925 -1.0086  1.2637
 8049TIP3   OH245637   0.301   0.892   5.497  0.2070 -0.3897 -0.2313
 8049TIP3    H145638   0.359   0.941   5.555 -0.5666 -1.4436  1.5286
 8049TIP3    H245639   0.359   0.836   5.446  0.8905  0.2557 -0.1715
 8050TIP3   OH245640   6.041   5.774   5.829 -0.6186  0.0092  0.2760
 8050TIP3    H145641   5.979   5.820   5.886 -1.6399 -0.2536 -0.5854
 8050TIP3    H245642   5.987   5.715   5.778  0.3783 -0.3387 -0.4083
 8051TIP3   OH245643   6.509   6.750   0.083  0.7903 -0.9031  0.7909
 8051TIP3    H145644   6.529   6.842   0.096 -0.6267 -0.6714  1.6254
 8051TIP3    H245645   6.564   6.723   0.010  1.5468  0.4819  0.8120
 8052TIP3   OH245646   4.383   2.887  14.977  0.5886 -1.0052  0.5722
 8052TIP3    H145647   4.458   2.942  15.000  0.7170 -0.4035 -1.1305
 8052TIP3    H245648   4.395   2.869  14.884 -1.8193 -0.2070  0.0584
 8053TIP3   OH245649   3.817   5.688   4.014  0.1952  0.1599 -0.8031
 8053TIP3    H145650   3.809   5.638   3.933  0.0946  1.0365 -1.3496
 8053TIP3    H245651   3.789   5.777   3.990 -2.5151 -0.1448  0.8401
 8054TIP3   OH245652   5.979   3.433  12.401  0.0555  0.0194  0.2101
 8054TIP3    H145653   6.017   3.496  12.340  1.4400 -2.1779 -1.3823
 8054TIP3    H245654   6.053   3.404  12.455 -0.4840 -0.4174  0.7303
 8055TIP3   OH245655   1.019   0.046  15.528  0.5903 -0.1194  0.2166
 8055TIP3    H145656   1.005   0.114  15.462 -0.3514 -1.0321 -0.5515
 8055TIP3    H245657   1.092  -0.006  15.493 -0.3589 -1.0180 -0.4771
 8056TIP3   OH245658   6.012   6.332   3.390 -0.9019  1.1429 -0.2229
 8056TIP3    H145659   6.012   6.373   3.477 -0.8849 -1.4798  1.1333
 8056TIP3    H245660   6.069   6.387   3.337  0.1490  2.1177  1.7987
 8057TIP3   OH245661   6.652   2.872  12.094 -0.1250  0.2409 -0.4030
 8057TIP3    H145662   6.743   2.897  12.110 -0.4306  1.7989 -0.9970
 8057TIP3    H245663   6.659   2.795  12.037  0.8211  1.1157 -1.5124
 8058TIP3   OH245664   5.829   1.511   4.666  0.5777 -0.1547 -0.0429
 8058TIP3    H145665   5.783   1.540   4.745 -1.3413 -1.7466 -0.5219
 8058TIP3    H245666   5.868   1.427   4.690  0.4528 -0.3801 -0.6193
 8059TIP3   OH245667   5.222   2.888  11.265 -0.0079  0.2789  0.3192
 8059TIP3    H145668   5.163   2.817  11.240  0.4237 -0.0693  0.2828
 8059TIP3    H245669   5.297   2.879  11.206  0.1533  0.6273  0.4673
 8060TIP3   OH245670   1.522   2.516  12.118  0.1603  0.4547 -0.5679
 8060TIP3    H145671   1.479   2.470  12.191  2.4088 -1.3210 -0.2498
 8060TIP3    H245672   1.541   2.603  12.153  0.4341 -0.0864  0.7105
 8061TIP3   OH245673   0.178   2.033  10.351  0.1533 -0.0968 -0.2460
 8061TIP3    H145674   0.229   1.953  10.360  1.3767  0.8256  2.1284
 8061TIP3    H245675   0.227   2.087  10.289 -0.6806 -1.1311 -1.8567
 8062TIP3   OH245676   5.370   0.012   0.015 -0.3521 -0.5012  0.2759
 8062TIP3    H145677   5.372   0.107   0.019  0.3705 -0.3350 -2.0366
 8062TIP3    H245678   5.325  -0.007  -0.068 -0.7208 -2.1798  0.8234
 8063TIP3   OH245679   1.122   3.454  16.968 -0.3443  0.1088  0.4339
 8063TIP3    H145680   1.211   3.471  16.936 -1.1921  3.7640 -0.5240
 8063TIP3    H245681   1.123   3.487  17.058 -0.8726  0.8763  0.1703
 8064TIP3   OH245682   3.683   5.364  13.106  0.0649 -0.1454 -0.0056
 8064TIP3    H145683   3.693   5.422  13.181 -2.3227  1.4504 -0.8173
 8064TIP3    H245684   3.762   5.310  13.107  1.4089  1.6939  2.0026
 8065TIP3   OH245685   6.388   6.361   3.470 -0.0661 -0.2046  0.2256
 8065TIP3    H145686   6.358   6.272   3.489  1.4891 -0.2083  3.2850
 8065TIP3    H245687   6.332   6.418   3.524 -0.0022  0.5272 -0.4597
 8066TIP3   OH245688   5.151   4.359  10.631 -0.4728 -0.1563  0.1518
 8066TIP3    H145689   5.060   4.389  10.622 -0.5361 -0.8003 -1.6352
 8066TIP3    H245690   5.203   4.424  10.583 -0.0599 -0.2257  0.4961
 8067TIP3   OH245691   0.758   5.127  12.835 -0.0024 -0.4103 -1.0671
 8067TIP3    H145692   0.750   5.222  12.847 -1.8449 -0.5905 -0.4699
 8067TIP3    H245693   0.668   5.097  12.822 -0.0492 -2.5394  2.6809
 8068TIP3   OH245694   4.001   5.793   4.992  0.0668 -0.1162 -0.1690
 8068TIP3    H145695   4.082   5.823   4.950 -0.7083 -0.4856 -2.0514
 8068TIP3    H245696   3.950   5.873   5.004  1.8076  0.6333  3.9140
 8069TIP3   OH245697   0.866   4.085   1.541  0.0893 -0.1185  0.2806
 8069TIP3    H145698   0.877   3.997   1.505  1.0395 -0.1167  0.5343
 8069TIP3    H245699   0.772   4.103   1.534  0.0078 -0.8114 -0.5587
 8070TIP3   OH245700   1.208   3.539  10.842  0.3987 -0.2735  0.1978
 8070TIP3    H145701   1.247   3.615  10.885  0.0616 -0.1271  0.2446
 8070TIP3    H245702   1.201   3.563  10.750 -2.2200  0.8191  0.6196
 8071TIP3   OH245703   3.049   5.363  13.004  0.3008 -0.0251 -0.0685
 8071TIP3    H145704   3.033   5.312  12.925  0.6962 -2.0203  1.0707
 8071TIP3    H245705   3.050   5.298  13.074 -0.4751  1.7394  1.6502
 8072TIP3   OH245706   2.521   1.881  12.602 -0.0786  0.0289  0.6958
 8072TIP3    H145707   2.495   1.913  12.688 -0.6160 -1.0583  0.9539
 8072TIP3    H245708   2.439   1.868  12.555  0.1923  0.2454  0.1533
 8073TIP3   OH245709   1.152   6.291  15.290 -0.3070 -0.3877 -0.2541
 8073TIP3    H145710   1.107   6.366  15.328  3.0305  1.6199  0.1936
 8073TIP3    H245711   1.128   6.294  15.197 -3.1304 -1.1540  0.3585
 8074TIP3   OH245712   4.707   2.112   4.370  0.5312 -0.6039 -0.0539
 8074TIP3    H145713   4.729   2.153   4.453 -1.6769 -0.4629  0.5010
 8074TIP3    H245714   4.714   2.182   4.306 -0.7806  0.0776  0.5150
 8075TIP3   OH245715   4.350   1.876   4.467 -0.5010 -0.2925 -0.1619
 8075TIP3    H145716   4.443   1.868   4.487 -0.4585 -0.0750 -0.2681
 8075TIP3    H245717   4.316   1.936   4.534 -0.5951 -0.4875 -0.0341
 8076TIP3   OH245718   0.821   1.112   3.367  0.1835  0.3137 -0.6969
 8076TIP3    H145719   0.741   1.163   3.353  0.0631 -0.0996 -1.6470
 8076TIP3    H245720   0.872   1.126   3.287  1.3346  1.0283  0.1316
 8077TIP3   OH245721   4.783   2.247   3.257  0.0794  0.1989 -0.3341
 8077TIP3    H145722   4.717   2.305   3.217  1.1775  1.5102 -0.3154
 8077TIP3    H245723   4.840   2.223   3.184 -0.6453 -1.3189 -0.4429
 8078TIP3   OH245724   0.903   4.921   5.839 -0.0459  0.3482 -0.3448
 8078TIP3    H145725   0.900   5.010   5.802  0.1442  0.6154  0.2659
 8078TIP3    H245726   0.842   4.925   5.914 -0.5437 -0.2249 -0.7072
 8079TIP3   OH245727   1.800   6.713   4.820 -0.1891 -0.3227 -0.4286
 8079TIP3    H145728   1.717   6.740   4.782 -0.8746 -1.9812 -0.1652
 8079TIP3    H245729   1.778   6.640   4.878  1.2805  0.0342  0.6351
 8080TIP3   OH245730   4.166   4.429   6.253  0.0074 -0.1356 -0.1277
 8080TIP3    H145731   4.160   4.352   6.197  2.6426  0.5495 -1.5417
 8080TIP3    H245732   4.247   4.472   6.226 -2.0412  4.0102 -0.5463
 8081TIP3   OH245733   5.425   3.876   4.965  0.5555  0.2608 -0.2112
 8081TIP3    H145734   5.335   3.882   4.998  0.1914  1.1715 -1.2805
 8081TIP3    H245735   5.448   3.784   4.975 -0.4403  0.0490  0.2408
 8082TIP3   OH245736   3.645   5.236   0.196 -0.3453 -0.2622 -0.7347
 8082TIP3    H145737   3.736   5.252   0.218 -0.1034 -2.8660  0.6277
 8082TIP3    H245738   3.604   5.212   0.279 -1.2124 -3.2166 -1.8709
 8083TIP3   OH245739   0.856   5.375  12.603 -0.5448  0.6834 -0.0131
 8083TIP3    H145740   0.915   5.303  12.578 -1.0539  0.2421  0.0521
 8083TIP3    H245741   0.770   5.348  12.571 -0.8116  1.0880  0.3571
 8084TIP3   OH245742   1.964   4.389  12.217  1.0423  0.2725  0.4132
 8084TIP3    H145743   1.968   4.326  12.145  1.7234  1.2927 -0.4704
 8084TIP3    H245744   1.972   4.475  12.174  2.9585  0.8598  1.8180
 8085TIP3   OH245745   1.367   0.256   1.439  0.1904 -0.1064 -0.5691
 8085TIP3    H145746   1.441   0.290   1.490  0.0406  2.5637 -1.9824
 8085TIP3    H245747   1.404   0.233   1.354 -0.3732 -0.0326 -0.8385
 8086TIP3   OH245748   3.461   0.088  10.645  0.4355  0.1637  0.2665
 8086TIP3    H145749   3.462   0.020  10.713 -0.7546 -1.4046 -1.2044
 8086TIP3    H245750   3.538   0.068  10.591  0.6524  0.6279  0.4005
 8087TIP3   OH245751   0.706   0.601   0.312 -0.2900  0.0210 -0.6948
 8087TIP3    H145752   0.800   0.581   0.310 -0.2530  0.2231 -1.1035
 8087TIP3    H245753   0.701   0.695   0.293 -0.5323  0.1673  0.0518
 8088TIP3   OH245754   3.175   3.729   4.080  0.3758  0.0236  0.0368
 8088TIP3    H145755   3.257   3.778   4.073  0.3249  0.3630  1.5554
 8088TIP3    H245756   3.157   3.725   4.174 -1.1593 -0.3797 -0.2504
 8089TIP3   OH245757   6.745   0.167  16.350  0.0103  0.8538 -0.0384
 8089TIP3    H145758   6.725   0.185  16.258  0.6430 -1.5471 -0.7086
 8089TIP3    H245759   6.660   0.153  16.392 -0.2094  0.0906 -0.7142
 8090TIP3   OH245760   2.230   3.021  12.128  0.7201  0.5328 -0.0952
 8090TIP3    H145761   2.231   3.101  12.180 -0.7344 -0.1267  0.9998
 8090TIP3    H245762   2.138   3.005  12.109  1.1320  0.0758 -1.8518
 8091TIP3   OH245763   3.456   0.085  16.864 -0.0518 -0.5560  0.6925
 8091TIP3    H145764   3.436   0.162  16.812  0.9122  1.4165  3.0249
 8091TIP3    H245765   3.390   0.085  16.933  1.3769 -0.3361  2.1204
 8092TIP3   OH245766   5.090   3.178  13.179 -0.1672  0.1212 -0.2059
 8092TIP3    H145767   5.080   3.137  13.093  1.5809 -1.8984  0.4642
 8092TIP3    H245768   5.184   3.187  13.191 -0.3929  0.8407  1.3132
 8093TIP3   OH245769   6.842   1.194   3.291  0.1748 -0.0020  0.5262
 8093TIP3    H145770   6.897   1.269   3.314 -0.1364  0.4341 -0.1274
 8093TIP3    H245771   6.760   1.232   3.260  0.9399 -0.4912 -2.3429
 8094TIP3   OH245772   5.491   2.391   1.570 -0.3389 -0.6347  0.5615
 8094TIP3    H145773   5.545   2.376   1.493 -1.4375 -1.2451 -0.1267
 8094TIP3    H245774   5.447   2.308   1.586 -1.0097 -0.1904  1.1356
 8095TIP3   OH245775   2.836   3.981  15.408  0.3145 -0.0505  0.6856
 8095TIP3    H145776   2.756   4.032  15.415 -0.9827 -2.0203  1.3253
 8095TIP3    H245777   2.816   3.914  15.342  2.1915  0.6609 -0.6556
 8096TIP3   OH245778   0.448   4.965   0.886 -0.4190 -0.5997 -0.9280
 8096TIP3    H145779   0.430   4.995   0.976 -2.6138  2.9917 -2.3331
 8096TIP3    H245780   0.462   4.871   0.895 -1.5517 -0.5955  3.0607
 8097TIP3   OH245781   2.223   4.310   0.729 -0.0347 -0.0451  0.2607
 8097TIP3    H145782   2.281   4.254   0.678 -0.9270  0.2255 -1.1059
 8097TIP3    H245783   2.258   4.398   0.716 -1.1939  0.2388 -1.3120
 8098TIP3   OH245784   1.322   0.336   3.788 -0.7241 -0.1043 -0.4484
 8098TIP3    H145785   1.282   0.419   3.815 -2.6909 -1.1737  0.1142
 8098TIP3    H245786   1.376   0.359   3.713  0.3692  2.0156  0.8857
 8099TIP3   OH245787   4.547   1.631   6.401  0.5519  0.6260  0.0273
 8099TIP3    H145788   4.475   1.674   6.355  1.7990  1.7041 -0.9881
 8099TIP3    H245789   4.599   1.702   6.438  1.1206 -0.1288  0.7326
 8100TIP3   OH245790   0.984   3.700   1.812 -0.0861 -0.1464 -0.1942
 8100TIP3    H145791   0.984   3.650   1.894 -0.6006  0.9553  0.5011
 8100TIP3    H245792   1.038   3.777   1.831 -0.5338  0.3188 -0.7710
 8101TIP3   OH245793   4.001   6.808   1.555  0.6557 -0.6165 -0.0707
 8101TIP3    H145794   3.952   6.880   1.514 -0.6319 -1.6051 -0.3280
 8101TIP3    H245795   3.943   6.732   1.547  0.8166 -1.1139  2.5851
 8102TIP3   OH245796   5.331   4.145   2.516  0.4279  0.0233  0.4348
 8102TIP3    H145797   5.358   4.100   2.436  1.5833  2.2237 -0.5287
 8102TIP3    H245798   5.356   4.086   2.587  1.0161 -1.2182 -0.7658
 8103TIP3   OH245799   1.247   5.871  16.409 -0.2994  0.9626  0.2439
 8103TIP3    H145800   1.284   5.937  16.350  0.4216  0.6576  0.3463
 8103TIP3    H245801   1.315   5.857  16.475  0.9828 -2.1566 -1.5052
 8104TIP3   OH245802   5.997   5.219   5.391 -0.0192  0.3185 -0.3205
 8104TIP3    H145803   6.042   5.174   5.462  0.4181 -0.6699 -1.1972
 8104TIP3    H245804   5.909   5.181   5.390 -0.0740  0.4431 -0.2063
 8105TIP3   OH245805   6.059   4.911   4.126 -0.0741 -0.3022  0.0817
 8105TIP3    H145806   6.000   4.900   4.201 -1.2341 -1.4939 -0.9592
 8105TIP3    H245807   6.127   4.845   4.140  0.9262  0.9123  1.1604
 8106TIP3   OH245808   6.249   3.457  11.180  0.4284  0.0011  0.2349
 8106TIP3    H145809   6.172   3.428  11.230 -0.0869 -0.1650 -0.6349
 8106TIP3    H245810   6.215   3.478  11.094  1.3390  0.1243 -0.1068
 8107TIP3   OH245811   1.202   4.015   1.204  0.2736  0.0625  0.2919
 8107TIP3    H145812   1.125   4.022   1.148  0.1700  0.5348  0.4900
 8107TIP3    H245813   1.202   4.096   1.255  0.8564  0.0290  0.3496
 8108TIP3   OH245814   5.120   3.447  14.472 -0.0127  0.2189 -0.2470
 8108TIP3    H145815   5.116   3.400  14.388  1.1086 -1.2845  0.4946
 8108TIP3    H245816   5.162   3.385  14.532 -0.8920  1.2232  1.4666
 8109TIP3   OH245817   2.458   5.859   4.852 -0.2103 -0.0539 -0.2511
 8109TIP3    H145818   2.402   5.874   4.775  1.0191 -0.3116 -1.2347
 8109TIP3    H245819   2.471   5.946   4.889  0.9013  0.4060 -1.6141
 8110TIP3   OH245820   3.871   0.106   3.836 -0.2359  0.1577 -0.1028
 8110TIP3    H145821   3.931   0.047   3.883 -0.0832  0.0912 -0.3797
 8110TIP3    H245822   3.907   0.193   3.851 -0.7623  0.2399  0.7553
 8111TIP3   OH245823   3.884   0.298  16.951 -0.1932 -0.4407 -0.5266
 8111TIP3    H145824   3.975   0.316  16.974 -0.1114  0.6024 -1.5667
 8111TIP3    H245825   3.882   0.303  16.855 -1.3302 -0.5584 -0.5245
 8112TIP3   OH245826   6.381   0.685  13.492 -0.0293 -0.8233 -0.0656
 8112TIP3    H145827   6.379   0.673  13.397 -0.6442 -3.8506  0.2322
 8112TIP3    H245828   6.331   0.766  13.507  1.7613  0.8420 -2.3570
 8113TIP3   OH245829   0.097   5.095   0.440  1.0521 -0.5391  0.0299
 8113TIP3    H145830   0.137   5.014   0.410 -2.0021 -2.0818 -0.3331
 8113TIP3    H245831   0.122   5.160   0.375  0.4528 -2.1506 -1.9083
 8114TIP3   OH245832   5.504   2.216  15.749 -0.4379  0.2485  0.3942
 8114TIP3    H145833   5.596   2.224  15.775 -0.4442  0.3509  0.3853
 8114TIP3    H245834   5.455   2.244  15.827 -0.4871 -1.0723  0.8762
 8115TIP3   OH245835   3.873   0.740  16.612 -0.2198 -0.2322  0.1994
 8115TIP3    H145836   3.784   0.773  16.601  0.5768  1.9079 -0.4863
 8115TIP3    H245837   3.899   0.771  16.699  0.7527  1.6748 -0.6989
 8116TIP3   OH245838   3.866   1.172   0.579  0.4194  0.6473  0.7423
 8116TIP3    H145839   3.884   1.079   0.581 -0.7337  0.2187 -2.4250
 8116TIP3    H245840   3.952   1.214   0.573  0.8790 -0.3474  0.2343
 8117TIP3   OH245841   5.746   0.390   5.862 -0.7870 -0.1869  0.0301
 8117TIP3    H145842   5.652   0.377   5.847 -0.7210 -0.4748 -0.1368
 8117TIP3    H245843   5.762   0.480   5.835 -0.8366 -0.4239 -0.8303
 8118TIP3   OH245844   4.994   0.489   1.645  0.5152  0.8319 -0.0198
 8118TIP3    H145845   5.005   0.502   1.739  1.3066 -1.7860  0.3311
 8118TIP3    H245846   4.926   0.551   1.620  0.6288  1.9287  2.1746
 8119TIP3   OH245847   4.289   0.422  14.744 -0.3262  0.1920 -0.2371
 8119TIP3    H145848   4.367   0.465  14.712 -0.0172 -0.9701 -1.1156
 8119TIP3    H245849   4.267   0.357  14.677 -1.4157 -0.2412  0.4969
 8120TIP3   OH245850   5.734   2.965   4.290  0.1644 -0.1278  0.3190
 8120TIP3    H145851   5.731   3.058   4.313 -1.8430 -0.3801  1.3144
 8120TIP3    H245852   5.738   2.963   4.195 -0.3702  0.9886  0.2625
 8121TIP3   OH245853   0.856   6.107   3.096 -0.0719  0.1896  0.1786
 8121TIP3    H145854   0.782   6.135   3.042 -0.5069 -1.0501  0.1071
 8121TIP3    H245855   0.862   6.174   3.164 -2.3834 -0.5465  1.2011
 8122TIP3   OH245856   3.327   2.474   1.169  0.4691 -0.4265 -0.1803
 8122TIP3    H145857   3.238   2.483   1.134  0.3396  0.3120  0.3180
 8122TIP3    H245858   3.327   2.387   1.209 -0.6414  0.2399  1.4181
 8123TIP3   OH245859   5.562   3.308  14.224 -0.1283 -0.3670 -0.2770
 8123TIP3    H145860   5.528   3.314  14.134  0.6775 -0.1737 -0.5731
 8123TIP3    H245861   5.640   3.363  14.224 -0.8060  0.6312  0.8771
 8124TIP3   OH245862   3.016   6.500   3.295  0.3593 -0.2711 -0.0319
 8124TIP3    H145863   3.019   6.459   3.209  0.3796 -0.2421 -0.0454
 8124TIP3    H245864   2.929   6.540   3.300  1.1059  1.5820 -0.9177
 8125TIP3   OH245865   0.074   3.208   1.124 -0.8389 -0.3548 -0.5755
 8125TIP3    H145866   0.078   3.299   1.093 -0.0977  0.0164  0.5407
 8125TIP3    H245867  -0.002   3.171   1.079  0.1386  0.1383 -2.8019
 8126TIP3   OH245868   5.422   4.240  13.444  0.0912 -0.0080  0.3228
 8126TIP3    H145869   5.514   4.217  13.461  0.4081  0.0220 -1.1465
 8126TIP3    H245870   5.386   4.163  13.402  0.2577  0.9370 -1.6830
 8127TIP3   OH245871   0.563   2.207   0.872  0.2056  0.1544  0.0396
 8127TIP3    H145872   0.483   2.210   0.924  0.3556  0.0271  0.2758
 8127TIP3    H245873   0.614   2.282   0.903  0.7109 -0.4703  0.7475
 8128TIP3   OH245874   2.786   5.655  14.812 -0.0810 -0.2531 -0.0883
 8128TIP3    H145875   2.808   5.741  14.777 -1.7441  0.6327  0.9668
 8128TIP3    H245876   2.694   5.643  14.790 -0.4834 -0.7582  1.7577
 8129TIP3   OH245877   3.492   2.855  16.338 -0.1882  0.7268  0.4015
 8129TIP3    H145878   3.581   2.879  16.364 -0.1739  0.5596  0.5041
 8129TIP3    H245879   3.447   2.939  16.327  0.1290  0.8289 -0.1633
 8130TIP3   OH245880   3.126   2.634  16.046  0.0451  0.1731  0.6464
 8130TIP3    H145881   3.125   2.604  16.137 -0.3667  0.3961  0.7208
 8130TIP3    H245882   3.118   2.729  16.052  0.8437  0.2641  0.3994
 8131TIP3   OH245883   0.136   4.392  15.162  0.9458 -0.0836 -0.5063
 8131TIP3    H145884   0.138   4.441  15.244  1.4043  2.5960 -2.0328
 8131TIP3    H245885   0.228   4.378  15.139  0.8198 -0.3394 -0.8707
 8132TIP3   OH245886   6.632   3.083  15.568 -0.1701  0.3930  0.2563
 8132TIP3    H145887   6.551   3.032  15.577 -0.1794  0.4763  0.6343
 8132TIP3    H245888   6.602   3.171  15.546 -0.1420  0.1363 -0.9184
 8133TIP3   OH245889   4.648   6.112   1.289 -0.0300  0.1385  0.2785
 8133TIP3    H145890   4.734   6.075   1.270  0.2153  0.6518  0.3644
 8133TIP3    H245891   4.660   6.162   1.370 -0.7191 -0.8283  0.9925
 8134TIP3   OH245892   4.160   2.998   1.658 -1.0133  0.3298  0.2519
 8134TIP3    H145893   4.167   3.077   1.605 -0.3583  0.1621  0.0755
 8134TIP3    H245894   4.237   2.947   1.635 -2.2595 -1.1323 -0.8821
 8135TIP3   OH245895   5.950   3.572   0.417 -0.1938 -0.0980  0.5382
 8135TIP3    H145896   5.890   3.588   0.490  0.5139  0.7079  0.9614
 8135TIP3    H245897   6.037   3.573   0.457  0.3108  1.6298 -0.4738
 8136TIP3   OH245898   5.812   5.493   1.913 -0.2213  0.3375  0.2028
 8136TIP3    H145899   5.725   5.465   1.944  0.0233  0.9398  1.5053
 8136TIP3    H245900   5.873   5.447   1.970  0.2384  1.7877  0.9140
 8137TIP3   OH245901   6.839   5.554   3.323 -0.2456 -0.1255 -0.3332
 8137TIP3    H145902   6.770   5.493   3.297  0.7772 -0.2317 -3.2547
 8137TIP3    H245903   6.914   5.497   3.343 -0.5011  0.0566  1.2632
 8138TIP3   OH245904   1.337   6.254   3.319  0.7640 -0.0206  0.2572
 8138TIP3    H145905   1.245   6.277   3.309  0.7183 -0.3391 -0.0683
 8138TIP3    H245906   1.349   6.245   3.413  0.0715 -1.5506  0.2256
 8139TIP3   OH245907   3.869   2.115   4.034  0.0001  0.4908 -0.4789
 8139TIP3    H145908   3.935   2.148   3.973  0.3488  1.0330  0.1787
 8139TIP3    H245909   3.918   2.063   4.098 -0.5913 -1.7685 -1.7545
 8140TIP3   OH245910   0.356   3.300   4.495 -0.4495  0.6125 -0.0291
 8140TIP3    H145911   0.262   3.307   4.476 -0.9994 -0.0741  2.1931
 8140TIP3    H245912   0.388   3.390   4.494 -1.8736  1.2284  2.4784
 8141TIP3   OH245913   3.237   5.527  13.116 -0.0729  0.1465  0.4608
 8141TIP3    H145914   3.164   5.530  13.178  0.0641 -1.8350  0.7992
 8141TIP3    H245915   3.212   5.460  13.053  1.4849 -0.6887  0.6673
 8142TIP3   OH245916   0.802   5.104   0.871  0.3407  0.3172 -0.6140
 8142TIP3    H145917   0.827   5.081   0.781  2.3399 -0.8420  0.1650
 8142TIP3    H245918   0.814   5.022   0.920 -2.7651  0.3436  0.3708
 8143TIP3   OH245919   1.948   3.157   1.240 -0.2442  0.3021 -0.2354
 8143TIP3    H145920   1.873   3.111   1.277 -0.2770  0.6009  0.0793
 8143TIP3    H245921   2.008   3.087   1.213 -0.1491  0.0677  0.5332
 8144TIP3   OH245922   5.055   0.248  10.488 -0.1577  0.2246  0.0982
 8144TIP3    H145923   5.067   0.197  10.568  0.9491  0.7124  0.2507
 8144TIP3    H245924   5.116   0.208  10.425 -0.8130  0.0260 -0.4294
 8145TIP3   OH245925   3.527   1.155   2.540 -0.0847  0.0623 -0.3910
 8145TIP3    H145926   3.492   1.076   2.580 -0.6906  0.1474 -0.7432
 8145TIP3    H245927   3.548   1.129   2.450 -2.1004  0.7678 -1.1199
 8146TIP3   OH245928   3.335   3.092  11.226  0.3604 -0.3549 -0.5847
 8146TIP3    H145929   3.344   3.031  11.154  0.6604 -1.0971  0.0661
 8146TIP3    H245930   3.353   3.178  11.187  0.8278 -0.7757 -1.3207
 8147TIP3   OH245931   4.846   0.100  14.151 -0.1611 -0.0428 -0.1371
 8147TIP3    H145932   4.940   0.115  14.164  0.2037  0.7046 -3.0732
 8147TIP3    H245933   4.804   0.152  14.221  1.5597  0.5665  0.4999
 8148TIP3   OH245934   3.268   0.581   1.357  0.1532  0.1032  0.5290
 8148TIP3    H145935   3.315   0.599   1.438  0.5507 -0.4108  0.4207
 8148TIP3    H245936   3.178   0.563   1.384  0.4526 -0.8239  0.9347
 8149TIP3   OH245937   1.030   5.185   1.762 -0.3119  0.7063  0.1283
 8149TIP3    H145938   0.943   5.180   1.721 -0.1155 -4.3750 -0.2836
 8149TIP3    H245939   1.011   5.184   1.856 -0.7427  0.0869  0.0446
 8150TIP3   OH245940   5.352   3.213  12.627 -0.1940  0.7889  0.0707
 8150TIP3    H145941   5.298   3.267  12.684 -1.9467 -2.3171  1.5982
 8150TIP3    H245942   5.329   3.242  12.538  1.4945  4.6970  0.6787
 8151TIP3   OH245943   5.676   4.098  13.509  0.2885 -0.1868 -0.7695
 8151TIP3    H145944   5.687   4.055  13.593  3.4825 -3.4041 -2.5769
 8151TIP3    H245945   5.755   4.151  13.498  0.6609 -0.9885 -2.2990
 8152TIP3   OH245946   0.215   2.406  10.808  0.2440  0.0710 -0.3022
 8152TIP3    H145947   0.226   2.316  10.780  2.1953 -0.1541  0.9876
 8152TIP3    H245948   0.242   2.458  10.732  1.6768 -0.4820 -0.1997
 8153TIP3   OH245949   0.142   5.774   1.139 -0.0400  0.0750  0.4211
 8153TIP3    H145950   0.106   5.771   1.227 -0.5142 -0.4043  0.2179
 8153TIP3    H245951   0.126   5.863   1.108 -0.3008  0.1047  0.6429
 8154TIP3   OH245952   4.760   0.524  16.113  0.6853  0.6480 -0.2507
 8154TIP3    H145953   4.802   0.529  16.027  1.0632  0.8829 -0.0569
 8154TIP3    H245954   4.667   0.516  16.093  0.8253 -0.0026 -0.6903
 8155TIP3   OH245955   1.006   3.086  12.287  0.4834  0.4343  0.8569
 8155TIP3    H145956   1.026   3.015  12.348  0.1517 -0.8242 -0.4443
 8155TIP3    H245957   1.071   3.077  12.217 -1.3846 -0.5142 -0.8455
 8156TIP3   OH245958   3.641   4.438  15.025  0.2274 -0.6169 -0.3816
 8156TIP3    H145959   3.624   4.525  14.988 -2.2328 -0.9829 -0.2244
 8156TIP3    H245960   3.692   4.455  15.104 -0.6171  0.7421 -0.0988
 8157TIP3   OH245961   5.672   3.442  11.949  0.0359  0.3045 -0.4828
 8157TIP3    H145962   5.675   3.525  11.998  0.4988  0.1450 -0.2356
 8157TIP3    H245963   5.755   3.440  11.902  0.5898 -0.6026  0.4806
 8158TIP3   OH245964   2.728   4.521  11.876 -0.3827  0.1568 -0.8523
 8158TIP3    H145965   2.813   4.541  11.916 -1.1828  2.1764 -0.0411
 8158TIP3    H245966   2.668   4.513  11.950 -1.4356  1.6223 -1.5015
 8159TIP3   OH245967   4.056   2.662   2.515 -0.0177 -0.0434  0.8492
 8159TIP3    H145968   4.110   2.603   2.567  0.6154 -0.8905 -0.6991
 8159TIP3    H245969   4.108   2.679   2.436 -1.4013  0.3103 -0.0209
 8160TIP3   OH245970   5.010   2.189   4.313 -0.0060 -0.2966 -0.4267
 8160TIP3    H145971   5.087   2.226   4.269  0.3631 -1.6062 -0.9546
 8160TIP3    H245972   4.986   2.253   4.379  2.5009 -0.5086  0.8025
 8161TIP3   OH245973   4.544   5.158   5.495 -0.1378 -0.1234  0.6740
 8161TIP3    H145974   4.614   5.158   5.559 -0.1976  0.8322  0.7601
 8161TIP3    H245975   4.574   5.218   5.426 -1.2818  1.1592  1.2186
 8162TIP3   OH245976   0.712   5.176   0.115 -0.2303  0.5405  0.0383
 8162TIP3    H145977   0.674   5.108   0.059 -0.1935  0.7711 -0.2717
 8162TIP3    H245978   0.739   5.130   0.195  0.6890  0.0182 -0.5547
 8163TIP3   OH245979   0.392   0.790   4.260  0.1730 -0.0832 -0.4286
 8163TIP3    H145980   0.379   0.753   4.172  0.1627 -0.7316 -0.1636
 8163TIP3    H245981   0.486   0.786   4.274  0.1528 -0.2001 -0.3202
 8164TIP3   OH245982   5.122   6.255  17.137  0.5690  0.6759 -0.0053
 8164TIP3    H145983   5.035   6.294  17.128  0.6567  0.4827 -2.2805
 8164TIP3    H245984   5.149   6.276  17.226 -1.5906  1.1850  0.5796
 8165TIP3   OH245985   4.863   1.074   4.173 -0.1398 -0.8387 -0.3409
 8165TIP3    H145986   4.893   1.162   4.149  0.9715 -0.3453  2.4678
 8165TIP3    H245987   4.927   1.016   4.133  1.9411 -0.0286  1.5693
 8166TIP3   OH245988   6.205   1.978   1.206  0.3857  0.0591  0.2928
 8166TIP3    H145989   6.160   2.002   1.287  1.1473  0.7504  0.5303
 8166TIP3    H245990   6.263   1.906   1.232 -0.5229 -0.8056 -0.0045
 8167TIP3   OH245991   6.839   6.451   5.249  0.2709 -0.0208 -0.2742
 8167TIP3    H145992   6.782   6.438   5.174 -2.2352 -0.7095  1.6100
 8167TIP3    H245993   6.900   6.520   5.222  0.2876 -1.0623 -3.2862
 8168TIP3   OH245994   5.023   4.020  13.933 -0.2421 -0.0488 -0.3714
 8168TIP3    H145995   4.962   3.964  13.981 -0.0584 -0.6304 -0.7996
 8168TIP3    H245996   5.076   4.062  14.001 -1.4610  0.8875  0.0345
 8169TIP3   OH245997   5.762   0.912  13.535  0.6547  0.5350  0.4981
 8169TIP3    H145998   5.797   0.948  13.617  1.9761  2.1662 -0.7252
 8169TIP3    H245999   5.808   0.829  13.525 -0.5973 -0.4217  2.0970
 8170TIP3   OH246000   3.908   4.707   2.510  0.3220  0.0938 -0.1639
 8170TIP3    H146001   3.886   4.702   2.603 -0.3289 -0.0938 -0.3304
 8170TIP3    H246002   3.885   4.796   2.484  1.9594  0.6733  0.2162
 8171TIP3   OH246003   0.175   4.814   5.773  0.0497  0.7456  0.1451
 8171TIP3    H146004   0.150   4.839   5.684  1.1347 -0.1736 -0.4490
 8171TIP3    H246005   0.120   4.867   5.830 -1.0715  0.9354 -1.0777
 8172TIP3   OH246006   2.158   3.582   3.506  0.0803 -0.5034 -0.0268
 8172TIP3    H146007   2.113   3.592   3.422 -0.9300  0.2749  0.5876
 8172TIP3    H246008   2.214   3.505   3.494 -0.3315 -0.6357 -1.2768
 8173TIP3   OH246009   0.134   5.578  13.831  0.2849 -0.4424  0.1146
 8173TIP3    H146010   0.153   5.516  13.902 -0.9403 -1.1099 -0.1187
 8173TIP3    H246011   0.052   5.547  13.793 -1.3808  2.3175  1.1202
 8174TIP3   OH246012   2.656   4.922  13.009  0.0844 -0.1479  0.3270
 8174TIP3    H146013   2.673   4.830  13.026  0.7628 -0.3615 -1.3118
 8174TIP3    H246014   2.583   4.944  13.066  0.3470 -1.5161  1.2335
 8175TIP3   OH246015   4.724   4.878  14.530 -0.8624  0.0981  0.4709
 8175TIP3    H146016   4.704   4.844  14.443 -1.1240  0.7281  0.2845
 8175TIP3    H246017   4.688   4.966  14.531  0.4613  0.6702  0.6946
 8176TIP3   OH246018   6.253   2.148   5.028  0.6195  0.3441  0.4741
 8176TIP3    H146019   6.338   2.117   4.997  1.3904  2.7645 -0.0033
 8176TIP3    H246020   6.193   2.076   5.008  2.3753 -1.0592  0.0115
 8177TIP3   OH246021   6.288   3.254  13.992 -0.3829 -0.2178  0.2166
 8177TIP3    H146022   6.379   3.237  14.018 -0.0688  0.8407 -0.1474
 8177TIP3    H246023   6.245   3.169  14.000  0.6081 -0.7080  0.5232
 8178TIP3   OH246024   4.302   6.021   0.462  0.3308  0.4947  0.8476
 8178TIP3    H146025   4.373   5.991   0.406 -0.7265 -1.1340  0.3002
 8178TIP3    H246026   4.264   6.095   0.416  0.0515 -0.2517 -0.1618
 8179TIP3   OH246027   2.234   5.177  16.352  1.3503 -0.9291  0.1739
 8179TIP3    H146028   2.237   5.093  16.398 -0.8264 -0.6452  0.9594
 8179TIP3    H246029   2.187   5.158  16.270  2.6214 -0.8408 -0.6031
 8180TIP3   OH246030   1.230   2.315   0.104 -0.5926  0.5365  0.4005
 8180TIP3    H146031   1.268   2.365   0.032 -1.1305  2.4083  1.3562
 8180TIP3    H246032   1.147   2.358   0.123  0.0221  0.8314  2.8278
 8181TIP3   OH246033   3.033   3.007  10.549  0.6162  0.0091  0.3856
 8181TIP3    H146034   3.041   3.102  10.560  2.5648 -0.2118  1.5268
 8181TIP3    H246035   2.980   2.979  10.624  0.0768  0.1968  0.0730
 8182TIP3   OH246036   0.828   0.870  12.920 -0.0223 -0.1102 -0.2726
 8182TIP3    H146037   0.818   0.823  12.838 -1.1531 -1.2104  0.4663
 8182TIP3    H246038   0.799   0.809  12.987  1.2187  0.6316  1.0003
 8183TIP3   OH246039   6.297   1.982  15.083  0.0905 -0.0712  0.0198
 8183TIP3    H146040   6.324   1.926  15.156 -0.9168  0.5764  0.9175
 8183TIP3    H246041   6.292   1.922  15.008  2.9110 -0.4266  0.0034
 8184TIP3   OH246042   0.171   1.682  16.739 -0.3991  0.0897  0.4481
 8184TIP3    H146043   0.086   1.705  16.702 -1.3690  0.3520  2.7065
 8184TIP3    H246044   0.151   1.623  16.811  1.3223  0.2145  1.0797
 8185TIP3   OH246045   3.156   6.656   5.938  0.3585 -0.6172  1.1850
 8185TIP3    H146046   3.163   6.734   5.993  0.0951 -1.0771  1.8786
 8185TIP3    H246047   3.102   6.596   5.989 -0.2316 -0.8970  0.2446
 8186TIP3   OH246048   1.873   1.310  12.870  0.3590 -0.1454  0.9975
 8186TIP3    H146049   1.928   1.388  12.881 -0.7067  0.5646  1.4183
 8186TIP3    H246050   1.859   1.278  12.959 -0.7078  0.2570  0.9905
 8187TIP3   OH246051   3.785   1.696   3.449  0.2456 -0.1129 -0.3936
 8187TIP3    H146052   3.771   1.642   3.527 -0.4043  0.0046 -0.4246
 8187TIP3    H246053   3.745   1.647   3.378  0.5582 -0.0670 -0.6026
 8188TIP3   OH246054   0.785   0.842  15.917 -0.0840 -0.8523 -0.1665
 8188TIP3    H146055   0.723   0.791  15.968  1.4376 -2.3458  0.2826
 8188TIP3    H246056   0.825   0.778  15.857  1.3046 -0.0303 -0.1545
 8189TIP3   OH246057   3.891   3.972  11.808  0.4918 -0.4270  0.0162
 8189TIP3    H146058   3.855   4.060  11.818  0.2431 -0.4296 -0.7693
 8189TIP3    H246059   3.858   3.943  11.723  0.4956 -1.3144  0.3109
 8190TIP3   OH246060   6.218   2.443   1.665  0.0579 -0.5645 -0.7947
 8190TIP3    H146061   6.148   2.454   1.729  0.0912  0.0920 -0.8692
 8190TIP3    H246062   6.173   2.428   1.582  0.0090 -0.5493 -0.7708
 8191TIP3   OH246063   3.131   1.660  17.133 -0.1756 -0.2355 -0.3552
 8191TIP3    H146064   3.110   1.673  17.041  0.8417  0.0943 -0.5605
 8191TIP3    H246065   3.123   1.747  17.172  2.5433  0.3270 -0.8434
 8192TIP3   OH246066   5.715   5.119   5.856 -0.3518  0.1742  0.1617
 8192TIP3    H146067   5.669   5.137   5.938  1.4188 -1.2655  1.5582
 8192TIP3    H246068   5.807   5.134   5.877  0.3588 -2.1902 -0.9129
 8193TIP3   OH246069   6.252   6.229  13.123 -0.7049  0.2613  0.0124
 8193TIP3    H146070   6.156   6.230  13.115 -0.6952  0.6740 -0.0693
 8193TIP3    H246071   6.277   6.322  13.126 -0.4798  0.1971  2.0868
 8194TIP3   OH246072   0.553   2.743   5.845  0.4169 -0.0415 -0.0558
 8194TIP3    H146073   0.556   2.781   5.933  0.1935 -0.9405  0.3611
 8194TIP3    H246074   0.641   2.757   5.810  1.1637 -1.4382  1.1184
 8195TIP3   OH246075   2.506   1.551   4.807 -0.0945  0.0645 -0.4310
 8195TIP3    H146076   2.518   1.644   4.830 -0.7593  0.5488 -1.9178
 8195TIP3    H246077   2.493   1.507   4.891  1.1140  1.1645  0.3836
 8196TIP3   OH246078   2.743   0.114   5.429  0.0141  0.4336  0.1423
 8196TIP3    H146079   2.649   0.101   5.437 -0.0827  0.0139 -1.3814
 8196TIP3    H246080   2.779   0.026   5.421  0.2878  0.6640 -1.4403
 8197TIP3   OH246081   2.679   3.552  10.555 -0.5311 -0.2148 -0.1377
 8197TIP3    H146082   2.643   3.625  10.505  0.7754  0.0288 -0.7732
 8197TIP3    H246083   2.617   3.481  10.541  0.6741 -0.7623 -3.7387
 8198TIP3   OH246084   4.806   5.939   5.271 -0.2334 -0.0890  0.2057
 8198TIP3    H146085   4.805   6.034   5.260  2.3613 -0.0281 -0.0409
 8198TIP3    H246086   4.744   5.907   5.206 -1.1046  1.3914  0.2420
 8199TIP3   OH246087   1.411   0.513   5.512 -0.6303 -0.6670 -0.2009
 8199TIP3    H146088   1.424   0.452   5.439 -0.7536 -0.8711 -0.0549
 8199TIP3    H246089   1.499   0.546   5.531 -0.5517 -0.8464 -0.2432
 8200TIP3   OH246090   6.414   5.454  16.559  0.0171 -0.1902 -0.2514
 8200TIP3    H146091   6.366   5.511  16.620  1.2263  2.0960 -1.3177
 8200TIP3    H246092   6.494   5.431  16.607 -0.6159 -1.3406  0.3024
 8201TIP3   OH246093   4.458   5.966   2.974  0.0296  0.1538  0.6620
 8201TIP3    H146094   4.495   5.881   2.999 -0.8229 -0.7150 -0.9244
 8201TIP3    H246095   4.515   5.997   2.904  0.6093  1.1412  1.5405
 8202TIP3   OH246096   0.071   2.518  13.677 -0.1349  0.6521 -0.0139
 8202TIP3    H146097   0.135   2.477  13.619 -0.1152 -1.3324  1.3208
 8202TIP3    H246098   0.011   2.564  13.618 -0.1481 -1.3290 -1.6291
 8203TIP3   OH246099   2.373   3.364   4.935  0.2949 -0.2414 -0.2813
 8203TIP3    H146100   2.468   3.360   4.922  0.8791  1.1623  2.6201
 8203TIP3    H246101   2.360   3.446   4.983 -2.3567 -0.6459 -0.1839
 8204TIP3   OH246102   3.196   1.073  10.498  0.0194  0.2472  0.0083
 8204TIP3    H146103   3.162   0.999  10.549 -1.4143  1.6203  1.1456
 8204TIP3    H246104   3.273   1.038  10.454  0.1098 -1.5797  1.4931
 8205TIP3   OH246105   6.445   0.485   2.588  0.2043  0.4871 -0.3284
 8205TIP3    H146106   6.386   0.431   2.535  0.7033 -0.7455  0.3403
 8205TIP3    H246107   6.501   0.528   2.524  0.4954 -0.6202 -0.8421
 8206TIP3   OH246108   6.043   2.058  13.420 -0.3945 -0.2749 -0.0876
 8206TIP3    H146109   5.966   2.035  13.369 -0.1743  0.9117 -0.9912
 8206TIP3    H246110   6.051   1.988  13.485 -1.4152 -1.1439 -0.8737
 8207TIP3   OH246111   3.478   0.192  14.320  1.0008  0.0043  0.6696
 8207TIP3    H146112   3.471   0.259  14.252  0.0390 -0.7796 -0.0372
 8207TIP3    H246113   3.534   0.125  14.281 -2.5912 -2.3187 -1.0663
 8208TIP3   OH246114   0.144   0.053   5.352  0.0519 -0.3301 -0.9119
 8208TIP3    H146115   0.110   0.098   5.275 -1.3668 -1.8939 -1.2761
 8208TIP3    H246116   0.153  -0.038   5.324  0.6318 -0.7056  0.4309
 8209TIP3   OH246117   6.654   4.482  10.932  0.1282 -0.3690 -0.3856
 8209TIP3    H146118   6.587   4.515  10.873 -0.1590  0.1607  0.2165
 8209TIP3    H246119   6.609   4.419  10.987 -0.0412  0.4386  0.4283
 8210TIP3   OH246120   2.861   3.857   3.639  0.1360 -0.6026  0.2472
 8210TIP3    H146121   2.911   3.850   3.720 -0.6945 -1.4706  0.7054
 8210TIP3    H246122   2.841   3.950   3.630 -0.3319 -0.5879  1.3878
 8211TIP3   OH246123   2.125   5.058   1.614  0.0477  0.6680  0.2861
 8211TIP3    H146124   2.104   5.083   1.704  0.0655  1.6695  0.0244
 8211TIP3    H246125   2.073   5.118   1.560 -1.6272 -1.2979 -0.4082
 8212TIP3   OH246126   0.684   4.214  16.371 -0.1014 -0.0347 -0.1429
 8212TIP3    H146127   0.659   4.286  16.314  1.8797 -1.5565 -3.2113
 8212TIP3    H246128   0.747   4.252  16.432 -2.3606  1.6596  1.2846
 8213TIP3   OH246129   6.336   4.308   5.258  0.1863 -0.1851  1.0428
 8213TIP3    H146130   6.323   4.346   5.344 -1.3339 -0.8646  1.1630
 8213TIP3    H246131   6.398   4.237   5.271  0.9793  0.5492  1.3116
 8214TIP3   OH246132   2.234   5.294   4.640  0.5527 -0.1989 -0.4691
 8214TIP3    H146133   2.230   5.312   4.734 -2.0175  2.2838 -0.9320
 8214TIP3    H246134   2.314   5.337   4.611  1.7451 -1.5561  0.5796
 8215TIP3   OH246135   6.200   1.958   2.936 -0.4704  0.2863 -0.3879
 8215TIP3    H146136   6.204   1.864   2.917  0.5075  0.2141  0.0995
 8215TIP3    H246137   6.200   2.000   2.849  1.1270 -0.1184 -0.6122
 8216TIP3   OH246138   2.370   0.136   2.049 -0.4506 -0.6242 -0.1017
 8216TIP3    H146139   2.347   0.222   2.085 -0.1154 -1.4219  2.1308
 8216TIP3    H246140   2.465   0.133   2.053 -0.5091 -1.6601  1.3163
 8217TIP3   OH246141   6.362   0.714  14.889  0.3127  0.0251  0.2960
 8217TIP3    H146142   6.273   0.730  14.860  0.6269  2.0393  0.3381
 8217TIP3    H246143   6.356   0.714  14.985 -0.0641 -2.7607  0.3754
 8218TIP3   OH246144   6.327   3.011   2.167  0.6004 -0.2536  0.0140
 8218TIP3    H146145   6.397   3.075   2.155  1.4519 -0.8982  1.2657
 8218TIP3    H246146   6.254   3.062   2.204  0.6546  0.2851 -0.5983
 8219TIP3   OH246147   0.920   6.575  11.065 -0.0906  0.0564  0.6029
 8219TIP3    H146148   0.841   6.620  11.034  0.6091  0.6088 -0.4058
 8219TIP3    H246149   0.887   6.515  11.133 -1.3505  0.4156  0.3464
 8220TIP3   OH246150   6.215   6.610  16.629  0.4375 -0.2885 -0.1865
 8220TIP3    H146151   6.227   6.675  16.699 -0.9138  1.0799 -1.1624
 8220TIP3    H246152   6.300   6.567  16.622  1.5217  1.6405  0.2535
 8221TIP3   OH246153   1.334   4.327  11.610 -0.2679  0.4940  0.0334
 8221TIP3    H146154   1.404   4.262  11.612  1.2442  2.0576  0.7408
 8221TIP3    H246155   1.310   4.334  11.518 -0.5404 -1.1005 -0.0465
 8222TIP3   OH246156   2.659   6.432  16.624 -0.7876  0.0658  0.2021
 8222TIP3    H146157   2.754   6.430  16.638 -0.7252  3.6652  1.2840
 8222TIP3    H246158   2.647   6.497  16.554 -2.4273 -2.1340 -1.7363
 8223TIP3   OH246159   2.061   6.177   2.843  0.1302 -0.2199 -0.9822
 8223TIP3    H146160   2.142   6.131   2.820 -0.4946 -1.7705 -0.2582
 8223TIP3    H246161   1.991   6.126   2.802 -0.6147 -0.1485  0.1258
 8224TIP3   OH246162   4.457   5.368  13.140  0.1922 -0.2257 -0.3315
 8224TIP3    H146163   4.441   5.277  13.167 -0.9286 -0.1933 -0.8099
 8224TIP3    H246164   4.393   5.419  13.189 -0.7056  0.0294 -1.7112
 8225TIP3   OH246165   5.572   6.628  16.987 -0.0917 -0.3204 -0.9306
 8225TIP3    H146166   5.513   6.684  16.936  0.7309 -0.0644 -1.6197
 8225TIP3    H246167   5.620   6.688  17.044 -0.3847 -0.5109 -0.4766
 8226TIP3   OH246168   0.914   5.867   3.989  0.3050 -0.0086  0.2581
 8226TIP3    H146169   0.967   5.934   4.033 -0.0245 -0.6447  1.6794
 8226TIP3    H246170   0.894   5.804   4.058  1.0911 -1.9034 -1.1645
 8227TIP3   OH246171   3.252   1.982   5.783 -0.5186  0.0380  0.4514
 8227TIP3    H146172   3.311   1.967   5.857  0.5935 -0.3805 -0.4945
 8227TIP3    H246173   3.306   1.967   5.706 -1.5733  0.7866 -0.4623
 8228TIP3   OH246174   1.122   1.935  12.870 -0.2077 -0.2181  0.2116
 8228TIP3    H146175   1.138   1.973  12.956  0.9930 -0.5879  0.1708
 8228TIP3    H246176   1.075   2.003  12.822 -0.9882 -0.0522  1.1781
 8229TIP3   OH246177   4.676   3.328  11.034  0.3415 -0.2608  0.3238
 8229TIP3    H146178   4.735   3.359  11.103 -0.4630  0.7776  0.5726
 8229TIP3    H246179   4.729   3.329  10.954  0.9987 -0.5131  0.7523
 8230TIP3   OH246180   1.109   3.767  12.944  0.1681 -0.5370  0.3624
 8230TIP3    H146181   1.048   3.834  12.914  1.8212  0.6273 -0.5402
 8230TIP3    H246182   1.170   3.814  13.001 -0.1730 -1.8211  1.8641
 8231TIP3   OH246183   4.193   3.219  12.526  0.2727  0.5135  0.1288
 8231TIP3    H146184   4.218   3.133  12.491 -1.5311  0.2023 -0.4680
 8231TIP3    H246185   4.172   3.271  12.449 -0.5946  0.8578  0.5911
 8232TIP3   OH246186   6.673   6.584   2.766 -0.0707 -0.1575  0.4087
 8232TIP3    H146187   6.725   6.655   2.728  0.4139 -0.9960 -0.5693
 8232TIP3    H246188   6.582   6.613   2.758  0.1726  0.8281  1.0657
 8233TIP3   OH246189   0.467   3.223  14.746 -0.5021 -0.0080  0.2855
 8233TIP3    H146190   0.559   3.242  14.727 -0.6611  1.0787  0.5516
 8233TIP3    H246191   0.446   3.149  14.689  1.1965 -1.8953  1.9533
 8234TIP3   OH246192   4.770   6.484   5.221 -0.3688  0.3805  0.0844
 8234TIP3    H146193   4.786   6.517   5.309 -0.3693  0.4662  0.0523
 8234TIP3    H246194   4.857   6.471   5.184 -0.3444  1.8314 -0.4600
 8235TIP3   OH246195   4.521   6.324  16.359  0.1119 -0.6244 -0.1647
 8235TIP3    H146196   4.573   6.395  16.322  0.7598 -0.9263  0.1563
 8235TIP3    H246197   4.447   6.369  16.402  0.1499 -0.1926 -0.5419
 8236TIP3   OH246198   1.109   4.681   1.606 -0.2288 -0.2820  0.6170
 8236TIP3    H146199   1.017   4.682   1.578 -0.7206 -0.0650  2.1006
 8236TIP3    H246200   1.159   4.700   1.527 -1.5734  1.5237  0.1256
 8237TIP3   OH246201   4.996   2.804  14.486  0.1406  0.0094  0.5053
 8237TIP3    H146202   4.940   2.747  14.538  1.3890  0.2598  2.2341
 8237TIP3    H246203   5.079   2.807  14.535  1.1436  0.8659 -1.1401
 8238TIP3   OH246204   0.989   0.840  13.230  0.2894 -0.2305 -0.4658
 8238TIP3    H146205   1.021   0.874  13.147  1.5877  0.4234  0.2692
 8238TIP3    H246206   0.900   0.876  13.238  0.2863 -0.0146 -1.3933
 8239TIP3   OH246207   5.429   6.718   5.014 -0.5672  0.1718  0.0307
 8239TIP3    H146208   5.343   6.752   5.036 -0.8115  0.7999 -1.7738
 8239TIP3    H246209   5.412   6.635   4.969 -0.0297 -1.7464  3.0238
 8240TIP3   OH246210   3.751   3.438  14.357 -0.1371 -0.6026  0.3535
 8240TIP3    H146211   3.701   3.460  14.435 -0.4797  1.7121 -0.4464
 8240TIP3    H246212   3.767   3.522  14.314  1.9054 -1.5737 -0.9554
 8241TIP3   OH246213   6.352   4.824   2.117  0.5417 -0.0830  0.1963
 8241TIP3    H146214   6.368   4.909   2.077  1.6436 -0.1899  0.3627
 8241TIP3    H246215   6.277   4.837   2.174 -1.5607 -0.0873 -2.3691
 8242TIP3   OH246216   5.527   6.054  16.974 -0.0919 -0.4174  0.4925
 8242TIP3    H146217   5.495   6.047  16.884 -0.4371  1.5017  0.4342
 8242TIP3    H246218   5.488   6.135  17.007 -0.4220 -1.3559  2.5643
 8243TIP3   OH246219   0.997   0.012   0.017 -0.2445 -0.0409  0.0439
 8243TIP3    H146220   1.059   0.066   0.067  0.0777 -0.3040 -0.0638
 8243TIP3    H246221   1.010   0.039  -0.074 -1.2400  0.8468  0.1479
 8244TIP3   OH246222   5.296   6.671   2.693 -0.5348  0.2402 -0.0618
 8244TIP3    H146223   5.258   6.676   2.605 -2.7084 -0.8308  0.7291
 8244TIP3    H246224   5.380   6.715   2.686 -0.7626  0.3976 -2.6129
 8245TIP3   OH246225   3.164   1.888  16.686 -0.2109  0.2205 -0.4318
 8245TIP3    H146226   3.247   1.893  16.639  0.1051  0.1379  0.1185
 8245TIP3    H246227   3.102   1.933  16.628  0.1345 -0.0364 -1.0101
 8246TIP3   OH246228   0.136   3.697  14.423 -0.0261 -0.1546 -0.2025
 8246TIP3    H146229   0.076   3.739  14.362 -0.0037 -0.9090 -0.7598
 8246TIP3    H246230   0.137   3.605  14.397  1.1634 -0.2090 -0.0392
 8247TIP3   OH246231   3.842   4.589   4.961  0.1773 -0.4370  0.0445
 8247TIP3    H146232   3.846   4.655   4.892  1.9939  0.8614  1.3035
 8247TIP3    H246233   3.874   4.509   4.920  0.9308  0.2375 -0.7093
 8248TIP3   OH246234   3.466   1.636  16.643  0.6884 -0.0313  0.6599
 8248TIP3    H146235   3.534   1.692  16.681  0.8413  0.6910 -0.6183
 8248TIP3    H246236   3.501   1.547  16.651  1.0622  0.1765  1.4562
 8249TIP3   OH246237   3.853   2.502   2.319  0.1884  0.5649  0.1190
 8249TIP3    H146238   3.903   2.579   2.345  1.2870 -0.0738 -0.0133
 8249TIP3    H246239   3.846   2.509   2.224  1.1091  0.0471 -0.0005
 8250TIP3   OH246240   2.874   3.290  13.048  0.2669 -0.1933  0.0010
 8250TIP3    H146241   2.872   3.383  13.026 -0.9520 -0.0384  0.7182
 8250TIP3    H246242   2.958   3.259  13.013  0.8945  1.2674  0.1483
 8251TIP3   OH246243   6.724   6.643  16.663  0.6096  0.2340  0.2790
 8251TIP3    H146244   6.802   6.630  16.608  1.4808 -1.4801  1.8162
 8251TIP3    H246245   6.742   6.725  16.709  0.9573  0.4656 -0.2556
 8252TIP3   OH246246   1.896   1.652   6.329 -0.2667 -0.2309  0.4247
 8252TIP3    H146247   1.970   1.712   6.332  0.9281 -1.5683 -0.6239
 8252TIP3    H246248   1.908   1.595   6.405  0.6284 -1.3311 -0.4956
 8253TIP3   OH246249   5.375   6.545  10.894  0.5052  0.3727 -0.1611
 8253TIP3    H146250   5.416   6.476  10.945  1.4948  0.2589 -1.0756
 8253TIP3    H246251   5.285   6.514  10.879  0.5742 -0.1343  0.4721
 8254TIP3   OH246252   3.017   2.592  15.340 -0.4088  0.0359  0.3638
 8254TIP3    H146253   2.962   2.586  15.262 -0.2686 -0.5056  0.2967
 8254TIP3    H246254   3.001   2.679  15.375  0.8887  1.0165 -1.2904
 8255TIP3   OH246255   3.590   1.873  13.480 -0.0555  0.3037 -0.0433
 8255TIP3    H146256   3.661   1.817  13.511 -0.0766 -0.5597 -1.4783
 8255TIP3    H246257   3.626   1.962  13.483  1.0513 -0.1091 -0.6498
 8256TIP3   OH246258   3.543   6.127   4.132 -0.1806 -0.0208 -0.3444
 8256TIP3    H146259   3.455   6.163   4.148 -0.1556  0.4893 -1.2755
 8256TIP3    H246260   3.567   6.160   4.046  0.9372 -0.1649 -0.1004
 8257TIP3   OH246261   4.064   2.696   1.452 -0.1385 -0.3396 -0.6319
 8257TIP3    H146262   4.131   2.690   1.520 -0.1617  0.7818 -0.4794
 8257TIP3    H246263   4.107   2.664   1.373  0.6434  0.5144 -0.5726
 8258TIP3   OH246264   6.743   4.095  14.511 -0.8264  0.2402  0.0999
 8258TIP3    H146265   6.698   4.164  14.559 -2.8058 -0.5740 -0.4804
 8258TIP3    H246266   6.693   4.085  14.430  1.2139  0.1764 -1.2338
 8259TIP3   OH246267   2.778   5.325   5.473  0.4907 -0.3315  0.2740
 8259TIP3    H146268   2.684   5.339   5.479  0.7164  1.2184  0.9325
 8259TIP3    H246269   2.793   5.293   5.384 -0.5684  0.3188 -0.1539
 8260TIP3   OH246270   1.517   0.063   1.743  0.2706  0.5433 -0.1995
 8260TIP3    H146271   1.428   0.086   1.715 -1.0986 -3.7799 -0.0512
 8260TIP3    H246272   1.514   0.074   1.839 -0.5356 -0.6482 -0.0646
 8261TIP3   OH246273   5.154   2.899   4.259  0.0365  0.0301  0.0133
 8261TIP3    H146274   5.147   2.971   4.322 -0.5357 -0.3447  0.3837
 8261TIP3    H246275   5.227   2.925   4.202 -0.4640  1.1272 -0.1552
 8262TIP3   OH246276   1.830   2.057  13.637  0.8100  0.4714 -0.1507
 8262TIP3    H146277   1.797   2.139  13.674  1.1481  0.7166 -0.3902
 8262TIP3    H246278   1.915   2.044  13.678  1.3704  0.9531 -1.1295
 8263TIP3   OH246279   6.192   0.133   1.164  0.2717  0.4958  0.2955
 8263TIP3    H146280   6.173   0.159   1.074 -1.4154 -0.2641  0.3969
 8263TIP3    H246281   6.164   0.042   1.170  3.3788 -0.5391  0.7505
 8264TIP3   OH246282   6.571   5.182   2.270 -0.0525 -0.5909 -0.0700
 8264TIP3    H146283   6.522   5.205   2.349 -0.7793  1.9231 -1.1560
 8264TIP3    H246284   6.508   5.137   2.214  0.3822 -2.0951  0.5832
 8265TIP3   OH246285   1.250   5.864   1.265 -0.1016  0.2252  0.0772
 8265TIP3    H146286   1.338   5.870   1.227  0.2562 -1.0632  0.6446
 8265TIP3    H246287   1.264   5.880   1.359 -0.3981 -0.4503  0.2403
 8266TIP3   OH246288   1.626   3.327   1.618  0.2967  0.1287  0.1124
 8266TIP3    H146289   1.546   3.304   1.665  0.7081 -1.9010 -0.0836
 8266TIP3    H246290   1.613   3.294   1.529  1.4031 -0.4449  0.1350
 8267TIP3   OH246291   5.279   5.824   0.129 -0.0305 -0.5265 -0.0177
 8267TIP3    H146292   5.342   5.753   0.140 -0.6087 -0.8561  1.2611
 8267TIP3    H246293   5.213   5.788   0.069  0.1276 -0.7707 -0.0474
 8268TIP3   OH246294   4.296   2.302   5.698 -0.1275  0.4399  0.4516
 8268TIP3    H146295   4.205   2.309   5.671  0.7363  0.3410 -2.8311
 8268TIP3    H246296   4.345   2.358   5.638  2.1808 -0.9424  0.8985
 8269TIP3   OH246297   0.040   2.227   6.454 -0.1874  0.0565  0.4578
 8269TIP3    H146298   0.105   2.250   6.388  0.2507 -1.7450  0.1901
 8269TIP3    H246299   0.066   2.139   6.483 -2.6330 -0.8514  0.1626
 8270TIP3   OH246300   5.012   1.210   1.680  0.4793 -0.1508 -0.3356
 8270TIP3    H146301   4.924   1.203   1.717  0.1941 -1.5112 -1.2033
 8270TIP3    H246302   5.067   1.157   1.738  0.4313 -0.5229 -0.6224
 8271TIP3   OH246303   4.811   6.018  12.660  0.4124  0.4191  0.0694
 8271TIP3    H146304   4.879   6.000  12.595  0.3750 -0.5750  0.2909
 8271TIP3    H246305   4.731   5.983  12.622  0.3925 -0.1824  0.6477
 8272TIP3   OH246306   5.177   4.359  15.165  0.1604  0.0155 -0.7952
 8272TIP3    H146307   5.146   4.352  15.074  0.8226 -0.5746 -0.9886
 8272TIP3    H246308   5.248   4.295  15.171 -1.6709 -2.0066  0.9242
 8273TIP3   OH246309   5.873   2.738   3.342  0.1223  0.2192 -0.2875
 8273TIP3    H146310   5.833   2.751   3.255  0.5151  0.2153 -0.4705
 8273TIP3    H246311   5.900   2.646   3.341 -0.0337  0.1730 -0.0949
 8274TIP3   OH246312   4.270   5.101   6.390 -0.1028  0.3555 -0.1989
 8274TIP3    H146313   4.310   5.082   6.475 -0.6747  0.5254  0.1147
 8274TIP3    H246314   4.304   5.034   6.332 -0.9249 -0.7427  0.5342
 8275TIP3   OH246315   4.386   2.408  11.227  0.1093  0.1881 -0.2271
 8275TIP3    H146316   4.345   2.476  11.175 -0.5513 -0.5791 -0.7365
 8275TIP3    H246317   4.355   2.326  11.188  0.2157 -0.4028  0.8860
 8276TIP3   OH246318   5.966   3.801   3.702  0.8204  0.0067  0.3152
 8276TIP3    H146319   5.932   3.804   3.792  0.8825  0.9378  0.3193
 8276TIP3    H246320   6.022   3.878   3.695  1.1828 -0.3116 -0.3857
 8277TIP3   OH246321   5.180   1.757   3.438 -0.0919  0.1453 -0.5599
 8277TIP3    H146322   5.198   1.680   3.492  0.0990  1.1524  0.8912
 8277TIP3    H246323   5.266   1.795   3.421  0.0864 -1.3171 -3.5097
 8278TIP3   OH246324   6.643   1.019   4.581  0.3085  0.2884 -0.6350
 8278TIP3    H146325   6.679   0.971   4.656 -0.8666  1.0889  0.4833
 8278TIP3    H246326   6.680   1.107   4.589 -0.7205  0.7090 -0.2839
 8279TIP3   OH246327   2.262   4.074   4.591  0.0054  0.0537 -0.2447
 8279TIP3    H146328   2.181   4.117   4.563  0.8184  1.4291 -0.6049
 8279TIP3    H246329   2.331   4.132   4.559  1.2866 -2.4696 -2.5021
 8280TIP3   OH246330   3.008   2.204  12.842 -0.1140  0.4246  0.5265
 8280TIP3    H146331   3.031   2.121  12.884  2.8383  0.0642 -1.4885
 8280TIP3    H246332   2.922   2.189  12.804  0.0938 -1.5268  0.7409
 8281TIP3   OH246333   2.097   5.111   4.439  0.0145 -0.7557  0.0389
 8281TIP3    H146334   2.162   5.094   4.370 -2.2158 -2.0447 -1.8733
 8281TIP3    H246335   2.140   5.174   4.497  3.0698 -1.7772 -0.9151
 8282TIP3   OH246336   1.281   3.638   1.655 -0.4653  0.5744  0.4630
 8282TIP3    H146337   1.367   3.662   1.622 -0.4906 -0.5119 -0.4283
 8282TIP3    H246338   1.220   3.695   1.608 -0.4063 -0.1902 -0.5697
 8283TIP3   OH246339   3.979   4.652  14.665  0.0134 -0.0077  0.4488
 8283TIP3    H146340   3.901   4.659  14.610 -0.8989 -0.4163  1.6497
 8283TIP3    H246341   3.969   4.569  14.711  2.5519 -1.4750 -1.3962
 8284TIP3   OH246342   4.409   1.140  12.952  0.3594  0.1983  0.0804
 8284TIP3    H146343   4.435   1.161  13.041  0.5745  1.1635 -0.1876
 8284TIP3    H246344   4.457   1.060  12.930  0.1494 -0.1524  0.8880
 8285TIP3   OH246345   6.481   4.536   0.281 -0.2428  0.0127  0.1021
 8285TIP3    H146346   6.525   4.485   0.349 -0.0379  1.3947  1.0494
 8285TIP3    H246347   6.492   4.484   0.201 -2.7707 -2.9964  1.5048
 8286TIP3   OH246348   6.478   6.285   2.189  0.2538  0.3084 -0.2362
 8286TIP3    H146349   6.450   6.270   2.098  0.9388 -1.6949 -0.1787
 8286TIP3    H246350   6.574   6.293   2.182  0.2933  0.2811  0.2768
 8287TIP3   OH246351   1.394   4.598  15.724 -0.9575  0.3809  0.0876
 8287TIP3    H146352   1.445   4.588  15.805 -0.2359 -0.9513 -0.5018
 8287TIP3    H246353   1.356   4.512  15.709 -4.4206  1.5817  1.1078
 8288TIP3   OH246354   2.761   4.442   5.385 -0.1682  0.3996 -0.1163
 8288TIP3    H146355   2.798   4.507   5.325 -0.2052 -0.2128 -0.8051
 8288TIP3    H246356   2.671   4.473   5.400 -0.1659  0.5404 -0.3867
 8289TIP3   OH246357   0.222   6.590  12.421 -0.1246 -0.6629 -0.3824
 8289TIP3    H146358   0.233   6.685  12.424  1.5843 -0.8581  0.8116
 8289TIP3    H246359   0.311   6.555  12.432 -0.6916 -2.4109 -0.9850
 8290TIP3   OH246360   4.484   3.201   1.198 -0.0164 -0.4924 -0.1387
 8290TIP3    H146361   4.512   3.219   1.108  1.4036 -0.3094  0.3189
 8290TIP3    H246362   4.421   3.270   1.219 -2.1864 -1.8463 -1.7594
 8291TIP3   OH246363   1.166   1.215   1.400 -0.1215 -0.0062 -0.0348
 8291TIP3    H146364   1.261   1.207   1.404 -0.0613  0.4588 -0.5101
 8291TIP3    H246365   1.138   1.213   1.491  0.6693  3.8029  0.4476
 8292TIP3   OH246366   1.310   0.916   5.670  0.3183 -0.2851  0.2186
 8292TIP3    H146367   1.304   0.820   5.672 -2.3812 -0.1984  0.0014
 8292TIP3    H246368   1.219   0.945   5.671  1.0716  2.3568  2.5702
 8293TIP3   OH246369   2.721   5.313   1.257 -0.1051  0.7628 -0.7806
 8293TIP3    H146370   2.735   5.407   1.244 -1.2978  0.9083 -1.0782
 8293TIP3    H246371   2.626   5.303   1.262 -0.0091 -0.4875 -1.1943
 8294TIP3   OH246372   5.000   6.754   5.005 -0.1512 -0.9059 -0.9469
 8294TIP3    H146373   5.045   6.800   5.077  0.9295 -3.1376 -0.0856
 8294TIP3    H246374   5.022   6.805   4.927  0.7298  0.2105 -0.0115
 8295TIP3   OH246375   6.446   2.205   5.822 -0.3099  0.3785 -0.0999
 8295TIP3    H146376   6.470   2.160   5.740  1.2403 -0.7767  0.9406
 8295TIP3    H246377   6.529   2.237   5.857 -1.0150  1.2863  0.7982
 8296TIP3   OH246378   4.946   4.149  13.249 -0.3457  0.1593  0.3924
 8296TIP3    H146379   4.915   4.059  13.247  2.0950 -0.7542  0.3396
 8296TIP3    H246380   4.973   4.164  13.340  1.6079 -0.0901 -0.0999
 8297TIP3   OH246381   2.633   3.035   1.133 -0.3089  0.1128 -0.0937
 8297TIP3    H146382   2.682   2.953   1.126 -0.6454 -0.0350 -0.7492
 8297TIP3    H246383   2.699   3.103   1.120  0.2692  0.0199  1.9799
 8298TIP3   OH246384   3.576   0.564  14.040  0.0049  0.6234  0.3695
 8298TIP3    H146385   3.656   0.582  13.992  0.3647  0.9467  1.0752
 8298TIP3    H246386   3.601   0.570  14.132 -0.8463  0.8216  0.6008
 8299TIP3   OH246387   0.458   2.211  10.921 -0.4534 -0.2617 -0.2871
 8299TIP3    H146388   0.439   2.138  10.980  1.4160 -2.6749 -2.4605
 8299TIP3    H246389   0.378   2.222  10.870 -0.6820 -0.9600 -0.0910
 8300TIP3   OH246390   3.587   0.539   5.112 -0.3592  0.5576 -0.5368
 8300TIP3    H146391   3.562   0.631   5.102 -0.4236  0.5172 -0.7696
 8300TIP3    H246392   3.669   0.541   5.161 -0.6939  0.7055  0.0250
 8301TIP3   OH246393   0.910   3.854   2.933  0.0738  0.5795  0.2329
 8301TIP3    H146394   0.944   3.818   3.015  0.1617  0.7010  0.2495
 8301TIP3    H246395   0.971   3.824   2.866  0.2408  0.8346  0.2685
 8302TIP3   OH246396   1.539   6.824  15.155  0.3196 -0.4573 -0.1107
 8302TIP3    H146397   1.563   6.913  15.133  0.2912 -0.4139  0.0297
 8302TIP3    H246398   1.470   6.801  15.094  1.4721 -0.9722 -1.2686
 8303TIP3   OH246399   5.722   3.664   2.624 -0.9433 -0.3996 -0.0271
 8303TIP3    H146400   5.634   3.696   2.605 -1.8854 -1.8273  1.6021
 8303TIP3    H246401   5.777   3.743   2.626 -2.2489  0.5621 -0.6523
 8304TIP3   OH246402   4.953   0.216   0.267 -0.2259  0.3020  0.2166
 8304TIP3    H146403   4.985   0.126   0.266 -0.2113  0.3085 -0.2552
 8304TIP3    H246404   4.858   0.208   0.263 -0.2254  0.3026  0.2037
 8305TIP3   OH246405   3.421   1.566   3.884  1.0034  0.2723  0.0086
 8305TIP3    H146406   3.459   1.488   3.844 -0.0726 -0.3413  0.1394
 8305TIP3    H246407   3.419   1.632   3.814 -1.5410 -0.9990 -1.2775
 8306TIP3   OH246408   2.851   6.057  15.319  0.1428  0.3123 -0.8754
 8306TIP3    H146409   2.828   5.993  15.386 -0.1087  0.1667 -1.0959
 8306TIP3    H246410   2.771   6.065  15.266  0.6963 -0.4303 -1.8467
 8307TIP3   OH246411   1.047   1.852   5.154  0.2162 -0.0020  0.4917
 8307TIP3    H146412   1.033   1.927   5.097  0.5425  0.6616  1.2664
 8307TIP3    H246413   1.070   1.890   5.239  1.2251 -0.9883  0.6773
 8308TIP3   OH246414   6.332   2.457  15.949 -0.0376 -0.1913  0.4828
 8308TIP3    H146415   6.401   2.458  16.015  0.8154  0.2286 -0.3857
 8308TIP3    H246416   6.370   2.503  15.874 -0.8407 -0.9789 -0.4364
 8309TIP3   OH246417   5.890   5.287   2.638 -0.4890  0.1051 -0.9297
 8309TIP3    H146418   5.985   5.273   2.640 -0.6322 -1.2943 -1.9773
 8309TIP3    H246419   5.855   5.220   2.696 -0.8650  0.1953 -1.0502
 8310TIP3   OH246420   4.688   2.615   2.083 -0.5051  0.2236 -0.1945
 8310TIP3    H146421   4.677   2.545   2.017 -0.0199 -0.3083  0.2780
 8310TIP3    H246422   4.628   2.591   2.153  1.0705 -0.8204  0.8547
 8311TIP3   OH246423   4.911   5.524   4.237 -0.1470 -0.6625 -0.2957
 8311TIP3    H146424   4.967   5.567   4.173 -0.5179 -0.4680 -0.4908
 8311TIP3    H246425   4.961   5.527   4.319  1.2538 -2.7348 -0.9801
 8312TIP3   OH246426   0.548   2.801  11.511 -0.6402 -0.2003 -0.0001
 8312TIP3    H146427   0.505   2.845  11.438 -0.6846 -0.8814 -0.3936
 8312TIP3    H246428   0.631   2.847  11.522 -0.4888 -0.3016 -0.6967
 8313TIP3   OH246429   3.174   0.219  13.292 -0.2234  0.3238  0.1265
 8313TIP3    H146430   3.221   0.254  13.216 -0.8991 -1.3232 -1.1105
 8313TIP3    H246431   3.201   0.128  13.297 -2.3210 -0.3495  0.1230
 8314TIP3   OH246432   6.680   6.459  15.993 -0.3535 -0.2312 -0.7625
 8314TIP3    H146433   6.755   6.399  15.989  0.1266  0.2888  0.1233
 8314TIP3    H246434   6.697   6.513  16.070 -1.3867  0.2435 -0.8574
 8315TIP3   OH246435   0.219   4.198  13.994  0.0767 -0.2444  0.0324
 8315TIP3    H146436   0.150   4.146  13.954  0.9830 -0.8044 -0.8531
 8315TIP3    H246437   0.294   4.189  13.935  0.9881  0.1465  1.0769
 8316TIP3   OH246438   2.826   1.889   6.171 -0.3832  0.7006 -0.4207
 8316TIP3    H146439   2.815   1.914   6.263  0.5046  0.4529 -0.2342
 8316TIP3    H246440   2.847   1.970   6.126 -0.6908  0.8012 -0.3834
 8317TIP3   OH246441   5.354   4.878   3.478  0.2108 -0.0447  0.1114
 8317TIP3    H146442   5.404   4.862   3.558  3.1097 -1.4227 -1.8100
 8317TIP3    H246443   5.389   4.959   3.442  0.4003 -0.4899 -0.7554
 8318TIP3   OH246444   2.173   5.852   4.298  0.4280 -0.1469 -0.5852
 8318TIP3    H146445   2.174   5.913   4.372 -1.7666  0.9353 -1.3631
 8318TIP3    H246446   2.142   5.770   4.336 -0.4871  0.3424 -0.2423
 8319TIP3   OH246447   4.743   0.712  16.308  0.1110  0.6321 -0.5395
 8319TIP3    H146448   4.751   0.632  16.256  0.6678  1.5877 -1.9753
 8319TIP3    H246449   4.751   0.783  16.245  0.8524  1.8558  0.8542
 8320TIP3   OH246450   0.714   4.738   3.978 -0.4140 -0.0678 -0.2383
 8320TIP3    H146451   0.695   4.704   4.065 -1.1371  0.6562 -0.0906
 8320TIP3    H246452   0.683   4.829   3.981 -0.1361  0.0684 -1.1442
 8321TIP3   OH246453   1.891   2.637   3.820 -0.9131  0.1041 -0.4585
 8321TIP3    H146454   1.857   2.631   3.909 -0.5426 -2.0227 -0.3853
 8321TIP3    H246455   1.939   2.720   3.817  0.5175 -0.5496  1.8905
 8322TIP3   OH246456   4.475   4.729  16.070 -0.7244 -0.3007 -0.2756
 8322TIP3    H146457   4.504   4.705  15.982 -1.5166 -2.4817 -0.0068
 8322TIP3    H246458   4.443   4.647  16.108  0.3484  0.4091  2.3624
 8323TIP3   OH246459   6.521   6.215  14.469 -0.7772  0.4005  0.3844
 8323TIP3    H146460   6.500   6.288  14.527  1.5165  0.6961  0.9618
 8323TIP3    H246461   6.515   6.251  14.381  2.2035  1.9705  0.7029
 8324TIP3   OH246462   3.570   4.256  12.355 -0.0800  0.6153 -0.1049
 8324TIP3    H146463   3.507   4.272  12.284 -1.6291 -1.9123  0.5556
 8324TIP3    H246464   3.616   4.339  12.366 -1.0637  1.6289 -2.8048
 8325TIP3   OH246465   0.981   6.488  15.405 -0.3780  0.9050 -0.1101
 8325TIP3    H146466   0.979   6.515  15.313 -0.3734 -0.0579 -0.4113
 8325TIP3    H246467   0.889   6.479  15.429 -0.4517 -1.9392 -1.0249
 8326TIP3   OH246468   5.393   4.855  12.486 -0.0530  0.2630  0.5844
 8326TIP3    H146469   5.315   4.813  12.522 -1.1742  0.8820 -0.9761
 8326TIP3    H246470   5.427   4.792  12.423 -0.0803  0.5246  0.3033
 8327TIP3   OH246471   5.247   2.934  13.540  0.2096  0.5817  0.3426
 8327TIP3    H146472   5.179   2.990  13.503 -0.0402  0.4485  0.5967
 8327TIP3    H246473   5.203   2.851  13.557  0.8938 -0.1711 -1.3040
 8328TIP3   OH246474   4.031   4.612  13.485 -0.5096 -0.0652 -0.0038
 8328TIP3    H146475   3.937   4.611  13.505 -0.3524  0.5813  0.8362
 8328TIP3    H246476   4.035   4.634  13.392 -1.1907  0.2198  0.0258
 8329TIP3   OH246477   6.332   3.095   0.254 -0.1823 -0.7087 -0.7107
 8329TIP3    H146478   6.258   3.145   0.220 -0.4319 -0.2571  0.4482
 8329TIP3    H246479   6.294   3.039   0.323  0.5236 -0.5587 -0.1865
 8330TIP3   OH246480   4.864   4.206  11.723  0.0326 -0.4554  0.2323
 8330TIP3    H146481   4.950   4.246  11.712 -0.3868  0.1463 -1.1041
 8330TIP3    H246482   4.816   4.265  11.781  0.5991 -0.9474  1.2232
 8331TIP3   OH246483   1.685   0.880  11.161 -0.0603  0.4901  0.3184
 8331TIP3    H146484   1.748   0.865  11.231 -0.8978  0.0970  1.0222
 8331TIP3    H246485   1.631   0.800  11.161  1.1831 -0.4739 -2.1795
 8332TIP3   OH246486   0.694   3.909   4.417  0.2082  0.3478 -0.5177
 8332TIP3    H146487   0.675   3.877   4.506  0.1766  0.7833 -0.3655
 8332TIP3    H246488   0.619   3.965   4.395  0.9899  1.5704 -0.1648
 8333TIP3   OH246489   3.961   2.704  15.217  0.2244 -0.1733  0.4642
 8333TIP3    H146490   4.023   2.752  15.163 -0.5291 -0.9555 -1.1379
 8333TIP3    H246491   4.014   2.637  15.261  0.8745  0.6136  0.8922
 8334TIP3   OH246492   5.907   0.948  10.480  0.4839 -0.3600  0.4338
 8334TIP3    H146493   5.991   0.949  10.433 -1.1865  2.7561 -3.0306
 8334TIP3    H246494   5.852   0.889  10.429 -0.0483 -0.7678  1.4500
 8335TIP3   OH246495   5.502   5.254  16.309  1.2005  0.7791  0.1577
 8335TIP3    H146496   5.501   5.159  16.325  2.0342  0.5647 -0.9250
 8335TIP3    H246497   5.591   5.272  16.280  1.2584  2.0443  1.0878
 8336TIP3   OH246498   2.757   6.782  16.357  0.3577  0.0344 -0.1031
 8336TIP3    H146499   2.766   6.751  16.447  1.7527 -0.9184 -0.5539
 8336TIP3    H246500   2.697   6.721  16.316 -0.0142  0.2729  0.0797
 8337TIP3   OH246501   1.109   3.380   1.626 -0.7008 -0.4945 -0.4534
 8337TIP3    H146502   1.074   3.466   1.602  0.6952  0.0221 -0.7369
 8337TIP3    H246503   1.183   3.399   1.683 -0.8977 -1.5595  0.1917
 8338TIP3   OH246504   2.808   4.413   5.751 -0.4351  0.0092  0.8182
 8338TIP3    H146505   2.726   4.448   5.716  1.0601  1.5077 -1.4859
 8338TIP3    H246506   2.809   4.442   5.843 -0.7563  3.5102 -0.1408
 8339TIP3   OH246507   6.382   6.695   0.414  0.3913  0.0256  0.5458
 8339TIP3    H146508   6.474   6.705   0.394  0.0254  0.7271 -0.8964
 8339TIP3    H246509   6.368   6.600   0.414  0.9970 -0.0691  0.1696
 8340TIP3   OH246510   0.418   5.808  15.612  0.3747 -0.1667  1.2736
 8340TIP3    H146511   0.407   5.829  15.704  2.2312 -1.0896  1.7621
 8340TIP3    H246512   0.478   5.733  15.612  1.8063  0.8922 -0.7332
 8341TIP3   OH246513   2.815   0.759  12.147  0.1407  0.3190  0.7480
 8341TIP3    H146514   2.749   0.716  12.201  1.5072 -1.7835  0.8592
 8341TIP3    H246515   2.765   0.815  12.088 -1.5771  0.4274  2.2319
 8342TIP3   OH246516   1.749   4.082  16.843 -0.3624  0.2627  0.3693
 8342TIP3    H146517   1.782   4.015  16.784 -1.2880 -0.6101  0.8108
 8342TIP3    H246518   1.701   4.143  16.786 -1.3221 -0.6192  0.1949
 8343TIP3   OH246519   1.033   4.086   2.729  0.1998  0.4560 -0.3143
 8343TIP3    H146520   1.016   3.993   2.744  0.0990  0.7802  1.8450
 8343TIP3    H246521   1.106   4.087   2.667 -0.4560 -1.0278 -1.1573
 8344TIP3   OH246522   1.906   0.024  12.959 -0.1602  0.1836  0.3062
 8344TIP3    H146523   1.984   0.046  12.907  0.0917 -0.0270  0.5932
 8344TIP3    H246524   1.871   0.109  12.985 -0.1692  0.2860 -0.0331
 8345TIP3   OH246525   6.657   1.525  15.088 -0.0449  0.0866  0.4050
 8345TIP3    H146526   6.651   1.431  15.072  1.6480 -0.0451  0.3475
 8345TIP3    H246527   6.705   1.532  15.171 -0.0390  0.8958  0.3445
 8346TIP3   OH246528   6.180   3.084  11.084  0.2146 -0.4250  0.2623
 8346TIP3    H146529   6.181   3.056  10.993  1.0309 -0.4796  0.2742
 8346TIP3    H246530   6.260   3.046  11.121 -0.4584 -1.0003  1.1865
 8347TIP3   OH246531   2.904   1.809  12.192  0.0642  0.1304  0.4056
 8347TIP3    H146532   2.814   1.831  12.167  0.2852  1.7601  0.9156
 8347TIP3    H246533   2.901   1.716  12.215 -1.9346  0.5671  2.2590
 8348TIP3   OH246534   1.387   1.445  14.705  0.4148  0.4338 -0.0154
 8348TIP3    H146535   1.408   1.497  14.627 -0.7828  2.0103  0.6535
 8348TIP3    H246536   1.319   1.385  14.675  1.7430 -0.7557 -0.7740
 8349TIP3   OH246537   6.226   6.832  14.148  0.2012  0.2798  0.2015
 8349TIP3    H146538   6.191   6.845  14.059  0.6540 -1.3394 -0.2439
 8349TIP3    H246539   6.307   6.883  14.149  1.8478 -2.0603 -1.4435
 8350TIP3   OH246540   0.955   0.748   5.240 -0.1101 -0.7169  0.5343
 8350TIP3    H146541   1.025   0.799   5.198 -0.8875  1.4509  1.7387
 8350TIP3    H246542   0.960   0.662   5.198 -0.2121  0.9513 -3.3425
 8351TIP3   OH246543   0.124   1.375  15.076 -0.4629  0.4696 -0.4840
 8351TIP3    H146544   0.187   1.368  15.005 -0.8463 -0.2308 -0.7666
 8351TIP3    H246545   0.173   1.348  15.154 -0.1404  0.9054 -0.5326
 8352TIP3   OH246546   6.093   3.785  15.373 -0.1761  0.3848  0.2811
 8352TIP3    H146547   6.092   3.690  15.387 -1.6528  0.4401  0.6944
 8352TIP3    H246548   6.137   3.820  15.450 -2.8655  0.2444  2.0006
 8353TIP3   OH246549   1.146   0.310   0.823  0.6728 -0.2262 -0.3331
 8353TIP3    H146550   1.066   0.257   0.817  1.1175 -0.8406 -0.9848
 8353TIP3    H246551   1.119   0.388   0.873  0.1147 -1.2408  1.0147
 8354TIP3   OH246552   0.071   2.065  14.602 -0.1145 -0.6178 -0.5215
 8354TIP3    H146553   0.101   2.049  14.512 -0.0505 -0.0397 -0.6039
 8354TIP3    H246554   0.145   2.036  14.657  0.3483  0.1958 -0.7005
 8355TIP3   OH246555   4.377   6.787  16.343 -0.1662  0.1299  0.0459
 8355TIP3    H146556   4.363   6.881  16.329 -1.5295 -0.1490 -0.6279
 8355TIP3    H246557   4.357   6.773  16.435 -1.0676  0.3328 -0.1091
 8356TIP3   OH246558   3.533   4.367  12.618  0.1764 -0.0332  0.1137
 8356TIP3    H146559   3.561   4.313  12.692 -0.9779 -0.5542  0.1975
 8356TIP3    H246560   3.562   4.318  12.540  0.2371 -0.1448  0.2056
 8357TIP3   OH246561   2.069   0.692  14.671  0.0831 -0.3754  0.0688
 8357TIP3    H146562   2.013   0.737  14.608  0.6662 -0.9003 -0.8604
 8357TIP3    H246563   2.159   0.713  14.644  0.3447 -0.4103  0.8769
 8358TIP3   OH246564   1.213   2.675   4.484 -0.2275 -0.0530  0.2648
 8358TIP3    H146565   1.286   2.657   4.424 -0.3389 -0.6534  0.2979
 8358TIP3    H246566   1.240   2.753   4.532  0.2117 -0.0290 -0.0139
 8359TIP3   OH246567   0.133   4.199   1.077 -0.4001 -0.3778  0.0720
 8359TIP3    H146568   0.198   4.160   1.135  0.0521 -0.3655 -0.4306
 8359TIP3    H246569   0.052   4.152   1.098  0.0667 -1.3714 -0.2973
 8360TIP3   OH246570   5.479   5.040  10.715 -0.4843  0.1161 -0.3531
 8360TIP3    H146571   5.457   5.083  10.632  0.1313  0.4049 -0.3727
 8360TIP3    H246572   5.556   4.986  10.694  0.0506  0.6604  0.1638
 8361TIP3   OH246573   5.286   6.842  15.429 -0.3575 -0.2408  0.7386
 8361TIP3    H146574   5.318   6.894  15.355 -0.1564 -2.1780 -0.6117
 8361TIP3    H246575   5.337   6.872  15.504  0.0022  1.2175 -0.0523
 8362TIP3   OH246576   2.163   5.973  12.630  0.0799 -0.1129  0.0055
 8362TIP3    H146577   2.224   5.920  12.580  1.7150  0.4116  1.3338
 8362TIP3    H246578   2.134   5.916  12.702  0.2138  0.1132  0.2432
 8363TIP3   OH246579   1.531   4.685  15.485 -0.3507 -0.4803 -0.0556
 8363TIP3    H146580   1.465   4.667  15.553  0.1694  3.3013  1.7556
 8363TIP3    H246581   1.614   4.658  15.524 -0.2210  0.3375  0.2671
 8364TIP3   OH246582   2.980   6.557   4.531 -0.5110  0.1688 -0.4736
 8364TIP3    H146583   3.026   6.625   4.579 -1.6922  1.2720 -0.8617
 8364TIP3    H246584   2.940   6.503   4.600  0.5582 -0.2610 -0.1632
 8365TIP3   OH246585   5.456   2.006  12.580 -0.4035  0.1482  0.1163
 8365TIP3    H146586   5.442   2.023  12.674  0.7975 -1.4689  0.6436
 8365TIP3    H246587   5.410   1.923  12.564  0.6161 -0.3300 -0.3698
 8366TIP3   OH246588   5.117   2.850   4.568  0.2817 -0.0980 -0.2156
 8366TIP3    H146589   5.097   2.761   4.539 -1.2540  0.7172 -1.8450
 8366TIP3    H246590   5.213   2.855   4.564  0.3356 -1.3298 -1.2531
 8367TIP3   OH246591   3.592   4.257   1.263 -0.2903 -0.1999 -0.0682
 8367TIP3    H146592   3.554   4.316   1.197 -0.5062 -1.2271 -0.8884
 8367TIP3    H246593   3.686   4.260   1.246 -0.4480 -1.5635 -1.4202
 8368TIP3   OH246594   0.504   2.432   5.403  0.0622  0.5049  0.2718
 8368TIP3    H146595   0.509   2.517   5.446 -0.9460  1.2597 -1.0367
 8368TIP3    H246596   0.424   2.436   5.350  0.1177 -1.1755 -0.0088
 8369TIP3   OH246597   2.392   1.548   1.724 -0.0188 -0.3318 -0.0531
 8369TIP3    H146598   2.382   1.553   1.629 -2.5951 -0.4161  0.1398
 8369TIP3    H246599   2.459   1.482   1.737  0.0527 -0.6670 -1.8248
 8370TIP3   OH246600   6.575   5.422   1.974 -0.1003 -0.3766 -0.8563
 8370TIP3    H146601   6.499   5.479   1.961 -0.3418 -0.4787  0.0719
 8370TIP3    H246602   6.595   5.429   2.067 -0.1004 -1.7664 -0.7369
 8371TIP3   OH246603   3.422   5.416  16.769  0.0624 -0.0137  0.0037
 8371TIP3    H146604   3.511   5.385  16.784 -0.2104 -0.2682  1.1372
 8371TIP3    H246605   3.371   5.383  16.843 -0.5744  1.7611  0.4283
 8372TIP3   OH246606   1.929   2.647  15.478  0.6055 -0.3235  0.4333
 8372TIP3    H146607   1.854   2.599  15.513  0.2895 -1.4576 -1.6285
 8372TIP3    H246608   1.986   2.579  15.442  2.1986  0.5893  1.1585
 8373TIP3   OH246609   5.343   2.934  12.550 -0.9280 -0.2035 -0.5813
 8373TIP3    H146610   5.302   3.020  12.556 -0.7824 -0.2222  1.2560
 8373TIP3    H246611   5.330   2.895  12.636  1.5278 -0.8650 -0.4284
 8374TIP3   OH246612   4.104   3.193  14.796 -0.5348  0.0261 -0.3360
 8374TIP3    H146613   4.143   3.200  14.708 -0.7049 -1.0160 -0.5044
 8374TIP3    H246614   4.109   3.282  14.831 -0.6163  0.4973 -1.4690
 8375TIP3   OH246615   1.982   0.762   1.502  0.0994  1.1016 -0.4444
 8375TIP3    H146616   2.056   0.770   1.561 -0.3567  0.6886  0.1929
 8375TIP3    H246617   2.016   0.713   1.427  0.3845  0.6335 -0.0106
 8376TIP3   OH246618   6.575   6.169   0.416 -0.0277  0.3846  0.3594
 8376TIP3    H146619   6.517   6.118   0.472 -0.2613  0.4609  0.1909
 8376TIP3    H246620   6.622   6.104   0.363  0.2360  0.3108  0.6817
 8377TIP3   OH246621   1.723   1.165   5.388 -0.6500  0.7173  0.6283
 8377TIP3    H146622   1.797   1.176   5.328 -0.7715  1.2608  0.5653
 8377TIP3    H246623   1.758   1.191   5.473 -0.5914  0.3452  0.7183
 8378TIP3   OH246624   3.877   5.472  17.113 -0.2735 -0.3981  0.2717
 8378TIP3    H146625   3.868   5.516  17.029  0.1857  1.5690  1.1779
 8378TIP3    H246626   3.789   5.442  17.135 -0.9474  1.4388  0.2631
 8379TIP3   OH246627   5.587   4.519  13.445 -0.2004  0.4095  0.2696
 8379TIP3    H146628   5.662   4.551  13.395 -0.1134  0.4231  0.4073
 8379TIP3    H246629   5.626   4.476  13.521 -0.3082 -0.2907 -0.0668
 8380TIP3   OH246630   0.202   1.155  10.668 -0.1106 -0.2637  0.4647
 8380TIP3    H146631   0.199   1.227  10.605 -0.3326 -1.1737 -0.5924
 8380TIP3    H246632   0.125   1.169  10.724  0.9038  1.3855  1.5290
 8381TIP3   OH246633   6.434   6.079  12.577  0.1103  0.3509  0.1983
 8381TIP3    H146634   6.342   6.057  12.592 -0.0672  1.3724  0.6827
 8381TIP3    H246635   6.431   6.166  12.538  0.7787 -0.4784 -1.8599
 8382TIP3   OH246636   5.902   6.359  11.889  0.3308 -0.6319 -0.2146
 8382TIP3    H146637   5.978   6.352  11.831  1.2393  1.2537  0.6371
 8382TIP3    H246638   5.927   6.309  11.967  0.7171 -0.0749  0.0351
 8383TIP3   OH246639   1.919   5.977  15.477 -0.6313 -0.2245  0.2641
 8383TIP3    H146640   2.009   5.956  15.505 -0.3463  1.4633  0.7440
 8383TIP3    H246641   1.881   6.022  15.553 -1.0322  1.2955 -0.7943
 8384TIP3   OH246642   6.148   3.008   2.691 -0.2851 -0.2048  0.0156
 8384TIP3    H146643   6.237   3.026   2.661  0.0829  1.7092  2.0137
 8384TIP3    H246644   6.103   2.974   2.613  1.4638  1.2936 -1.7479
 8385TIP3   OH246645   1.624   3.188  13.812 -0.1207  0.5883 -1.0615
 8385TIP3    H146646   1.597   3.194  13.903  1.9459  1.7282 -0.4558
 8385TIP3    H246647   1.548   3.151  13.766 -0.8553 -0.9693  1.2494
 8386TIP3   OH246648   2.999   1.051  13.143  0.0063 -0.2178  0.1895
 8386TIP3    H146649   2.978   1.089  13.058 -1.1709 -0.7017  0.2458
 8386TIP3    H246650   3.022   1.126  13.198 -0.1092  0.1838 -0.3013
 8387TIP3   OH246651   1.555   2.742   4.068 -0.3515  0.1973 -0.0309
 8387TIP3    H146652   1.538   2.732   3.974  3.1834 -0.3179 -0.7771
 8387TIP3    H246653   1.616   2.816   4.073 -0.5020  0.2443  1.8697
 8388TIP3   OH246654   1.138   3.554   0.065  0.2881 -0.1959 -0.0931
 8388TIP3    H146655   1.076   3.531   0.135  0.1360  0.2185 -0.0924
 8388TIP3    H246656   1.119   3.645   0.045  0.6365 -0.1830 -0.3672
 8389TIP3   OH246657   2.530   4.833   3.841 -0.2687  0.5917 -0.7013
 8389TIP3    H146658   2.475   4.843   3.763 -1.9470  0.3738  0.3906
 8389TIP3    H246659   2.514   4.913   3.892 -1.5203 -0.5141  0.7511
 8390TIP3   OH246660   1.284   6.166   4.282 -0.4770 -0.1542  0.0641
 8390TIP3    H146661   1.351   6.208   4.336 -0.4507 -1.4133  1.0653
 8390TIP3    H246662   1.332   6.134   4.206 -0.0403 -0.5041  0.4765
 8391TIP3   OH246663   1.299   1.951  13.660 -0.2716 -0.0489 -0.4515
 8391TIP3    H146664   1.280   2.038  13.695  0.7842  0.6998 -1.6406
 8391TIP3    H246665   1.393   1.940  13.674 -0.6880 -1.8130  1.3722
 8392TIP3   OH246666   2.272   3.973  13.579  0.5110  0.0537  0.1041
 8392TIP3    H146667   2.297   4.044  13.638 -1.6898  2.2807 -1.4196
 8392TIP3    H246668   2.323   3.989  13.499  1.6342 -1.4518  0.4854
 8393TIP3   OH246669   2.239   4.083  15.394 -0.2870  0.4446 -0.6514
 8393TIP3    H146670   2.305   4.124  15.339 -0.4379  0.7611 -0.5986
 8393TIP3    H246671   2.203   4.155  15.446 -0.1894  0.1624 -0.1840
 8394TIP3   OH246672   1.503   5.844   1.487  0.4150 -0.4525  0.0820
 8394TIP3    H146673   1.505   5.763   1.538  0.4384 -0.2253  0.4454
 8394TIP3    H246674   1.449   5.904   1.539 -1.7349 -1.0032 -1.3580
 8395TIP3   OH246675   4.258   6.169  14.255 -0.1234  0.5784  0.3776
 8395TIP3    H146676   4.276   6.156  14.348  1.2872 -0.8562 -0.0288
 8395TIP3    H246677   4.345   6.174  14.215 -0.7079  1.2660 -0.8530
 8396TIP3   OH246678   3.300   3.896  11.594 -0.0144  0.3759 -0.2766
 8396TIP3    H146679   3.257   3.968  11.640  0.2060  0.8425 -0.7954
 8396TIP3    H246680   3.387   3.929  11.572 -0.2243  0.2772 -1.3008
 8397TIP3   OH246681   2.054   3.458  11.659 -0.0926  0.1567 -0.1796
 8397TIP3    H146682   2.105   3.539  11.658  1.1920 -0.6327 -0.6308
 8397TIP3    H246683   2.113   3.392  11.622 -1.7550 -0.6106 -1.5888
 8398TIP3   OH246684   5.640   2.374  11.829 -0.3479 -0.1972  0.4325
 8398TIP3    H146685   5.682   2.288  11.833  0.5790  0.2331  0.2985
 8398TIP3    H246686   5.549   2.357  11.852  0.3094 -0.8678  2.9024
 8399TIP3   OH246687   0.462   3.156  11.265 -0.0779  0.7643  0.0779
 8399TIP3    H146688   0.428   3.067  11.263  0.5050  0.3688  3.3305
 8399TIP3    H246689   0.421   3.198  11.189 -0.3534 -2.2126 -1.5829
 8400TIP3   OH246690   3.897   4.134   6.499 -0.6111  0.1245  0.1890
 8400TIP3    H146691   3.908   4.229   6.505 -0.8560  0.3970 -2.3877
 8400TIP3    H246692   3.864   4.120   6.410 -0.1481 -2.4259  0.3554
 8401TIP3   OH246693   2.986   4.932   5.302  0.0899 -0.1506  0.1727
 8401TIP3    H146694   3.024   4.914   5.388  1.4737  0.8699 -0.2007
 8401TIP3    H246695   3.054   4.979   5.255 -1.1488  0.4979 -1.0285
 8402TIP3   OH246696   2.518   4.330   4.193  0.4258  0.3615  0.1135
 8402TIP3    H146697   2.448   4.389   4.222  1.3791  2.1451 -1.0525
 8402TIP3    H246698   2.495   4.310   4.103  1.5070  1.1611 -0.3592
 8403TIP3   OH246699   2.287   6.669   5.929  1.2245 -0.5862  0.3369
 8403TIP3    H146700   2.324   6.736   5.872  3.0991 -2.8125 -1.2523
 8403TIP3    H246701   2.335   6.679   6.011  0.1607  1.1256  0.8151
 8404TIP3   OH246702   1.040   4.765   4.749 -0.4235 -0.5880  0.0967
 8404TIP3    H146703   1.053   4.818   4.670 -1.4475 -1.8762 -0.9749
 8404TIP3    H246704   0.947   4.742   4.748 -0.8030  0.5042  2.4539
 8405TIP3   OH246705   1.806   5.900   2.231  0.0027 -0.0602  0.2990
 8405TIP3    H146706   1.828   5.859   2.147 -0.1396  2.0183 -0.8216
 8405TIP3    H246707   1.872   5.868   2.291 -0.8845 -2.9582 -0.1148
 8406TIP3   OH246708   3.799   4.132   0.554 -0.2919  0.2320 -0.2804
 8406TIP3    H146709   3.826   4.092   0.636  1.7937  0.2049 -0.9152
 8406TIP3    H246710   3.859   4.206   0.542 -0.9742  0.6291 -1.4485
 8407TIP3   OH246711   3.835   0.968   5.096 -0.1168 -0.6874 -0.0429
 8407TIP3    H146712   3.910   0.945   5.151 -0.1816 -0.7999 -0.0020
 8407TIP3    H246713   3.863   0.951   5.007  0.9751  2.0133 -0.3284
 8408TIP3   OH246714   4.002   4.357  16.669  0.1865 -0.3831  0.5194
 8408TIP3    H146715   4.024   4.384  16.759  1.9686 -0.0571  0.0346
 8408TIP3    H246716   4.002   4.439  16.620  0.7868 -0.7148 -0.0524
 8409TIP3   OH246717   6.651   0.481  12.030  0.1727 -0.5663 -0.0378
 8409TIP3    H146718   6.693   0.505  11.947  0.5271 -1.7906 -0.2333
 8409TIP3    H246719   6.717   0.498  12.096  1.6348 -3.8541 -0.4798
 8410TIP3   OH246720   2.525   2.407  14.742  0.2818 -0.3937  0.3411
 8410TIP3    H146721   2.505   2.483  14.796 -0.2319  0.0694 -0.4813
 8410TIP3    H246722   2.515   2.332  14.801  0.8352  0.1725  1.1695
 8411TIP3   OH246723   5.258   4.074  12.543 -0.0994  0.4172 -0.1795
 8411TIP3    H146724   5.184   4.059  12.602 -1.2724 -0.4989 -1.8144
 8411TIP3    H246725   5.227   4.138  12.480  0.4498 -0.0378 -0.9419
 8412TIP3   OH246726   6.051   2.460   1.872 -0.7817 -1.0584 -0.3000
 8412TIP3    H146727   6.021   2.372   1.894  2.0568 -2.7619 -2.5711
 8412TIP3    H246728   6.113   2.481   1.942 -0.7027 -1.3159 -0.2894
 8413TIP3   OH246729   6.607   0.070   6.112 -0.5985  0.4125  0.0681
 8413TIP3    H146730   6.592   0.084   6.018 -0.2703 -0.6400 -0.1550
 8413TIP3    H246731   6.582  -0.022   6.126 -2.4228  1.0572  1.3910
 8414TIP3   OH246732   0.998   6.738   2.731  0.1109 -0.5107 -0.5844
 8414TIP3    H146733   0.990   6.772   2.642 -1.0211 -1.4741 -0.8847
 8414TIP3    H246734   0.955   6.652   2.728 -0.7800 -0.1786  1.1012
 8415TIP3   OH246735   4.098   3.014   4.591  0.4940  0.0071 -0.7120
 8415TIP3    H146736   4.111   3.086   4.528  1.4856  0.3092 -0.1941
 8415TIP3    H246737   4.187   2.988   4.615  0.1377 -0.3250  0.3084
 8416TIP3   OH246738   6.744   4.663   5.265 -0.0813 -0.4994  0.6527
 8416TIP3    H146739   6.784   4.681   5.180  0.4893 -0.6899  0.8810
 8416TIP3    H246740   6.808   4.693   5.329  0.3810 -2.2070  1.0434
 8417TIP3   OH246741   0.452   1.082   5.639  0.0708  0.9299  0.3568
 8417TIP3    H146742   0.547   1.088   5.642  0.1577 -0.4258  1.2995
 8417TIP3    H246743   0.424   1.095   5.730 -0.4612 -0.7289  0.4631
 8418TIP3   OH246744   0.540   4.994  12.789  0.3985  1.0882  0.3155
 8418TIP3    H146745   0.447   4.979  12.771  0.4813 -0.0912  0.7629
 8418TIP3    H246746   0.561   4.933  12.860  1.2880  2.0314  0.8982
 8419TIP3   OH246747   3.438   1.413  14.163 -0.4832  0.1225  0.4052
 8419TIP3    H146748   3.386   1.353  14.218 -2.1978  0.9172 -0.2733
 8419TIP3    H246749   3.426   1.499  14.203 -0.7329  0.5119 -0.4774
 8420TIP3   OH246750   3.989   0.847  13.617  0.1952 -0.3240 -0.3254
 8420TIP3    H146751   3.915   0.821  13.562 -0.7881  1.3155  0.1439
 8420TIP3    H246752   3.960   0.830  13.706  0.7955 -0.6198 -0.1844
 8421TIP3   OH246753   5.090   3.926   3.662 -0.2125  0.3709  0.7085
 8421TIP3    H146754   5.023   3.859   3.677  0.6083 -0.3952  1.0181
 8421TIP3    H246755   5.169   3.876   3.640  0.1802  1.2731  0.0187
 8422TIP3   OH246756   3.482   2.169  12.395 -0.0829  0.5320 -0.5352
 8422TIP3    H146757   3.432   2.209  12.323 -0.4683  1.0650  0.0253
 8422TIP3    H246758   3.566   2.215  12.393  0.5859 -0.6730 -1.7664
 8423TIP3   OH246759   2.680   3.887  16.644 -0.1714  0.2443 -0.0958
 8423TIP3    H146760   2.621   3.817  16.617 -0.8293  0.2293  1.2953
 8423TIP3    H246761   2.723   3.854  16.724 -1.7034  1.9831  1.5572
 8424TIP3   OH246762   5.648   6.230   0.177 -0.0104  0.2100 -0.5430
 8424TIP3    H146763   5.732   6.231   0.130  0.4449  0.4225  0.2483
 8424TIP3    H246764   5.595   6.167   0.129  1.3978 -1.6954  0.2586
 8425TIP3   OH246765   3.764   1.181   5.824 -0.1807  0.2476 -0.1744
 8425TIP3    H146766   3.834   1.237   5.858 -0.5025  0.0492  0.8615
 8425TIP3    H246767   3.807   1.101   5.795  0.2044  0.7605 -1.0509
 8426TIP3   OH246768   5.654   5.619  11.753  0.1384 -0.0738 -0.2417
 8426TIP3    H146769   5.710   5.588  11.682 -0.4301 -0.9329 -0.3268
 8426TIP3    H246770   5.715   5.637  11.825  0.7844  1.3318 -1.0952
 8427TIP3   OH246771   5.667   4.776  15.640  0.1303  0.3465  0.5742
 8427TIP3    H146772   5.614   4.731  15.574 -0.9306  2.0018  0.2390
 8427TIP3    H246773   5.713   4.706  15.686 -1.1880 -1.0387 -0.1441
 8428TIP3   OH246774   3.648   3.131   4.250 -0.2652 -0.0509 -0.0038
 8428TIP3    H146775   3.592   3.129   4.328  1.0883 -0.4615  0.9802
 8428TIP3    H246776   3.723   3.076   4.272 -0.4088 -1.1612 -2.0595
 8429TIP3   OH246777   6.657   4.804  17.137 -0.2946  0.3363 -0.0317
 8429TIP3    H146778   6.729   4.860  17.168 -1.8917  3.3767 -1.4106
 8429TIP3    H246779   6.597   4.799  17.212  1.1135 -2.0388  1.0522
 8430TIP3   OH246780   4.687   6.530   4.579 -0.1713 -0.3409  0.1394
 8430TIP3    H146781   4.608   6.567   4.618 -0.2562 -0.7328  0.3507
 8430TIP3    H246782   4.737   6.496   4.653  0.6451  0.7205  0.0965
 8431TIP3   OH246783   2.673   3.329   0.948  0.0638  0.0487  0.8814
 8431TIP3    H146784   2.664   3.305   0.855  0.1399 -0.2124  0.9414
 8431TIP3    H246785   2.586   3.361   0.972  0.2348  0.8023  0.5279
 8432TIP3   OH246786   6.238   3.669   2.922  0.1454 -0.9690 -0.1299
 8432TIP3    H146787   6.184   3.669   3.001  1.0108  0.2561  0.4835
 8432TIP3    H246788   6.245   3.576   2.898 -0.2005 -1.3476  1.1692
 8433TIP3   OH246789   2.612   1.820  15.282  0.4441 -0.1800  0.1879
 8433TIP3    H146790   2.699   1.830  15.243  0.2273 -0.4042 -0.3623
 8433TIP3    H246791   2.607   1.727  15.304  1.4997  0.3300  3.0128
 8434TIP3   OH246792   4.281   0.704  11.316  0.9680  0.4445 -0.4550
 8434TIP3    H146793   4.369   0.727  11.347  0.3127  2.8607 -0.2398
 8434TIP3    H246794   4.248   0.783  11.274 -0.2097 -1.1438 -2.7618
 8435TIP3   OH246795   5.445   1.810   4.022 -0.2495 -0.1105 -0.1795
 8435TIP3    H146796   5.399   1.840   3.944  0.8615 -2.2138 -1.7548
 8435TIP3    H246797   5.488   1.888   4.056 -1.6139  1.0632 -1.0499
 8436TIP3   OH246798   0.588   1.571   5.377  0.1444 -0.0974 -0.6320
 8436TIP3    H146799   0.554   1.514   5.446  0.5460 -0.5126 -0.7720
 8436TIP3    H246800   0.633   1.641   5.424 -0.4651  0.1912 -0.4569
 8437TIP3   OH246801   5.713   3.687  11.607  0.3812  0.2374 -0.2649
 8437TIP3    H146802   5.638   3.685  11.547 -0.0465 -0.4721  0.2874
 8437TIP3    H246803   5.772   3.620  11.573 -1.8541 -3.5761  2.6011
 8438TIP3   OH246804   3.170   3.769   0.778 -0.0539 -0.4882 -0.1084
 8438TIP3    H146805   3.118   3.835   0.824  1.4246 -0.7652  2.1434
 8438TIP3    H246806   3.210   3.817   0.705  1.3587  1.3140  1.7220
 8439TIP3   OH246807   3.291   5.943  12.037  0.2552 -0.1180  0.1485
 8439TIP3    H146808   3.302   5.950  11.942  0.5669  0.0769  0.1957
 8439TIP3    H246809   3.315   5.853  12.057  0.7374 -0.0045  0.1075
 8440TIP3   OH246810   1.945   0.550  15.577 -0.1894  0.3758 -0.3031
 8440TIP3    H146811   2.004   0.617  15.544 -0.0959 -0.7684 -2.7177
 8440TIP3    H246812   1.988   0.516  15.656  0.1796  2.4732  0.4478
 8441TIP3   OH246813   4.068   1.419   3.319 -0.1310 -0.0990  0.5854
 8441TIP3    H146814   4.003   1.367   3.271 -0.9276  2.4428 -1.2571
 8441TIP3    H246815   4.051   1.398   3.411 -1.2286 -2.1018 -0.0043
 8442TIP3   OH246816   4.195   5.443   3.961  0.2424 -0.1897 -0.3179
 8442TIP3    H146817   4.256   5.504   4.002  0.5592 -0.5067 -0.3137
 8442TIP3    H246818   4.233   5.356   3.976 -0.0717 -0.3705 -0.5444
 8443TIP3   OH246819   1.358   4.269  14.642 -0.2339 -0.0511  0.4832
 8443TIP3    H146820   1.265   4.259  14.666  0.3843 -0.5249  3.0301
 8443TIP3    H246821   1.371   4.363  14.635 -0.5798  0.1219  1.8072
 8444TIP3   OH246822   6.446   0.282  13.058  0.4426 -0.7285  0.2261
 8444TIP3    H146823   6.360   0.242  13.065 -0.6947  1.0615 -2.0645
 8444TIP3    H246824   6.465   0.282  12.964  1.0952  2.4110  0.2454
 8445TIP3   OH246825   0.310   5.445   5.295 -0.5116 -0.2817  0.1870
 8445TIP3    H146826   0.277   5.388   5.226 -2.2662  0.2802  0.5152
 8445TIP3    H246827   0.256   5.425   5.371 -0.5993  1.2086  0.5474
 8446TIP3   OH246828   2.700   0.063  11.347  0.4486  0.3860  0.7691
 8446TIP3    H146829   2.731   0.043  11.258 -0.9036 -0.7663  0.5114
 8446TIP3    H246830   2.776   0.049  11.403  0.3971 -2.8451  0.2362
 8447TIP3   OH246831   4.918   0.198   5.548  0.1895  0.2593 -0.2653
 8447TIP3    H146832   4.838   0.233   5.508 -0.2049  1.0634  1.1787
 8447TIP3    H246833   4.901   0.197   5.642  1.5123 -0.5165  0.0033
 8448TIP3   OH246834   1.141   1.857   2.252  0.0859  0.8121 -0.0748
 8448TIP3    H146835   1.129   1.765   2.277 -0.9401  0.7602 -0.6961
 8448TIP3    H246836   1.079   1.905   2.308 -0.4418  0.9564 -0.7701
 8449TIP3   OH246837   5.243   1.222  11.024  0.4328  0.4815 -0.7532
 8449TIP3    H146838   5.297   1.204  11.102  0.3992 -1.5657 -1.1629
 8449TIP3    H246839   5.289   1.178  10.953 -2.4667 -2.7305 -0.8825
 8450TIP3   OH246840   6.592   4.109  11.865 -0.4277  0.2425  0.3278
 8450TIP3    H146841   6.580   4.116  11.771 -0.6823  0.9617  0.4055
 8450TIP3    H246842   6.623   4.195  11.892  2.2171 -0.7031  0.5511
 8451TIP3   OH246843   4.368   3.411  16.119 -0.9253 -0.2755  0.5091
 8451TIP3    H146844   4.430   3.376  16.183 -1.7269 -2.4808  0.2011
 8451TIP3    H246845   4.420   3.470  16.065 -0.0662  1.0695  2.6822
 8452TIP3   OH246846   6.388   5.046  14.772  0.5579 -0.0790 -1.1999
 8452TIP3    H146847   6.312   4.989  14.763  1.3148 -1.1550 -0.8940
 8452TIP3    H246848   6.415   5.064  14.682  0.3635 -0.2494 -1.2937
 8453TIP3   OH246849   5.089   2.862  11.540  0.0306  0.1772  0.3581
 8453TIP3    H146850   5.083   2.828  11.630  1.4897  1.3464  0.9334
 8453TIP3    H246851   5.154   2.805  11.498 -0.4606 -0.2056  0.1068
 8454TIP3   OH246852   3.707   5.497   1.696  0.2706 -0.6465 -0.1120
 8454TIP3    H146853   3.738   5.516   1.607 -1.3073 -2.1023 -1.0309
 8454TIP3    H246854   3.773   5.538   1.753  1.2361  0.4865 -1.9194
 8455TIP3   OH246855   5.220   0.130  14.556 -0.1398  0.3143 -0.1193
 8455TIP3    H146856   5.281   0.170  14.493  1.8931 -0.5752  1.1861
 8455TIP3    H246857   5.245   0.166  14.641 -1.2929 -0.2758  0.5028
 8456TIP3   OH246858   0.263   5.689   6.775  0.3887 -0.0587 -0.1943
 8456TIP3    H146859   0.200   5.697   6.703 -0.3191  0.1272  0.4269
 8456TIP3    H246860   0.344   5.659   6.733  0.3202  1.0925 -1.2357
 8457TIP3   OH246861   3.029   6.712   0.838 -0.4762 -0.4405 -0.1661
 8457TIP3    H146862   3.121   6.739   0.832 -0.4148 -0.6161 -0.0450
 8457TIP3    H246863   3.023   6.634   0.783 -0.1915 -1.3368  1.0243
 8458TIP3   OH246864   5.681   6.229   0.957 -0.3599  0.2647  0.2255
 8458TIP3    H146865   5.706   6.317   0.928 -1.9041  0.6671  0.0637
 8458TIP3    H246866   5.623   6.197   0.888  0.6713 -1.1515 -0.0259
 8459TIP3   OH246867   0.835   4.340   5.727 -0.5351  0.2614 -0.0703
 8459TIP3    H146868   0.812   4.433   5.726  0.1653  0.5235  2.2264
 8459TIP3    H246869   0.779   4.300   5.661 -0.2351  2.4260 -1.7333
 8460TIP3   OH246870   5.009   4.795  15.926  0.3662  0.3169  0.1050
 8460TIP3    H146871   5.061   4.735  15.979 -0.2239  0.3763  0.7673
 8460TIP3    H246872   4.941   4.740  15.886  0.8251  0.2673 -0.6251
 8461TIP3   OH246873   1.147   3.544  16.474 -0.1632  0.6848 -0.3884
 8461TIP3    H146874   1.134   3.450  16.468  0.4060  0.6658 -1.9199
 8461TIP3    H246875   1.126   3.577  16.386 -0.2066  1.9675  0.0711
 8462TIP3   OH246876   6.753   6.140   5.177  0.3020 -0.5016 -0.1496
 8462TIP3    H146877   6.689   6.164   5.110  0.2634 -0.9425 -0.2772
 8462TIP3    H246878   6.831   6.190   5.156  0.4791 -1.0606 -0.8664
 8463TIP3   OH246879   4.941   5.801   2.212 -0.5688 -0.1019  0.2759
 8463TIP3    H146880   4.912   5.888   2.241  1.1218  0.1589  1.2944
 8463TIP3    H246881   4.943   5.808   2.117  0.8635  1.4759  0.3630
 8464TIP3   OH246882   2.150   3.525   6.176 -0.0576 -0.2356 -0.4994
 8464TIP3    H146883   2.187   3.597   6.227 -0.2750 -1.0948  0.9148
 8464TIP3    H246884   2.072   3.562   6.135  0.7751  0.7933 -1.1923
 8465TIP3   OH246885   1.250   1.864   5.497  0.5743 -0.1845  0.2485
 8465TIP3    H146886   1.197   1.787   5.473 -1.0120  1.0549 -0.4270
 8465TIP3    H246887   1.315   1.871   5.427 -1.3962  0.9716 -1.5924
 8466TIP3   OH246888   4.541   4.867   5.694  0.3142  0.2058  0.3997
 8466TIP3    H146889   4.521   4.776   5.712 -1.2898 -0.0975 -2.3529
 8466TIP3    H246890   4.623   4.865   5.646  0.3552  0.2197  0.4694
 8467TIP3   OH246891   3.454   2.909  13.046  0.2155  0.3974  0.2517
 8467TIP3    H146892   3.395   2.963  12.994 -0.5066 -0.9618 -0.3981
 8467TIP3    H246893   3.542   2.931  13.014 -0.0161  1.5449  0.3732
 8468TIP3   OH246894   6.285   4.182  16.854  0.3912  0.0632  0.4564
 8468TIP3    H146895   6.198   4.144  16.866  1.4185 -3.1791 -1.2496
 8468TIP3    H246896   6.303   4.226  16.937 -1.5512 -2.0496  2.1516
 8469TIP3   OH246897   1.725   0.061  13.320  0.0301 -0.0499  0.3740
 8469TIP3    H146898   1.726   0.016  13.236 -0.4551 -0.7098  0.7103
 8469TIP3    H246899   1.667   0.136  13.307 -2.4075 -1.7209  0.8726
 8470TIP3   OH246900   4.360   5.702   2.555 -0.1207  0.1566 -0.4286
 8470TIP3    H146901   4.340   5.660   2.639 -2.6956  0.7407 -0.6634
 8470TIP3    H246902   4.309   5.654   2.491  1.0780  0.3260 -1.5507
 8471TIP3   OH246903   2.466   2.368  12.939  0.1542 -0.0710  0.5138
 8471TIP3    H146904   2.376   2.390  12.964 -0.8679 -2.3318 -0.8678
 8471TIP3    H246905   2.478   2.412  12.855  0.2739  0.0523  0.5950
 8472TIP3   OH246906   3.432   1.072   5.167  0.5394  0.0184 -0.8960
 8472TIP3    H146907   3.480   1.131   5.224  0.1437  0.6437 -1.2048
 8472TIP3    H246908   3.353   1.049   5.217 -0.3138  1.3733 -1.5759
 8473TIP3   OH246909   6.022   5.548   4.543 -0.2241 -0.1474  0.3135
 8473TIP3    H146910   5.927   5.553   4.539 -0.1610  0.4479 -1.7344
 8473TIP3    H246911   6.045   5.473   4.487  0.5051 -0.2350  0.7180
 8474TIP3   OH246912   3.851   2.000   1.401  0.6024  0.4210 -0.4027
 8474TIP3    H146913   3.858   2.087   1.361 -0.5511 -0.0783 -1.7722
 8474TIP3    H246914   3.800   1.949   1.339  2.2776 -1.6235 -0.2134
 8475TIP3   OH246915   2.433   2.872  12.249  0.6403  0.3637  0.2731
 8475TIP3    H146916   2.373   2.916  12.188  0.2225 -0.8840 -0.2484
 8475TIP3    H246917   2.384   2.869  12.332  0.9550  1.4797  0.5265
 8476TIP3   OH246918   4.054   0.245  13.424 -0.3649 -0.0505 -0.7794
 8476TIP3    H146919   4.143   0.272  13.402 -1.0885  1.3952 -2.1875
 8476TIP3    H246920   4.013   0.324  13.458 -1.3963 -0.4247 -1.1226
 8477TIP3   OH246921   6.421   2.304   4.338 -0.2138 -0.0494  0.3891
 8477TIP3    H146922   6.422   2.346   4.252  0.1252 -0.3588  0.2391
 8477TIP3    H246923   6.513   2.301   4.364 -0.3919  0.9334  1.2046
 8478TIP3   OH246924   2.102   0.338  15.840  0.1426 -0.3977  0.2274
 8478TIP3    H146925   2.050   0.259  15.823  0.3544 -0.4211 -0.3526
 8478TIP3    H246926   2.037   0.406  15.856 -0.0318 -0.9648  2.1270
 8479TIP3   OH246927   4.928   4.155  16.862 -0.2340  0.3011  0.2831
 8479TIP3    H146928   4.883   4.096  16.801  1.0733  0.4056 -0.8092
 8479TIP3    H246929   4.969   4.096  16.926 -1.7512  0.2001  1.2308
 8480TIP3   OH246930   0.470   5.154   0.229  0.0155  0.4742 -0.1608
 8480TIP3    H146931   0.500   5.066   0.252  0.2948  0.3249 -1.0463
 8480TIP3    H246932   0.550   5.206   0.224  0.0818  0.2671 -1.7266
 8481TIP3   OH246933   2.760   2.194   6.097 -0.0186  0.8728 -0.2654
 8481TIP3    H146934   2.700   2.220   6.168 -0.3405  0.9714 -0.5704
 8481TIP3    H246935   2.724   2.235   6.019 -0.3730 -0.2419 -0.7092
 8482TIP3   OH246936   4.122   3.655  12.493  0.5271  0.4050  0.3439
 8482TIP3    H146937   4.098   3.743  12.465  0.0884  0.0724 -0.3587
 8482TIP3    H246938   4.057   3.631  12.558  0.3623  0.4155  0.1822
 8483TIP3   OH246939   1.298   3.884  14.628  0.2908  0.5484 -0.0854
 8483TIP3    H146940   1.211   3.887  14.668  0.2780  0.0861 -0.0693
 8483TIP3    H246941   1.285   3.832  14.548  0.4447  0.9289 -0.3599
 8484TIP3   OH246942   5.318   6.377  16.841  0.0432 -0.1255  0.0360
 8484TIP3    H146943   5.236   6.332  16.825  2.0874 -3.4533 -2.3853
 8484TIP3    H246944   5.354   6.394  16.753  2.0245  1.0865  0.9990
 8485TIP3   OH246945   5.980   1.158   4.344  0.3406 -0.0990 -0.0698
 8485TIP3    H146946   5.934   1.188   4.422 -0.9653 -1.7731 -0.1336
 8485TIP3    H246947   6.064   1.126   4.377  0.5124  0.7933  0.3895
 8486TIP3   OH246948   0.349   2.690  11.651 -0.3688 -0.0075 -0.2826
 8486TIP3    H146949   0.399   2.738  11.585  0.9029  0.5529  1.0370
 8486TIP3    H246950   0.259   2.692  11.619  0.3709 -0.8442 -2.6283
 8487TIP3   OH246951   1.447   1.568   1.414  0.0587 -0.0208  0.3079
 8487TIP3    H146952   1.469   1.570   1.321 -1.8845 -1.0009 -0.2238
 8487TIP3    H246953   1.528   1.540   1.457  0.8332 -0.1062 -1.1288
 8488TIP3   OH246954   3.442   0.069   3.654  0.0326 -0.1764 -0.7390
 8488TIP3    H146955   3.458   0.095   3.563 -1.3679  0.7242 -0.7722
 8488TIP3    H246956   3.382   0.136   3.687  1.2996  0.0939  1.1776
 8489TIP3   OH246957   5.070   0.420   2.305 -0.6060  0.3211  0.2566
 8489TIP3    H146958   5.004   0.489   2.296 -1.2306 -0.1980  0.7784
 8489TIP3    H246959   5.153   0.467   2.308 -1.0206  1.0521  0.5645
 8490TIP3   OH246960   1.735   4.199   0.694  0.2220 -0.2212 -0.0305
 8490TIP3    H146961   1.823   4.222   0.665  0.5678  0.8624  1.6952
 8490TIP3    H246962   1.739   4.205   0.790 -1.6923 -0.2277  0.0969
 8491TIP3   OH246963   0.981   0.693  10.792  0.3893 -0.1859  0.0442
 8491TIP3    H146964   1.066   0.678  10.834  0.7709 -0.6478 -0.8657
 8491TIP3    H246965   0.963   0.786  10.807  1.7989  0.3069 -1.0288
 8492TIP3   OH246966   2.434   2.325   0.473 -0.5416  0.4341 -0.5429
 8492TIP3    H146967   2.424   2.389   0.403 -1.4482 -0.0709 -0.8984
 8492TIP3    H246968   2.514   2.277   0.452  0.1697  1.4539 -0.2482
 8493TIP3   OH246969   4.656   0.827  13.103 -0.0606  0.4185 -0.4488
 8493TIP3    H146970   4.694   0.786  13.026 -0.6716  0.9520 -1.0435
 8493TIP3    H246971   4.581   0.877  13.070  0.0435  1.1639  0.3933
 8494TIP3   OH246972   2.529   3.843  12.991 -0.2859 -0.0467  0.2169
 8494TIP3    H146973   2.469   3.916  13.009 -2.1222 -0.6057 -2.7757
 8494TIP3    H246974   2.604   3.883  12.947 -0.9298  0.1841 -0.7085
 8495TIP3   OH246975   2.260   0.085   3.494  0.4573 -0.6922 -0.0977
 8495TIP3    H146976   2.303   0.015   3.542 -1.0042 -1.1896  0.5541
 8495TIP3    H246977   2.330   0.146   3.471  1.7573 -2.3278 -0.6575
 8496TIP3   OH246978   2.878   0.087  13.417  0.0189  0.1855 -0.1686
 8496TIP3    H146979   2.892   0.006  13.369 -0.3110  0.6294 -1.0440
 8496TIP3    H246980   2.938   0.082  13.491  0.0032 -0.8480 -0.2086
 8497TIP3   OH246981   3.314   4.137  14.557 -0.4852 -0.1709  0.4373
 8497TIP3    H146982   3.351   4.053  14.587  2.0314  0.5268 -0.4333
 8497TIP3    H246983   3.331   4.197  14.630  1.2977  0.4145 -0.3892
 8498TIP3   OH246984   5.409   3.794  12.266 -0.0593 -0.0638  0.2656
 8498TIP3    H146985   5.398   3.700  12.251  0.0733 -0.1616  0.7652
 8498TIP3    H246986   5.470   3.822  12.197 -1.6042  0.0418 -1.0996
 8499TIP3   OH246987   2.715   5.767   1.618  0.2864 -0.5049  0.2446
 8499TIP3    H146988   2.775   5.696   1.642  1.5892  0.5269  0.1082
 8499TIP3    H246989   2.772   5.838   1.589 -0.9417  0.9153  1.1852
 8500TIP3   OH246990   2.398   4.501   3.270 -0.3383 -0.0529  0.3312
 8500TIP3    H146991   2.469   4.504   3.334  2.7700  2.0223 -2.7994
 8500TIP3    H246992   2.371   4.592   3.259 -0.7355 -0.3308 -1.2864
 8501TIP3   OH246993   0.068   5.797   3.042 -0.0230  0.0893 -0.3415
 8501TIP3    H146994   0.069   5.811   3.137 -1.1650  0.2228 -0.3329
 8501TIP3    H246995   0.135   5.856   3.008  0.7607 -0.3439  0.4215
 8502TIP3   OH246996   1.366   3.098  12.274 -0.0165 -0.0705 -0.0378
 8502TIP3    H146997   1.435   3.161  12.295  0.0657  0.2817 -1.2652
 8502TIP3    H246998   1.293   3.122  12.331  1.0641 -0.8607  1.7517
 8503TIP3   OH246999   4.340   5.752  11.913 -0.4420 -0.0381 -0.3076
 8503TIP3    H147000   4.367   5.841  11.934  0.3742 -0.4318  0.4342
 8503TIP3    H247001   4.270   5.732  11.976 -0.7748  0.1565 -0.6184
 8504TIP3   OH247002   0.930   4.990   1.370  0.5204 -0.3256  0.4598
 8504TIP3    H147003   0.911   4.896   1.371  0.7147 -0.3682  1.7836
 8504TIP3    H247004   0.985   5.004   1.447  0.2493  0.9277  0.4388
 8505TIP3   OH247005   5.179   3.671   5.464 -0.3918  0.4866  0.4935
 8505TIP3    H147006   5.133   3.730   5.524 -2.7204 -1.8436  1.1907
 8505TIP3    H247007   5.117   3.657   5.392  1.1583  0.8460 -1.0000
 8506TIP3   OH247008   1.922   4.400  14.730  0.2988  0.6849  0.0149
 8506TIP3    H147009   1.859   4.390  14.801  0.5179 -1.0668  0.0177
 8506TIP3    H247010   2.007   4.408  14.774  0.3488  0.3937 -0.0235
 8507TIP3   OH247011   0.103   2.420   5.938 -0.2803  0.1965  0.3002
 8507TIP3    H147012   0.124   2.480   6.010 -1.6039  0.7796  0.2189
 8507TIP3    H247013   0.184   2.371   5.924  1.1209  2.4565 -0.1070
 8508TIP3   OH247014   4.688   1.632   5.367  0.3736  0.5653  0.3308
 8508TIP3    H147015   4.728   1.718   5.361  0.2812  0.6912  1.2902
 8508TIP3    H247016   4.731   1.590   5.442 -0.8102  0.4635  0.9944
 8509TIP3   OH247017   6.268   3.296   2.443 -0.4386  0.5547 -0.1832
 8509TIP3    H147018   6.234   3.244   2.371  0.7430  0.0782 -0.4249
 8509TIP3    H247019   6.331   3.239   2.487  0.0502  1.3795  0.2289
 8510TIP3   OH247020   4.147   4.931   4.340 -0.3772  0.0998  0.2369
 8510TIP3    H147021   4.144   5.024   4.315 -0.3138  0.1116  0.2727
 8510TIP3    H247022   4.143   4.932   4.436  2.3967  0.1986  0.4343
 8511TIP3   OH247023   4.572   6.256   0.315 -0.3759  0.0058 -0.5760
 8511TIP3    H147024   4.567   6.164   0.341 -3.6576  0.8311  2.4843
 8511TIP3    H247025   4.649   6.289   0.361 -0.1364 -0.8499 -0.3254
 8512TIP3   OH247026   1.925   0.804   5.352 -0.0959  0.7852 -0.1866
 8512TIP3    H147027   2.000   0.745   5.349 -0.0610  0.7388  0.9974
 8512TIP3    H247028   1.960   0.889   5.326  0.3993  0.7837  0.4512
 8513TIP3   OH247029   5.097   3.383  13.629  0.0523 -0.7079  0.0261
 8513TIP3    H147030   5.118   3.475  13.609  1.8250 -0.9876  0.4182
 8513TIP3    H247031   5.011   3.387  13.671  0.0967  0.7755  0.0489
 8514TIP3   OH247032   1.677   2.501   4.674 -0.3146  0.1872 -0.3902
 8514TIP3    H147033   1.686   2.445   4.751 -0.5758 -0.1634 -0.6142
 8514TIP3    H247034   1.713   2.449   4.602  0.1248  0.5972 -0.4686
 8515TIP3   OH247035   4.055   2.412   0.909 -0.0851 -0.0474  0.1655
 8515TIP3    H147036   3.989   2.471   0.946 -0.8107 -0.9650  0.3729
 8515TIP3    H247037   4.026   2.399   0.819 -0.2436 -0.5305  0.2862
 8516TIP3   OH247038   2.165   1.618   5.499 -0.3852  0.3047 -0.1967
 8516TIP3    H147039   2.159   1.651   5.589 -2.6593  2.2933 -0.9734
 8516TIP3    H247040   2.186   1.695   5.446  0.0761 -0.6698 -1.5028
 8517TIP3   OH247041   5.425   0.076  16.459 -0.5983  0.1973 -0.2970
 8517TIP3    H147042   5.466   0.007  16.511 -0.2587  0.8899  0.3793
 8517TIP3    H247043   5.350   0.104  16.512 -0.7159  0.3677 -0.5533
 8518TIP3   OH247044   0.812   6.100  14.122  0.0216 -0.1552 -0.3384
 8518TIP3    H147045   0.742   6.165  14.125  0.8681  0.7491  0.6228
 8518TIP3    H247046   0.824   6.074  14.213  3.2617  2.3524  0.1618
 8519TIP3   OH247047   6.807   0.281  15.854  0.5237  0.2455  0.2553
 8519TIP3    H147048   6.751   0.228  15.797  0.2514  0.6249  0.1706
 8519TIP3    H247049   6.859   0.334  15.794 -1.5370  2.5338  0.3219
 8520TIP3   OH247050   2.801   2.687  16.688  0.1181  0.1808  0.1920
 8520TIP3    H147051   2.787   2.771  16.644 -3.6030 -0.6000 -0.4624
 8520TIP3    H247052   2.761   2.623  16.629  3.5834 -2.2690  0.2511
 8521TIP3   OH247053   0.740   1.923  15.761 -0.2383  0.4879  0.8074
 8521TIP3    H147054   0.683   1.849  15.783 -0.3147  0.3042 -0.0065
 8521TIP3    H247055   0.828   1.885  15.760 -0.2339  0.4988  0.7913
 8522TIP3   OH247056   4.348   0.737  14.923 -1.1197  0.2353  0.2541
 8522TIP3    H147057   4.342   0.642  14.916  2.5957 -0.1330  0.1419
 8522TIP3    H247058   4.330   0.768  14.834  0.5740 -0.6889 -0.4702
 8523TIP3   OH247059   5.217   1.878   1.172  0.1451  0.1975 -0.3821
 8523TIP3    H147060   5.300   1.831   1.179  0.0904  0.3111  1.9562
 8523TIP3    H247061   5.153   1.820   1.212 -0.5143  0.9662 -0.2827
 8524TIP3   OH247062   1.028   0.518  13.308 -0.3587  0.0752 -0.1392
 8524TIP3    H147063   1.015   0.613  13.310 -1.5193 -0.0833  0.4914
 8524TIP3    H247064   1.065   0.498  13.394 -2.5968 -0.3419  0.8025
 8525TIP3   OH247065   4.358   4.378  11.972  0.1787 -0.2192 -0.1517
 8525TIP3    H147066   4.429   4.433  12.005 -0.3810  0.2780  0.2523
 8525TIP3    H247067   4.372   4.375  11.877  0.6654 -0.0244 -0.0903
 8526TIP3   OH247068   1.090   2.535   4.689  0.4242  0.6267 -0.1587
 8526TIP3    H147069   1.171   2.517   4.737  0.5473 -2.7809 -1.3511
 8526TIP3    H247070   1.119   2.573   4.607  0.7282  0.4963 -0.1161
 8527TIP3   OH247071   6.226   4.511   5.440 -0.0752  0.0822  0.0017
 8527TIP3    H147072   6.132   4.495   5.429 -0.0968  0.3898 -0.2837
 8527TIP3    H247073   6.232   4.606   5.452  0.3827  0.3571 -2.0640
 8528TIP3   OH247074   4.940   6.077   2.258  0.3042 -0.2035  0.1551
 8528TIP3    H147075   5.007   6.118   2.203  0.0072 -0.1730 -0.1848
 8528TIP3    H247076   4.883   6.149   2.286 -0.6651 -0.4718 -1.0642
 8529TIP3   OH247077   4.917   2.345   0.953 -0.1692 -0.1322  0.1220
 8529TIP3    H147078   4.856   2.289   1.001  0.4056  0.6273  1.7949
 8529TIP3    H247079   4.861   2.413   0.914 -0.3532  1.4906  2.9429
 8530TIP3   OH247080   0.750   2.530   2.698 -0.3941 -0.0235  0.9133
 8530TIP3    H147081   0.844   2.536   2.681 -0.6696 -0.8330 -1.0861
 8530TIP3    H247082   0.711   2.597   2.642 -1.0298  0.2962  1.7242
 8531TIP3   OH247083   4.137   6.429  12.818  0.0833 -0.1805  0.4060
 8531TIP3    H147084   4.077   6.386  12.757  0.1884 -0.7106  0.6734
 8531TIP3    H247085   4.081   6.464  12.887  0.0153 -0.0511  0.2859
 8532TIP3   OH247086   4.693   6.578   6.536  0.2145  0.0695  0.3873
 8532TIP3    H147087   4.604   6.600   6.563  0.1539 -0.4649  0.6471
 8532TIP3    H247088   4.738   6.662   6.527 -0.4442  0.3662 -0.1955
 8533TIP3   OH247089   5.865   0.848  14.998 -0.1680 -0.4685 -0.3376
 8533TIP3    H147090   5.878   0.787  15.070  0.6982 -1.6684 -1.4656
 8533TIP3    H247091   5.771   0.845  14.981 -0.4690  0.2106  1.0205
 8534TIP3   OH247092   0.889   0.457  14.087 -0.0493 -0.8590 -0.3775
 8534TIP3    H147093   0.815   0.426  14.140 -1.4583 -1.6495 -2.6730
 8534TIP3    H247094   0.906   0.546  14.120 -0.7639 -1.3484  1.4393
 8535TIP3   OH247095   5.524   0.446  13.210 -0.6694 -0.0963 -0.0764
 8535TIP3    H147096   5.502   0.537  13.190 -1.0462 -0.2566 -0.3956
 8535TIP3    H247097   5.542   0.446  13.304  0.6092  0.5619 -0.2957
 8536TIP3   OH247098   2.364   6.013   5.492  0.0077 -0.6775 -0.1108
 8536TIP3    H147099   2.457   6.011   5.511 -0.1802 -1.2260  0.7876
 8536TIP3    H247100   2.325   6.059   5.567 -0.4699 -0.6779 -0.3515
 8537TIP3   OH247101   2.944   4.888  10.771  0.6992 -0.0781 -0.0666
 8537TIP3    H147102   2.942   4.800  10.809  2.1925  0.0625  0.3844
 8537TIP3    H247103   3.029   4.893  10.728  0.5722  1.1089 -0.2042
 8538TIP3   OH247104   4.236   1.791  16.530 -0.5898 -0.1964  0.3679
 8538TIP3    H147105   4.285   1.767  16.609  1.6052  0.6763 -0.6467
 8538TIP3    H247106   4.146   1.763  16.548 -0.0575 -0.4637  2.9499
 8539TIP3   OH247107   1.170   4.870  13.125 -0.1858 -0.6193  0.6993
 8539TIP3    H147108   1.127   4.943  13.083 -0.0899 -0.4584  0.8778
 8539TIP3    H247109   1.220   4.909  13.197 -0.1483 -0.8591  0.8074
 8540TIP3   OH247110   4.428   2.291   4.220  0.0228  0.0343 -0.5895
 8540TIP3    H147111   4.493   2.362   4.222  0.8534 -0.6584 -1.8617
 8540TIP3    H247112   4.425   2.264   4.129  1.7764 -3.3770  0.1923
 8541TIP3   OH247113   6.374   3.866  11.822 -0.0260  0.2554 -0.4108
 8541TIP3    H147114   6.468   3.887  11.823 -0.5414  3.0178  0.9171
 8541TIP3    H247115   6.370   3.772  11.807  3.0773 -0.4240  2.0071
 8542TIP3   OH247116   4.295   3.991  11.040  0.6121 -0.2483  0.8954
 8542TIP3    H147117   4.306   4.001  11.135  0.0304  0.5587  0.8934
 8542TIP3    H247118   4.295   3.897  11.026  1.6284 -0.3624  1.5795
 8543TIP3   OH247119   4.429   0.589  14.128  0.3904  0.0106 -0.5502
 8543TIP3    H147120   4.352   0.617  14.178  2.0644  1.7997  1.2570
 8543TIP3    H247121   4.395   0.533  14.059 -2.4719  0.4704  0.3731
 8544TIP3   OH247122   2.527   6.731  14.501 -0.3021 -0.1252 -0.3507
 8544TIP3    H147123   2.444   6.760  14.537  0.5074  0.9373  0.7623
 8544TIP3    H247124   2.549   6.797  14.435  0.4402  0.5584  0.5516
 8545TIP3   OH247125   4.833   3.780   2.376 -0.1357  0.8257  0.2899
 8545TIP3    H147126   4.749   3.825   2.376  0.3781  1.8743 -0.9712
 8545TIP3    H247127   4.879   3.816   2.301  0.3620 -1.8160 -0.7764
 8546TIP3   OH247128   5.241   1.832  10.728  0.3663  0.1946 -0.0850
 8546TIP3    H147129   5.195   1.867  10.804  0.1820  0.7098 -0.4280
 8546TIP3    H247130   5.182   1.847  10.654 -0.1033 -1.6225 -0.1324
 8547TIP3   OH247131   4.567   4.400  13.157  0.0428  0.0320  0.1957
 8547TIP3    H147132   4.533   4.364  13.239  0.5196 -2.3756 -0.5788
 8547TIP3    H247133   4.660   4.416  13.175  0.1369 -0.4499  0.1589
 8548TIP3   OH247134   5.208   2.012   3.539 -0.3751  0.0693 -0.1107
 8548TIP3    H147135   5.169   1.961   3.468  0.2489 -0.6804  0.0736
 8548TIP3    H247136   5.135   2.058   3.579 -0.9652 -0.7586 -0.2172
 8549TIP3   OH247137   1.749   1.332  11.155 -0.3522  0.2508 -0.0242
 8549TIP3    H147138   1.685   1.397  11.126 -0.8564  1.3394  3.1559
 8549TIP3    H247139   1.696   1.258  11.185  0.1589 -0.9347 -1.8691
 8550TIP3   OH247140   6.522   6.179  16.908 -0.0954 -0.0264 -0.1233
 8550TIP3    H147141   6.557   6.204  16.822  0.6560 -2.2065 -0.4985
 8550TIP3    H247142   6.547   6.088  16.918  0.8681  0.4663  2.9343
 8551TIP3   OH247143   4.842   2.663   3.180  0.1244 -1.2083 -0.2820
 8551TIP3    H147144   4.935   2.667   3.205  0.8861 -1.7039 -2.7726
 8551TIP3    H247145   4.795   2.692   3.259  2.4771  1.1620  0.4030
 8552TIP3   OH247146   4.377   0.094   2.243  0.1731  0.3975 -0.1206
 8552TIP3    H147147   4.307   0.124   2.301 -0.4725 -0.9674 -0.1731
 8552TIP3    H247148   4.355   0.130   2.158 -0.0267  0.6305  0.0286
 8553TIP3   OH247149   1.886   0.747  10.610  0.0111  0.2585  0.3401
 8553TIP3    H147150   1.910   0.662  10.572 -1.4130 -0.0368  0.0652
 8553TIP3    H247151   1.940   0.810  10.563  0.6552 -0.4311  0.1353
 8554TIP3   OH247152   1.959   1.976  11.902 -0.4160  0.3768  0.8789
 8554TIP3    H147153   1.900   1.970  11.826 -0.4812  1.1528  0.8629
 8554TIP3    H247154   1.900   1.982  11.977 -0.3729  1.2495  0.8553
 8555TIP3   OH247155   1.983   3.756   1.736 -0.5483  0.6704  0.1919
 8555TIP3    H147156   1.891   3.748   1.710 -0.8661  2.1693  0.7301
 8555TIP3    H247157   2.011   3.666   1.754 -1.4949  0.0419 -1.3169
 8556TIP3   OH247158   5.014   1.264   1.989 -0.3148  0.0447  0.4288
 8556TIP3    H147159   4.950   1.335   1.995 -1.1794 -0.8128  1.7606
 8556TIP3    H247160   5.089   1.304   1.945 -0.9791  1.6337  0.6625
 8557TIP3   OH247161   4.882   5.223  13.271 -0.1435  0.1346 -0.1606
 8557TIP3    H147162   4.808   5.240  13.328  0.0012 -0.3689  0.1899
 8557TIP3    H247163   4.958   5.257  13.318  0.0253 -0.6250  0.1298
 8558TIP3   OH247164   1.935   6.808  16.660 -0.4359 -0.0126  0.2310
 8558TIP3    H147165   1.932   6.721  16.619  0.4964  0.0028  0.1113
 8558TIP3    H247166   2.027   6.819  16.684 -0.8120  0.3320  1.5663
 8559TIP3   OH247167   6.319   0.473   2.888  0.1480 -0.1255  0.7497
 8559TIP3    H147168   6.391   0.536   2.881  0.3542 -0.2452  1.6619
 8559TIP3    H247169   6.262   0.493   2.813 -1.2693  3.0094  2.4550
 8560TIP3   OH247170   5.245   5.565   6.648 -0.0820  0.3175  0.2314
 8560TIP3    H147171   5.152   5.587   6.649 -0.1339  0.2064 -0.8230
 8560TIP3    H247172   5.286   5.638   6.602  0.1432 -0.3602 -0.6572
 8561TIP3   OH247173   4.609   6.795   6.168  0.4249  0.4151  0.7473
 8561TIP3    H147174   4.519   6.770   6.150  0.1552  0.2322  2.1815
 8561TIP3    H247175   4.602   6.878   6.217  0.9539 -0.1312  1.7967
 8562TIP3   OH247176   5.608   4.308  12.816  0.3014  0.4210  0.4333
 8562TIP3    H147177   5.529   4.335  12.864 -0.6942  1.6819 -1.7502
 8562TIP3    H247178   5.670   4.380  12.828  0.7890 -0.1459  1.3837
 8563TIP3   OH247179   1.540   6.251   2.483 -0.1041 -0.0879  0.3397
 8563TIP3    H147180   1.633   6.241   2.503 -0.4343 -1.0186  1.4823
 8563TIP3    H247181   1.504   6.298   2.558 -0.0799  2.9399 -1.3700
 8564TIP3   OH247182   5.891   4.785   2.304  0.5652 -0.0482 -0.2490
 8564TIP3    H147183   5.827   4.714   2.305  0.1421  0.3055  1.2100
 8564TIP3    H247184   5.971   4.746   2.340  0.0660  0.3882  1.4476
 8565TIP3   OH247185   3.090   3.124   4.744 -0.2280 -0.4272 -0.1567
 8565TIP3    H147186   3.111   3.035   4.772 -0.5768 -0.4563  0.0130
 8565TIP3    H247187   3.082   3.174   4.825  2.4308  0.3496 -0.2744
 8566TIP3   OH247188   0.630   1.850  11.798  0.1716 -0.1635  0.6201
 8566TIP3    H147189   0.599   1.884  11.714 -0.3393 -1.3279  0.3254
 8566TIP3    H247190   0.674   1.925  11.839 -0.6326  0.7612 -0.1476
 8567TIP3   OH247191   4.433   5.969   0.718 -0.4406 -0.1876 -0.0474
 8567TIP3    H147192   4.503   6.033   0.704  0.1434 -0.6230  0.8067
 8567TIP3    H247193   4.370   5.988   0.649 -0.4427  1.5347  0.3836
 8568TIP3   OH247194   2.106   0.673   3.809  0.6860 -0.1095  0.0735
 8568TIP3    H147195   2.094   0.594   3.862  1.4470 -0.5245 -0.3506
 8568TIP3    H247196   2.201   0.678   3.796  0.4819 -0.3697 -1.7494
 8569TIP3   OH247197   0.945   3.740   3.185  0.3497 -0.1809 -0.2240
 8569TIP3    H147198   0.907   3.732   3.273 -1.2557  2.6388 -0.5454
 8569TIP3    H247199   0.998   3.661   3.175 -0.3897 -1.2063  2.7827
 8570TIP3   OH247200   2.710   0.486   1.074 -1.0887 -0.0886  0.0045
 8570TIP3    H147201   2.687   0.394   1.062 -1.7244  0.2908 -2.1819
 8570TIP3    H247202   2.804   0.484   1.096 -0.9571 -1.2329 -0.5617
 8571TIP3   OH247203   1.124   6.539   2.037  0.4190  0.4546 -0.0384
 8571TIP3    H147204   1.112   6.521   2.130  1.4258  1.0238  0.2167
 8571TIP3    H247205   1.179   6.466   2.006 -0.2758  0.0317 -0.2903
 8572TIP3   OH247206   2.213   0.269   4.056 -0.2120  0.0909  0.0356
 8572TIP3    H147207   2.239   0.201   4.118  0.3358  0.2981  0.0325
 8572TIP3    H247208   2.204   0.223   3.972  0.9667  0.1675 -0.1412
 8573TIP3   OH247209   5.245   1.326   5.396  0.5231 -0.0759  0.8050
 8573TIP3    H147210   5.308   1.326   5.323  0.1011 -1.3747  0.4103
 8573TIP3    H247211   5.291   1.282   5.467 -0.0930 -1.5027  0.3477
 8574TIP3   OH247212   2.357   0.826  11.999 -0.0644 -0.6667 -0.1298
 8574TIP3    H147213   2.315   0.810  12.084  2.6029  2.6184  2.1008
 8574TIP3    H247214   2.436   0.772  12.001 -0.9168 -2.0221 -1.4566
 8575TIP3   OH247215   3.427   5.112   4.927  0.5941  0.2110  0.0897
 8575TIP3    H147216   3.336   5.121   4.897  0.2585 -1.4535  0.5400
 8575TIP3    H247217   3.470   5.191   4.894 -1.0394  1.1140 -0.0056
 8576TIP3   OH247218   4.773   2.061  11.842  0.2819 -0.0633 -0.2211
 8576TIP3    H147219   4.806   2.147  11.817 -1.5581  0.7720  0.0661
 8576TIP3    H247220   4.845   2.020  11.890  0.7286  1.8851  0.8642
 8577TIP3   OH247221   6.835   5.179   1.715 -0.0385 -0.5538  0.8381
 8577TIP3    H147222   6.879   5.220   1.641 -1.6336  0.9771  0.6512
 8577TIP3    H247223   6.874   5.092   1.723  0.2521 -0.7135 -1.7261
 8578TIP3   OH247224   2.886   4.925   4.673  0.2250  0.5992 -0.2755
 8578TIP3    H147225   2.847   4.888   4.594  1.8704 -0.2224 -0.7434
 8578TIP3    H247226   2.891   5.019   4.655 -0.8062  0.6299 -0.4978
 8579TIP3   OH247227   0.117   1.923  10.936  0.0629 -0.1788  0.6183
 8579TIP3    H147228   0.039   1.868  10.937 -0.1447  0.0881 -0.3123
 8579TIP3    H247229   0.086   2.008  10.969 -0.0511 -0.0614  0.2112
 8580TIP3   OH247230   2.185   2.618  14.566  0.5237  0.9448 -0.0168
 8580TIP3    H147231   2.181   2.581  14.654  0.5788  0.1773 -0.3329
 8580TIP3    H247232   2.093   2.624  14.539  0.5857 -0.5036 -0.5945
 8581TIP3   OH247233   2.222   6.619   5.442 -0.0337  0.2894 -0.2467
 8581TIP3    H147234   2.224   6.712   5.418 -0.3227  1.4188  3.4218
 8581TIP3    H247235   2.304   6.605   5.489 -0.2213 -1.1920 -0.3317
 8582TIP3   OH247236   2.460   1.441  13.263  0.5901  0.1148 -0.4957
 8582TIP3    H147237   2.377   1.469  13.224 -0.3872  1.0880  2.0815
 8582TIP3    H247238   2.450   1.347  13.276 -1.0967  0.5144  1.7324
 8583TIP3   OH247239   1.719   3.373  17.037 -0.4072  0.0855 -0.1406
 8583TIP3    H147240   1.746   3.463  17.021  1.5854  0.3549  3.4893
 8583TIP3    H247241   1.655   3.354  16.968 -0.3795  3.9747 -1.4963
 8584TIP3   OH247242   1.826   5.620  11.120 -0.2694 -0.1921 -0.3733
 8584TIP3    H147243   1.894   5.575  11.070  0.9439 -1.3394  2.1237
 8584TIP3    H247244   1.866   5.703  11.147  0.6853 -1.3471  2.0423
 8585TIP3   OH247245   3.296   5.696  14.858 -0.7638  0.2221 -0.0551
 8585TIP3    H147246   3.218   5.639  14.858 -0.9914  0.5115 -1.1000
 8585TIP3    H247247   3.349   5.664  14.931 -0.7831 -1.4745 -0.7532
 8586TIP3   OH247248   5.916   3.727  16.144 -0.3723 -0.2850  0.3413
 8586TIP3    H147249   6.004   3.764  16.157 -0.2492 -0.8130  1.0892
 8586TIP3    H247250   5.866   3.757  16.220 -0.1212 -2.0343  1.2662
 8587TIP3   OH247251   0.879   6.690   0.399  0.6761 -0.1497  0.1051
 8587TIP3    H147252   0.851   6.728   0.315 -0.2178  0.8609  0.8334
 8587TIP3    H247253   0.797   6.666   0.443  1.1651 -1.3506  0.3957
 8588TIP3   OH247254   2.335   6.238  10.885  0.0823 -0.4363  0.0461
 8588TIP3    H147255   2.356   6.188  10.806 -1.1969 -3.1160  1.2762
 8588TIP3    H247256   2.404   6.214  10.947 -0.0844 -0.0013  0.3988
 8589TIP3   OH247257   4.950   3.211  10.518  0.3504 -0.4064 -0.0784
 8589TIP3    H147258   5.017   3.230  10.584 -0.3740  0.0387  0.5377
 8589TIP3    H247259   4.882   3.164  10.566 -1.6149  2.5368  0.2388
 8590TIP3   OH247260   3.574   2.803   0.764 -0.2559  0.6712  0.0195
 8590TIP3    H147261   3.542   2.776   0.850  0.9225 -3.1572 -0.5506
 8590TIP3    H247262   3.565   2.724   0.709  0.4755  2.4983 -2.9662
 8591TIP3   OH247263   2.686   3.485   6.033 -0.5279  0.0453 -0.0178
 8591TIP3    H147264   2.598   3.498   6.069 -0.5888  2.3814 -0.7994
 8591TIP3    H247265   2.719   3.406   6.076 -2.5048 -0.1415  1.2745
 8592TIP3   OH247266   4.596   5.972  15.963 -0.0477 -0.1728 -0.2922
 8592TIP3    H147267   4.655   5.907  16.004 -1.1392 -1.2182 -0.3184
 8592TIP3    H247268   4.561   5.927  15.887 -0.1095  0.8154 -0.8559
 8593TIP3   OH247269   6.831   0.892  12.785  0.1239  0.0497  0.6951
 8593TIP3    H147270   6.857   0.858  12.870 -1.4165  1.5209  1.8308
 8593TIP3    H247271   6.755   0.840  12.760  1.9005 -1.9223 -0.9571
 8594TIP3   OH247272   4.024   6.001  13.855 -0.3917  0.0485  0.7177
 8594TIP3    H147273   4.037   5.907  13.866 -0.3215 -0.0348 -0.0357
 8594TIP3    H247274   4.024   6.035  13.944  2.1022 -0.3279  0.9194
 8595TIP3   OH247275   3.002   5.500   5.591  0.0569  0.0322 -0.0913
 8595TIP3    H147276   3.073   5.497   5.527  0.3350 -1.2250  0.2512
 8595TIP3    H247277   2.924   5.473   5.542 -0.3423  2.0276 -0.6255
 8596TIP3   OH247278   6.515   2.896  14.007 -0.0348 -0.5988  0.6446
 8596TIP3    H147279   6.599   2.921  14.046  1.3505 -0.0915 -2.3674
 8596TIP3    H247280   6.526   2.804  13.983 -0.2466 -0.4942  0.1200
 8597TIP3   OH247281   1.738   1.150   0.567  0.5272  0.2176  0.5549
 8597TIP3    H147282   1.829   1.171   0.588 -0.1199  2.2428  1.6358
 8597TIP3    H247283   1.697   1.236   0.553 -1.6353 -0.5096  1.9754
 8598TIP3   OH247284   3.364   4.697   1.992  0.3514  0.1773 -0.3903
 8598TIP3    H147285   3.448   4.709   2.037 -0.4223  0.7174  0.9629
 8598TIP3    H247286   3.298   4.715   2.059 -0.8564  0.2447 -1.5622
 8599TIP3   OH247287   2.843   5.835   1.025 -0.1592  0.2838  0.2045
 8599TIP3    H147288   2.848   5.820   0.930 -1.3570  2.3683 -0.2539
 8599TIP3    H247289   2.910   5.778   1.062  1.0905  0.2248 -1.9956
 8600TIP3   OH247290   4.331   2.439   1.865 -0.3150 -0.0891 -0.1357
 8600TIP3    H147291   4.395   2.389   1.814 -0.4956 -1.3948  0.8629
 8600TIP3    H247292   4.247   2.418   1.825 -0.6344 -2.3237  1.5312
 8601TIP3   OH247293   5.716   4.998  14.662 -0.1485 -0.3752 -0.1957
 8601TIP3    H147294   5.656   5.071  14.678 -0.5236 -0.2156 -2.0971
 8601TIP3    H247295   5.658   4.923  14.649  0.1893 -0.7491  0.3956
 8602TIP3   OH247296   4.313   6.014  12.367  0.4565 -0.6405 -0.4624
 8602TIP3    H147297   4.381   5.952  12.395 -0.3222 -1.6978 -0.8436
 8602TIP3    H247298   4.306   6.077  12.439  0.5812 -1.5684  0.3806
 8603TIP3   OH247299   4.183   5.217  16.474 -0.0098  0.1179  0.2207
 8603TIP3    H147300   4.229   5.170  16.543  0.1043 -0.4646 -0.2393
 8603TIP3    H247301   4.191   5.309  16.498  1.4271  0.0354  0.1322
 8604TIP3   OH247302   6.189   4.730  14.888 -0.7832 -0.2294  0.4573
 8604TIP3    H147303   6.150   4.677  14.958 -0.1568 -0.9799  0.2600
 8604TIP3    H247304   6.268   4.766  14.928  0.1044 -1.4506 -0.1216
 8605TIP3   OH247305   3.974   3.173  11.068  0.1174 -0.0830 -0.1996
 8605TIP3    H147306   3.936   3.159  10.982 -0.8525 -4.0818  0.6747
 8605TIP3    H247307   3.998   3.265  11.069 -0.9700  0.4275 -4.2376
 8606TIP3   OH247308   2.626   0.867   2.033  0.0236  0.8100  0.2207
 8606TIP3    H147309   2.559   0.935   2.033 -1.2256 -0.3611 -0.4188
 8606TIP3    H247310   2.613   0.821   2.116 -1.0003 -0.3563 -0.5545
 8607TIP3   OH247311   4.436   5.176   1.652 -0.0120 -0.3861  0.2673
 8607TIP3    H147312   4.489   5.100   1.672  0.5190 -0.7412 -2.1663
 8607TIP3    H247313   4.398   5.157   1.566  0.6677  2.3265 -0.7430
 8608TIP3   OH247314   5.787   4.988  14.294  0.2483  0.3177  0.2422
 8608TIP3    H147315   5.865   5.024  14.336  0.9698 -0.5059 -0.3419
 8608TIP3    H247316   5.788   5.023  14.205 -0.4868  0.9182  0.4573
 8609TIP3   OH247317   6.148   5.216  12.100 -0.8808  0.2315 -0.0695
 8609TIP3    H147318   6.201   5.183  12.028  0.6475  1.3695  0.4931
 8609TIP3    H247319   6.102   5.291  12.063  1.3905  2.0439  0.5516
 8610TIP3   OH247320   5.917   1.756  12.996 -0.0479 -0.3063  0.3862
 8610TIP3    H147321   5.840   1.728  13.045  0.0523 -0.6342  0.3587
 8610TIP3    H247322   5.985   1.693  13.020 -0.3633 -1.3367 -1.2320
 8611TIP3   OH247323   1.756   1.549  11.682 -0.8472 -0.2682  0.2071
 8611TIP3    H147324   1.732   1.575  11.593  0.2440 -0.5673 -0.1928
 8611TIP3    H247325   1.708   1.468  11.698 -3.3338  1.2511  1.0115
 8612TIP3   OH247326   4.504   0.296   0.595  0.3681 -0.0573  0.3516
 8612TIP3    H147327   4.504   0.225   0.660 -0.8852 -0.2039  0.2081
 8612TIP3    H247328   4.597   0.316   0.583  0.8179 -2.0953 -0.0491
 8613TIP3   OH247329   3.827   3.656  12.288 -0.1520 -0.3021 -0.0720
 8613TIP3    H147330   3.842   3.714  12.213  2.1061  0.4548  0.8789
 8613TIP3    H247331   3.771   3.706  12.347 -2.7135 -1.2451 -1.5448
 8614TIP3   OH247332   0.050   6.456  15.713  0.0056 -0.0978 -0.0888
 8614TIP3    H147333   0.023   6.439  15.623 -2.5824 -2.0730  0.9463
 8614TIP3    H247334   0.091   6.543  15.710 -1.3730  0.5496 -2.8732
 8615TIP3   OH247335   1.468   2.643  15.357 -0.1038  0.2613  0.3455
 8615TIP3    H147336   1.432   2.674  15.440 -0.7282 -1.7677  0.8817
 8615TIP3    H247337   1.458   2.548  15.360  1.0215  0.0305 -1.5262
 8616TIP3   OH247338   5.528   2.541  10.973 -0.1609  0.4559 -0.1193
 8616TIP3    H147339   5.499   2.626  11.007  1.1138  0.6782  0.4510
 8616TIP3    H247340   5.555   2.492  11.051 -0.3203 -0.2628 -0.5050
 8617TIP3   OH247341   5.894   4.552  11.803  0.1589  0.2623 -0.3392
 8617TIP3    H147342   5.893   4.457  11.815 -2.1333  0.2963  0.3535
 8617TIP3    H247343   5.875   4.588  11.889 -2.7155  1.1263 -1.2084
 8618TIP3   OH247344   4.140   1.591  15.753 -0.7288 -0.1066 -0.0192
 8618TIP3    H147345   4.115   1.500  15.737 -2.6014 -0.3604  3.4543
 8618TIP3    H247346   4.058   1.640  15.753  0.2423  1.6907 -1.8516
 8619TIP3   OH247347   0.905   6.367  12.458 -0.4455  0.1148  0.2214
 8619TIP3    H147348   0.984   6.388  12.407 -0.9504  1.0554 -0.1995
 8619TIP3    H247349   0.929   6.388  12.549  0.2222 -0.8873  0.2865
 8620TIP3   OH247350   2.869   5.885  11.105 -0.1430  0.1860 -0.6246
 8620TIP3    H147351   2.929   5.821  11.142 -0.3398  0.8302  0.8754
 8620TIP3    H247352   2.899   5.898  11.015  2.3632  0.9730  0.2566
 8621TIP3   OH247353   0.701   6.544   3.667 -0.1212 -0.1975 -0.0292
 8621TIP3    H147354   0.691   6.518   3.759  1.5150 -0.7543  0.0101
 8621TIP3    H247355   0.690   6.639   3.668  1.5044  0.0157  1.0178
 8622TIP3   OH247356   2.789   3.691  10.834 -0.0687  0.7851  0.5614
 8622TIP3    H147357   2.719   3.735  10.786 -1.4963 -0.0269  1.8045
 8622TIP3    H247358   2.757   3.688  10.925  0.5924 -1.5031  0.7741
 8623TIP3   OH247359   6.628   0.593  16.579  0.0555  0.1841 -0.1274
 8623TIP3    H147360   6.683   0.520  16.549 -1.1348  0.0513 -2.1427
 8623TIP3    H247361   6.542   0.553  16.596 -0.1050  0.8068  0.5853
 8624TIP3   OH247362   6.268   0.899  13.318  0.2358 -0.2368  0.0867
 8624TIP3    H147363   6.177   0.910  13.293 -0.0419 -0.5802  0.9232
 8624TIP3    H247364   6.314   0.883  13.236 -0.4574 -0.0879 -0.3357
 8625TIP3   OH247365   0.909   6.306  15.664 -0.4677  0.9294 -0.4724
 8625TIP3    H147366   0.976   6.346  15.609  0.1864  2.2047  1.1626
 8625TIP3    H247367   0.838   6.370  15.666 -1.2603  0.1087 -1.2292
 8626TIP3   OH247368   2.709   4.648   4.665  0.1821 -0.6455 -0.5027
 8626TIP3    H147369   2.772   4.654   4.593  0.2496  1.0732 -0.3378
 8626TIP3    H247370   2.634   4.601   4.628  0.5554 -0.5188 -1.4459
 8627TIP3   OH247371   6.301   0.530   3.586 -0.6631 -0.1255  0.2675
 8627TIP3    H147372   6.370   0.466   3.566 -0.8330  0.0894 -1.0541
 8627TIP3    H247373   6.347   0.601   3.630 -0.4025 -0.9334  1.3691
 8628TIP3   OH247374   3.325   0.596   2.810  0.3862  0.0040 -0.6150
 8628TIP3    H147375   3.358   0.667   2.755  0.4341 -0.0781 -0.6926
 8628TIP3    H247376   3.400   0.537   2.820  0.7056  0.5718  0.4476
 8629TIP3   OH247377   2.517   5.993   2.761 -0.1088  0.0434  0.2878
 8629TIP3    H147378   2.498   6.066   2.819 -0.5563  0.6304 -0.5618
 8629TIP3    H247379   2.527   5.917   2.819 -0.4927  0.6150  1.1188
 8630TIP3   OH247380   4.465   0.549   6.314  0.7377  0.3848  0.2772
 8630TIP3    H147381   4.414   0.523   6.390  1.3602 -0.1815  0.5042
 8630TIP3    H247382   4.527   0.478   6.300 -1.1765 -0.9582 -2.4930
 8631TIP3   OH247383   6.647   0.385   6.022  0.2092  0.4329  0.2076
 8631TIP3    H147384   6.625   0.316   6.085 -0.9208  1.5824  1.1281
 8631TIP3    H247385   6.740   0.402   6.037  0.6348 -1.1568 -0.3454
 8632TIP3   OH247386   6.622   4.416  11.884  0.2921  0.0018  0.0622
 8632TIP3    H147387   6.712   4.431  11.854  0.7280 -0.4093  1.1153
 8632TIP3    H247388   6.623   4.443  11.976 -0.7395  0.2595  0.0079
 8633TIP3   OH247389   5.176   4.193   0.036 -1.0469  0.1048 -0.2238
 8633TIP3    H147390   5.148   4.103   0.047  0.6760 -0.3165  1.4940
 8633TIP3    H247391   5.243   4.190  -0.032  0.4486 -0.3516  1.1791
 8634TIP3   OH247392   3.795   1.956  11.335 -0.0251 -0.3002 -0.1226
 8634TIP3    H147393   3.738   1.971  11.260  0.0497 -1.1226 -0.3543
 8634TIP3    H247394   3.822   2.043  11.363  0.4944 -0.0092 -1.4720
 8635TIP3   OH247395   2.150   3.175  14.280  0.6993  0.1725  0.9897
 8635TIP3    H147396   2.129   3.100  14.225  0.8390  2.0131 -1.7277
 8635TIP3    H247397   2.074   3.185  14.337 -1.0832  0.2341 -1.2702
 8636TIP3   OH247398   5.675   3.123  14.668  0.2263 -0.1812  0.6829
 8636TIP3    H147399   5.633   3.053  14.719 -0.2588  0.5710  1.3494
 8636TIP3    H247400   5.606   3.155  14.611  0.7716 -1.0199 -0.4798
 8637TIP3   OH247401   1.959   6.421  14.279 -0.1295  0.2271  0.0884
 8637TIP3    H147402   1.943   6.419  14.373 -0.1686  1.0365  0.1077
 8637TIP3    H247403   2.006   6.339  14.261 -2.0870 -1.0214  0.4212
 8638TIP3   OH247404   3.610   0.886   2.995 -0.4502 -0.3116  0.3405
 8638TIP3    H147405   3.521   0.868   3.025 -0.2206 -1.4729  0.3629
 8638TIP3    H247406   3.665   0.872   3.073 -0.1470 -0.5831  0.0820
 8639TIP3   OH247407   5.394   2.270  11.217 -0.0319  0.3415  0.5180
 8639TIP3    H147408   5.392   2.203  11.286 -0.9243 -1.1858 -0.9292
 8639TIP3    H247409   5.445   2.230  11.147 -1.3512  0.8052 -0.7392
 8640TIP3   OH247410   3.848   3.884   2.102  0.1002 -0.0678 -0.2717
 8640TIP3    H147411   3.777   3.908   2.161 -0.2640  1.2737 -1.2154
 8640TIP3    H247412   3.924   3.872   2.159 -0.4814  0.1550  0.5682
 8641TIP3   OH247413   3.227   1.776   2.701  0.0106  0.6281 -0.0475
 8641TIP3    H147414   3.203   1.714   2.770 -1.3694  0.9817 -0.1759
 8641TIP3    H247415   3.315   1.804   2.724  0.2256 -0.5264  0.6359
 8642TIP3   OH247416   0.496   2.190   0.357 -0.3079  0.6527  0.1091
 8642TIP3    H147417   0.584   2.207   0.388 -0.7013  0.8208  1.1718
 8642TIP3    H247418   0.472   2.269   0.309  0.1070  0.6127 -0.1687
 8643TIP3   OH247419   4.792   1.253  15.439  0.2139 -0.3232 -0.5551
 8643TIP3    H147420   4.714   1.286  15.484  0.1830  0.0167 -0.8570
 8643TIP3    H247421   4.842   1.207  15.507 -0.4939 -0.9866 -0.4673
 8644TIP3   OH247422   1.720   2.471   3.411 -0.2864  0.4421 -0.2152
 8644TIP3    H147423   1.731   2.397   3.352  0.6779  0.5110 -0.1390
 8644TIP3    H247424   1.792   2.530   3.390 -0.3912  0.8369  0.4865
 8645TIP3   OH247425   4.170   3.516  16.528  0.3752 -0.1021  0.0818
 8645TIP3    H147426   4.233   3.555  16.467 -0.3619  0.9860 -0.0195
 8645TIP3    H247427   4.120   3.454  16.474  0.8733 -0.4328 -0.0049
 8646TIP3   OH247428   2.890   2.584  15.927 -0.4164 -0.4111 -0.7242
 8646TIP3    H147429   2.974   2.607  15.967 -0.2725  2.2524 -2.3299
 8646TIP3    H247430   2.826   2.597  15.998  0.4140 -2.2145  0.4356
 8647TIP3   OH247431   1.425   1.066   2.456 -0.1836 -0.0304  0.6555
 8647TIP3    H147432   1.443   0.976   2.430  0.4113 -0.0922  1.2294
 8647TIP3    H247433   1.497   1.117   2.418 -0.3274  0.1502  0.6239
 8648TIP3   OH247434   5.003   6.120  13.842  0.4059 -0.7486 -0.4061
 8648TIP3    H147435   5.033   6.168  13.765 -0.0881 -1.6637 -1.1790
 8648TIP3    H247436   5.027   6.177  13.916 -0.4464  0.8406 -1.2972
 8649TIP3   OH247437   4.059   3.418  15.025  0.1174 -0.6998  0.0472
 8649TIP3    H147438   3.995   3.486  15.001  0.1591 -0.5286  0.4073
 8649TIP3    H247439   4.139   3.467  15.045  0.0515 -0.8197  0.6402
 8650TIP3   OH247440   5.347   0.705   5.257  0.0750  0.4904 -0.3867
 8650TIP3    H147441   5.252   0.707   5.254  0.0013  0.0724  1.0190
 8650TIP3    H247442   5.374   0.705   5.165 -1.2769  0.3264 -0.8018
 8651TIP3   OH247443   6.579   4.527  13.974 -0.1361 -0.5823  0.0197
 8651TIP3    H147444   6.619   4.614  13.963 -2.0634  0.6533  1.8991
 8651TIP3    H247445   6.651   4.471  14.002  1.2086  0.3381 -1.4542
 8652TIP3   OH247446   0.485   4.020  14.105  0.1480  0.2496 -0.4194
 8652TIP3    H147447   0.563   4.065  14.135  0.3791 -0.2888 -0.1960
 8652TIP3    H247448   0.518   3.945  14.055 -0.2087 -0.5582  0.5382
 8653TIP3   OH247449   1.419   0.414  16.521  0.1866  0.0589 -0.3617
 8653TIP3    H147450   1.460   0.345  16.574  1.4778  1.3284  0.3382
 8653TIP3    H247451   1.376   0.366  16.450 -2.0126 -1.7607  1.9932
 8654TIP3   OH247452   5.400   6.802   2.030 -0.2244  0.5039  0.4015
 8654TIP3    H147453   5.331   6.771   1.971 -1.4159  0.4539  1.7639
 8654TIP3    H247454   5.428   6.885   1.993 -0.2167 -0.0181 -0.7908
 8655TIP3   OH247455   3.869   2.962   4.834  0.2498  0.2666 -0.0295
 8655TIP3    H147456   3.819   3.009   4.900  0.0659 -1.7620  1.3507
 8655TIP3    H247457   3.804   2.935   4.769 -0.3820 -1.5381  1.2755
 8656TIP3   OH247458   3.885   4.458  16.049 -0.0180 -0.4329 -0.8085
 8656TIP3    H147459   3.861   4.403  15.975 -0.0841 -0.5023 -0.7366
 8656TIP3    H247460   3.888   4.547  16.014 -0.3544 -0.4286 -0.8227
 8657TIP3   OH247461   3.970   5.134   1.577  0.3289 -0.5224 -0.0782
 8657TIP3    H147462   4.011   5.063   1.626 -1.8109 -2.0442 -0.3769
 8657TIP3    H247463   3.956   5.204   1.641  0.7284 -1.1078  0.6576
 8658TIP3   OH247464   6.105   3.267   5.273  0.0577  0.1319  0.4363
 8658TIP3    H147465   6.099   3.276   5.368 -0.1796 -2.7302  0.7569
 8658TIP3    H247466   6.140   3.179   5.259 -1.9370 -0.3713 -2.1249
 8659TIP3   OH247467   3.600   3.902   5.135  0.1173  0.3695 -0.2063
 8659TIP3    H147468   3.520   3.954   5.141 -1.0373 -1.2406 -1.1487
 8659TIP3    H247469   3.614   3.869   5.224 -0.6706  0.0799 -0.1847
 8660TIP3   OH247470   1.508   5.785   5.487 -0.0963 -0.6255  0.2363
 8660TIP3    H147471   1.582   5.817   5.538  0.5420  0.5967 -1.3641
 8660TIP3    H247472   1.509   5.690   5.501  2.0954 -0.7172 -0.1134
 8661TIP3   OH247473   0.591   5.452  10.890 -0.9125  0.1823  0.0281
 8661TIP3    H147474   0.536   5.527  10.910  0.4954  1.4153 -0.5179
 8661TIP3    H247475   0.681   5.485  10.897 -0.2430 -1.5059 -0.0366
 8662TIP3   OH247476   3.267   3.199  12.327  0.5966  0.4957 -0.1257
 8662TIP3    H147477   3.330   3.260  12.289 -0.4409  1.7225  0.0685
 8662TIP3    H247478   3.185   3.248  12.331  0.2261 -0.2218  2.0071
 8663TIP3   OH247479   4.899   6.669   1.043  0.4760  0.0839  0.1746
 8663TIP3    H147480   4.921   6.617   1.121 -0.1645 -0.1046  0.2362
 8663TIP3    H247481   4.960   6.743   1.046  1.9264 -1.0510 -0.3307
 8664TIP3   OH247482   0.533   5.522  17.056 -0.3460 -0.4651  0.2992
 8664TIP3    H147483   0.508   5.590  17.119  0.2026 -0.8331  0.9299
 8664TIP3    H247484   0.452   5.474  17.039 -0.7174  0.2704 -0.0727
 8665TIP3   OH247485   6.001   2.848   2.515 -0.2074 -0.0457 -0.4300
 8665TIP3    H147486   6.060   2.780   2.483 -1.3328 -0.7206 -1.1342
 8665TIP3    H247487   5.916   2.805   2.522 -0.8440  1.1642 -0.4284
 8666TIP3   OH247488   4.671   0.087  12.998  0.2144 -0.3317 -0.3635
 8666TIP3    H147489   4.644   0.094  12.906 -0.0322  0.4902 -0.2380
 8666TIP3    H247490   4.721   0.005  13.002  0.2387 -0.3731 -1.2311
 8667TIP3   OH247491   2.166   1.581  15.453 -0.0954 -0.7488 -0.5053
 8667TIP3    H147492   2.135   1.581  15.362  1.3783  0.6580 -1.0470
 8667TIP3    H247493   2.260   1.596  15.446 -0.2575  1.7024  1.2995
 8668TIP3   OH247494   1.741   2.623  16.302 -0.3046  0.1196  0.6087
 8668TIP3    H147495   1.818   2.670  16.269 -0.0902 -0.3606  0.4226
 8668TIP3    H247496   1.714   2.673  16.379 -0.4563  0.9160  0.0565
 8669TIP3   OH247497   1.977   0.783  16.084 -0.3547  0.5621  0.3527
 8669TIP3    H147498   2.019   0.780  15.998 -0.2757 -2.4226  0.3842
 8669TIP3    H247499   1.894   0.828  16.069 -0.1286  0.5164 -1.1846
 8670TIP3   OH247500   3.879   6.046   5.126 -0.0441  0.2710 -0.3041
 8670TIP3    H147501   3.917   6.122   5.082 -0.9896  0.0628 -1.5347
 8670TIP3    H247502   3.795   6.076   5.160 -0.4915 -0.2344 -0.9244
 8671TIP3   OH247503   6.216   3.187  12.302 -0.1258 -0.7059 -0.3907
 8671TIP3    H147504   6.243   3.272  12.269  0.4758 -0.7250  0.0497
 8671TIP3    H247505   6.161   3.206  12.378  1.2710 -0.7316  0.6543
 8672TIP3   OH247506   3.230   5.600  13.958 -0.6591 -0.4766  0.2511
 8672TIP3    H147507   3.175   5.632  14.029 -1.2530  0.8156 -0.7589
 8672TIP3    H247508   3.309   5.653  13.964 -0.9912  0.1098 -0.4534
 8673TIP3   OH247509   0.224   6.676   1.392 -0.9040 -0.3942  0.8496
 8673TIP3    H147510   0.211   6.762   1.352 -1.2541 -0.0859  1.6099
 8673TIP3    H247511   0.319   6.664   1.394 -0.7418  0.8693  2.5629
 8674TIP3   OH247512   0.325   0.077   2.427 -0.5212 -0.0963 -0.3058
 8674TIP3    H147513   0.253   0.097   2.367  0.1703 -1.8434 -1.8355
 8674TIP3    H247514   0.286   0.020   2.493 -0.9626  0.5864  0.0241
 8675TIP3   OH247515   5.953   5.460  11.211  0.2417 -0.0571 -0.4687
 8675TIP3    H147516   5.932   5.524  11.143  0.3805 -0.4942 -0.9350
 8675TIP3    H247517   5.911   5.379  11.181 -1.5463  0.2567  1.0592
 8676TIP3   OH247518   5.497   3.388   4.342  0.4403 -0.3711  0.6880
 8676TIP3    H147519   5.440   3.425   4.410  1.1548  0.6139  0.7738
 8676TIP3    H247520   5.445   3.319   4.301 -0.1740 -0.6628  1.9246
 8677TIP3   OH247521   2.732   4.619   1.111 -0.1893 -0.0928  0.2664
 8677TIP3    H147522   2.647   4.663   1.112 -0.0859  0.1979  2.6200
 8677TIP3    H247523   2.790   4.680   1.066 -0.9243  0.3338 -0.1215
 8678TIP3   OH247524   5.727   3.216   1.433  0.4113  0.0613  0.0692
 8678TIP3    H147525   5.779   3.163   1.373 -1.0445 -3.0566  1.3169
 8678TIP3    H247526   5.644   3.229   1.387  0.9477  1.8905 -0.4609
 8679TIP3   OH247527   4.363   1.703   1.501  0.4275  0.0698  0.4429
 8679TIP3    H147528   4.457   1.699   1.484  0.6895  2.3985  0.9608
 8679TIP3    H247529   4.328   1.755   1.428 -0.6047 -1.3742 -0.1389
 8680TIP3   OH247530   6.599   0.976  16.162 -0.0122  0.3003 -0.0633
 8680TIP3    H147531   6.535   0.915  16.126  0.9030  0.0514 -1.3730
 8680TIP3    H247532   6.567   1.062  16.136  0.8681  0.1050 -2.0184
 8681TIP3   OH247533   1.038   2.915   3.125 -1.2830  0.1825 -0.0835
 8681TIP3    H147534   1.053   2.825   3.152 -0.0737  0.2869 -0.3678
 8681TIP3    H247535   0.970   2.909   3.058  0.9534 -0.8878 -2.3751
 8682TIP3   OH247536   3.272   0.929  13.014  0.0800 -0.1937 -0.3652
 8682TIP3    H147537   3.179   0.951  13.012  0.2689  0.7518  0.3617
 8682TIP3    H247538   3.288   0.901  13.104  0.5257 -0.2304 -0.4531
 8683TIP3   OH247539   2.930   3.412  12.197  0.3067 -0.2704  0.3437
 8683TIP3    H147540   2.949   3.325  12.231  0.6076 -1.8080 -3.2702
 8683TIP3    H247541   2.856   3.443  12.248 -0.0940 -2.8495  1.4421
 8684TIP3   OH247542   3.117   5.971  14.440 -0.3678 -0.1428 -0.0268
 8684TIP3    H147543   3.043   5.931  14.394 -1.2131 -0.5602  1.6349
 8684TIP3    H247544   3.124   5.923  14.522  1.3803  0.2994  0.1182
 8685TIP3   OH247545   5.227   1.793   2.711  0.4108 -0.0518  0.4835
 8685TIP3    H147546   5.186   1.865   2.663 -0.9082 -0.1088  1.4761
 8685TIP3    H247547   5.229   1.822   2.802  1.5862 -0.5189  0.6232
 8686TIP3   OH247548   6.028   3.239  15.296 -0.1795  0.2388  0.6430
 8686TIP3    H147549   6.014   3.144  15.294 -1.2110  0.4021 -0.8215
 8686TIP3    H247550   5.952   3.273  15.343 -0.4396  0.4470  0.0679
 8687TIP3   OH247551   3.331   1.614  14.598 -0.4458 -0.3858 -0.2456
 8687TIP3    H147552   3.392   1.632  14.669  0.1219 -1.5420 -0.4158
 8687TIP3    H247553   3.291   1.699  14.579 -0.4989 -0.0234  1.3278
 8688TIP3   OH247554   1.272   6.399  12.783  0.1217 -0.1781  0.4226
 8688TIP3    H147555   1.216   6.409  12.706  0.6150  0.8530  0.1960
 8688TIP3    H247556   1.248   6.313  12.818 -0.1119 -0.6619 -0.8696
 8689TIP3   OH247557   1.626   5.995   0.065 -0.0535  0.2169 -0.1542
 8689TIP3    H147558   1.580   5.918   0.031 -0.7208  0.3207  0.4935
 8689TIP3    H247559   1.693   5.960   0.123 -1.1574  0.1353  1.1255
 8690TIP3   OH247560   3.806   4.480   4.081  0.0290 -0.6105  0.3599
 8690TIP3    H147561   3.750   4.530   4.021 -0.9994 -1.1696  0.8379
 8690TIP3    H247562   3.885   4.533   4.089 -0.8008  0.6768  0.4019
 8691TIP3   OH247563   5.768   5.983   0.871  0.0738 -0.3354  0.1943
 8691TIP3    H147564   5.717   5.930   0.933  0.5472  1.4481  2.2391
 8691TIP3    H247565   5.755   6.073   0.901  1.0507  0.5447 -1.8273
 8692TIP3   OH247566   3.091   1.503   5.187  0.0236  0.3858 -0.3591
 8692TIP3    H147567   3.006   1.538   5.212 -0.5511 -1.6990  0.9039
 8692TIP3    H247568   3.079   1.470   5.099  0.2049  2.0573 -1.0467
 8693TIP3   OH247569   5.124   1.715   2.225 -0.2721  0.4568 -0.0329
 8693TIP3    H147570   5.085   1.709   2.138  0.2250 -1.5120 -0.1837
 8693TIP3    H247571   5.049   1.714   2.285 -0.6043  1.5145 -0.4234
 8694TIP3   OH247572   4.627   5.129   3.486 -0.1427  0.8202 -0.1744
 8694TIP3    H147573   4.533   5.139   3.475 -0.3315  0.4008  0.8883
 8694TIP3    H247574   4.655   5.072   3.414 -0.7411  0.7566 -0.3572
 8695TIP3   OH247575   1.189   0.204  14.927 -0.2944  0.2074  0.6706
 8695TIP3    H147576   1.108   0.177  14.885 -0.0716  1.6417 -0.7764
 8695TIP3    H247577   1.250   0.131  14.913 -1.4218 -1.0897  2.1899
 8696TIP3   OH247578   2.777   4.329  15.295 -0.3814  0.0345 -0.3201
 8696TIP3    H147579   2.788   4.287  15.210 -0.2879 -0.5370 -0.0266
 8696TIP3    H247580   2.741   4.261  15.352  0.6798  0.0671  0.4091
 8697TIP3   OH247581   3.299   0.087   0.872 -0.4703  0.3286 -0.1468
 8697TIP3    H147582   3.311   0.076   0.966  0.8910  2.5683  0.0137
 8697TIP3    H247583   3.316   0.001   0.835  2.3776  0.1214  1.4007
 8698TIP3   OH247584   0.401   4.240  15.177 -0.0705  0.0304 -0.0624
 8698TIP3    H147585   0.382   4.146  15.176  1.2350 -0.2784 -1.9142
 8698TIP3    H247586   0.489   4.247  15.140  0.6548  1.8676  1.8454
 8699TIP3   OH247587   0.232   4.802   4.305  0.2359  0.4448 -0.8789
 8699TIP3    H147588   0.170   4.873   4.321 -0.2099 -0.2176  0.5127
 8699TIP3    H247589   0.219   4.777   4.213 -0.5550  1.2485 -0.9870
 8700TIP3   OH247590   5.609   5.577   0.321 -0.7333  0.1724 -0.0213
 8700TIP3    H147591   5.526   5.579   0.369 -0.5200  1.9249  0.3376
 8700TIP3    H247592   5.673   5.613   0.382  0.4077 -1.4521 -0.1756
 8701TIP3   OH247593   6.372   6.706  15.078  0.0985 -0.1747 -0.3091
 8701TIP3    H147594   6.423   6.641  15.127  0.7592  0.9456  0.5282
 8701TIP3    H247595   6.434   6.776  15.059 -1.3562  1.8805  1.9355
 8702TIP3   OH247596   6.356   2.900   6.524 -0.5550  0.0008 -0.5195
 8702TIP3    H147597   6.272   2.935   6.491 -0.3923 -0.7643 -1.8322
 8702TIP3    H247598   6.340   2.806   6.535  1.0504 -0.9027 -4.3007
 8703TIP3   OH247599   3.476   0.674   5.544  0.3391  0.3216  0.4245
 8703TIP3    H147600   3.468   0.690   5.450 -0.4158  0.9356  0.5725
 8703TIP3    H247601   3.409   0.608   5.563  0.5332  0.1520  0.5133
 8704TIP3   OH247602   0.549   3.004  13.445  0.0105  0.6935  0.0086
 8704TIP3    H147603   0.556   2.982  13.352 -2.9682 -0.6817 -0.0092
 8704TIP3    H247604   0.640   3.013  13.475  1.0529  0.8980 -2.9315
 8705TIP3   OH247605   3.917   4.346   4.850 -0.1460  0.3842  0.6689
 8705TIP3    H147606   4.007   4.331   4.881  1.0858  0.7361 -2.3848
 8705TIP3    H247607   3.871   4.265   4.872  1.3446 -0.4434  0.9462
 8706TIP3   OH247608   5.660   5.886   0.089  0.5075  0.3319 -0.2634
 8706TIP3    H147609   5.673   5.845   0.175  0.6686  2.2681  0.7100
 8706TIP3    H247610   5.572   5.922   0.093  0.7818  1.0644 -0.6194
 8707TIP3   OH247611   3.618   5.919  15.509 -0.0592 -0.1426 -0.3030
 8707TIP3    H147612   3.658   5.926  15.422 -0.9671  1.2621 -0.6464
 8707TIP3    H247613   3.656   5.993  15.557  0.9564 -1.3127  0.7304
 8708TIP3   OH247614   5.606   3.492   5.845 -0.7473 -0.5180  0.5377
 8708TIP3    H147615   5.601   3.510   5.939 -0.3064  0.7219  0.3358
 8708TIP3    H247616   5.604   3.396   5.840  2.4485 -0.7859  2.0187
 8709TIP3   OH247617   3.540   5.798  14.460 -0.5284 -0.2365 -0.6966
 8709TIP3    H147618   3.582   5.740  14.524  0.9033 -0.8078 -2.0859
 8709TIP3    H247619   3.506   5.740  14.393  1.6225  0.4486 -2.5181
 8710TIP3   OH247620   3.279   2.693   0.101 -0.6359  0.4495 -0.2305
 8710TIP3    H147621   3.349   2.673   0.164 -1.1177  1.3335  0.6238
 8710TIP3    H247622   3.279   2.789   0.095 -1.1122  0.4094 -0.9912
 8711TIP3   OH247623   5.538   5.443   0.926  0.5102  0.4015 -0.5986
 8711TIP3    H147624   5.443   5.444   0.920  0.5702  0.1269 -1.8718
 8711TIP3    H247625   5.564   5.361   0.884  1.1276 -1.7771  3.5913
 8712TIP3   OH247626   2.649   0.553  15.008  0.2476 -0.2586 -0.4724
 8712TIP3    H147627   2.660   0.467  14.968 -2.0433 -1.4103  1.1444
 8712TIP3    H247628   2.675   0.541  15.099 -0.3281  0.6806 -0.1618
 8713TIP3   OH247629   4.631   5.861   0.987 -0.4115 -0.3516 -0.6244
 8713TIP3    H147630   4.560   5.914   0.951 -1.6281 -1.7193 -0.3262
 8713TIP3    H247631   4.653   5.799   0.917  1.2163  0.6817 -1.0902
 8714TIP3   OH247632   3.419   3.897  14.023 -0.0875 -0.1025  0.3758
 8714TIP3    H147633   3.451   3.916  14.111  0.2118 -0.5721  0.3704
 8714TIP3    H247634   3.438   3.805  14.009 -0.7292 -0.1977  0.0656
 8715TIP3   OH247635   2.512   1.733  12.920 -0.1211 -0.1588  0.1299
 8715TIP3    H147636   2.438   1.776  12.879  0.2763  0.8541  0.4374
 8715TIP3    H247637   2.483   1.716  13.010 -0.6224 -1.4480 -0.2456
 8716TIP3   OH247638   2.341   3.642  15.766 -0.3701  0.3173  0.1614
 8716TIP3    H147639   2.398   3.587  15.713  0.9920 -0.2466  2.1210
 8716TIP3    H247640   2.340   3.601  15.852  1.4440  3.7084  2.0420
 8717TIP3   OH247641   4.832   5.333  16.745  0.4491 -0.0873  0.3232
 8717TIP3    H147642   4.769   5.261  16.734  0.6795 -0.0260 -1.8547
 8717TIP3    H247643   4.905   5.309  16.689 -1.0166  3.4652 -3.6573
 8718TIP3   OH247644   2.212   4.592   2.683  0.0162  0.2694 -0.1250
 8718TIP3    H147645   2.245   4.589   2.773  1.4608  0.1190 -0.6187
 8718TIP3    H247646   2.249   4.514   2.642 -0.7325  0.2687 -0.8199
 8719TIP3   OH247647   0.407   0.145  13.281  0.4411 -0.5780 -0.1944
 8719TIP3    H147648   0.323   0.101  13.283  0.5893 -0.8358  1.7090
 8719TIP3    H247649   0.471   0.075  13.291  0.7771 -0.1787  0.5455
 8720TIP3   OH247650   4.603   2.962  13.990  0.6355 -0.0860 -0.2780
 8720TIP3    H147651   4.510   2.946  13.977  0.8542 -1.8523  0.0407
 8720TIP3    H247652   4.615   2.952  14.085  0.8135  2.2922  0.0084
 8721TIP3   OH247653   0.679   5.155   1.331  0.2143 -0.4195 -0.2326
 8721TIP3    H147654   0.766   5.117   1.318  1.1912  2.2353 -2.2655
 8721TIP3    H247655   0.695   5.245   1.359 -1.9312 -0.3295  0.8934
 8722TIP3   OH247656   0.622   2.221   2.869 -0.2385  0.0462 -0.0826
 8722TIP3    H147657   0.651   2.301   2.913 -1.5332  0.3502  0.2654
 8722TIP3    H247658   0.557   2.251   2.805 -1.8650 -0.8346  1.0831
 8723TIP3   OH247659   1.124   0.314  12.296 -0.0049  0.3206  0.4709
 8723TIP3    H147660   1.204   0.264  12.280  0.4262  1.3860 -0.9822
 8723TIP3    H247661   1.102   0.297  12.387 -0.2244 -2.9577 -0.0731
 8724TIP3   OH247662   5.152   1.098  10.678  0.8747 -0.0343  0.2854
 8724TIP3    H147663   5.137   1.138  10.593  1.8497 -1.2035 -0.4692
 8724TIP3    H247664   5.070   1.112  10.726 -0.2589 -0.6750 -1.3889
 8725TIP3   OH247665   0.786   3.556   5.160  0.1661  0.2494  0.3821
 8725TIP3    H147666   0.881   3.550   5.144  0.2185 -1.5675  1.1565
 8725TIP3    H247667   0.772   3.648   5.180  2.0273  0.3185  1.6835
 8726TIP3   OH247668   3.353   1.487  12.996  0.5521 -0.1245  0.0135
 8726TIP3    H147669   3.386   1.575  12.979 -0.0100  0.2221  0.6452
 8726TIP3    H247670   3.396   1.461  13.078 -0.3236  0.1226  0.5613
 8727TIP3   OH247671   2.344   1.105   0.416  0.7355  0.4624 -0.4905
 8727TIP3    H147672   2.344   1.026   0.361 -0.5530  1.9527 -2.8134
 8727TIP3    H247673   2.428   1.147   0.396  1.1679  0.0076  0.3081
 8728TIP3   OH247674   4.068   0.202   5.008 -0.0519 -0.2926  0.2130
 8728TIP3    H147675   4.112   0.202   5.093  0.1906  1.5453  0.1285
 8728TIP3    H247676   4.015   0.122   5.008  1.8327 -1.6060  1.0719
 8729TIP3   OH247677   3.357   4.768   3.717 -0.4438  0.4274  0.7535
 8729TIP3    H147678   3.357   4.779   3.622 -1.6728 -1.8811  0.4090
 8729TIP3    H247679   3.429   4.707   3.733 -1.3901 -0.6311  1.0586
 8730TIP3   OH247680   0.184   1.894  15.209 -0.2078 -0.0048 -0.0589
 8730TIP3    H147681   0.240   1.817  15.216  0.8383  0.7911  0.7317
 8730TIP3    H247682   0.100   1.866  15.246  0.0144 -0.8911 -0.1990
 8731TIP3   OH247683   6.754   5.980  13.722  0.0962 -0.2551  0.0102
 8731TIP3    H147684   6.693   6.048  13.695  0.8051  0.3609 -0.0594
 8731TIP3    H247685   6.796   6.015  13.801 -0.4795 -1.1720  0.7558
 8732TIP3   OH247686   1.995   0.312  16.583  0.0446 -0.3025  0.0174
 8732TIP3    H147687   1.922   0.263  16.545  1.1946 -0.7448 -1.7534
 8732TIP3    H247688   1.960   0.399  16.600 -0.7381 -0.3161 -1.4102
 8733TIP3   OH247689   4.816   2.539  13.994 -0.3200 -0.7604  0.7601
 8733TIP3    H147690   4.908   2.514  14.007 -0.4698 -1.3853  0.6430
 8733TIP3    H247691   4.820   2.630  13.967  0.3686 -1.2290 -0.8290
 8734TIP3   OH247692   1.382   0.138   2.882 -0.4709  0.2493  0.5762
 8734TIP3    H147693   1.418   0.085   2.953 -1.2658  0.4935  1.1708
 8734TIP3    H247694   1.384   0.080   2.806  0.4157 -0.0046  0.7810
 8735TIP3   OH247695   2.986   2.040  14.682  0.0456  0.3151 -0.3829
 8735TIP3    H147696   3.061   2.099  14.690  0.2974 -0.0531 -0.0247
 8735TIP3    H247697   2.978   2.000  14.769 -0.6602  0.4667 -0.3708
 8736TIP3   OH247698   1.087   3.078   3.814  0.1824 -0.3086 -0.6297
 8736TIP3    H147699   1.075   3.028   3.734  3.3170  0.1277 -1.5326
 8736TIP3    H247700   1.169   3.044   3.851  0.0018  1.0627  1.1736
 8737TIP3   OH247701   1.529   1.613  12.858 -0.1638 -0.1906  0.7983
 8737TIP3    H147702   1.554   1.579  12.771 -0.1315 -0.9468  1.0926
 8737TIP3    H247703   1.510   1.534  12.909  2.1215  0.0648  2.1971
 8738TIP3   OH247704   2.281   4.172   4.030  0.3881 -0.0549  0.0949
 8738TIP3    H147705   2.244   4.246   4.079  0.5342  0.0557  0.0403
 8738TIP3    H247706   2.326   4.119   4.096  0.1079 -0.2058  0.1660
 8739TIP3   OH247707   5.706   6.766   0.820  0.0758  0.3606  0.4262
 8739TIP3    H147708   5.698   6.759   0.725  0.7742 -0.6922  0.4245
 8739TIP3    H247709   5.801   6.760   0.836 -0.0847 -0.1483  1.2247
 8740TIP3   OH247710   5.682   5.363   0.162  0.2209  0.2718  0.0778
 8740TIP3    H147711   5.778   5.369   0.159  0.2829 -0.2841  0.7997
 8740TIP3    H247712   5.655   5.442   0.209  0.1834  1.4284 -1.8035
 8741TIP3   OH247713   4.274   1.922   3.369 -0.0724 -0.2809 -0.0322
 8741TIP3    H147714   4.262   1.892   3.279 -2.3629 -0.8157  0.3860
 8741TIP3    H247715   4.283   1.842   3.420 -0.2767 -0.0364  0.3912
 8742TIP3   OH247716   3.746   2.369  10.283 -0.5030 -0.4336 -0.2620
 8742TIP3    H147717   3.663   2.416  10.275 -0.8847 -1.0406  0.0984
 8742TIP3    H247718   3.723   2.285  10.321  0.4732  0.0607  1.5819
 8743TIP3   OH247719   3.030   3.729  13.234 -0.6466  0.4435 -1.0283
 8743TIP3    H147720   3.002   3.675  13.308  3.1911  1.1240  1.2571
 8743TIP3    H247721   3.052   3.667  13.165  1.3340 -0.8968  0.6637
 8744TIP3   OH247722   6.296   1.923   5.856 -0.2745  0.1218  0.4561
 8744TIP3    H147723   6.225   1.859   5.855  0.5549 -0.8272  0.1477
 8744TIP3    H247724   6.290   1.965   5.942 -1.5903  0.5237  0.1901
 8745TIP3   OH247725   3.457   2.042   1.274 -0.0397 -0.0637  0.0474
 8745TIP3    H147726   3.384   2.104   1.272  0.6435  0.7524 -1.4974
 8745TIP3    H247727   3.534   2.095   1.296  0.2705 -0.7066  0.5645
 8746TIP3   OH247728   3.540   3.309   5.244 -0.2058  0.2904 -0.0497
 8746TIP3    H147729   3.595   3.355   5.181  0.2858  0.5395  0.5431
 8746TIP3    H247730   3.601   3.280   5.312 -0.8600  0.9661  0.8583
 8747TIP3   OH247731   0.857   4.188   6.818 -0.1763 -0.0028  0.2597
 8747TIP3    H147732   0.837   4.136   6.740  1.4111 -0.8726  0.3791
 8747TIP3    H247733   0.840   4.279   6.793  1.9145 -0.0795 -1.7127
 8748TIP3   OH247734   5.158   6.009   3.522 -0.2574 -0.0371 -0.0933
 8748TIP3    H147735   5.124   5.920   3.517 -1.3129  0.4092 -1.2130
 8748TIP3    H247736   5.233   6.010   3.463  0.4691 -0.4652  0.7931
 8749TIP3   OH247737   5.821   4.253   0.009 -0.1717 -0.2004  0.2860
 8749TIP3    H147738   5.778   4.319  -0.045 -0.0108 -1.7695 -1.8605
 8749TIP3    H247739   5.914   4.262  -0.013 -0.2403 -1.6986 -0.7142
 8750TIP3   OH247740   0.638   5.008  13.654 -0.3226  0.5691  0.2969
 8750TIP3    H147741   0.593   4.954  13.719 -2.4990  1.7923 -0.0953
 8750TIP3    H247742   0.615   4.968  13.570 -0.2064  0.8949  0.1104
 8751TIP3   OH247743   3.522   1.711  12.869  0.6477 -0.1271  0.1552
 8751TIP3    H147744   3.581   1.725  12.795  0.2447 -1.0806 -0.3650
 8751TIP3    H247745   3.451   1.773  12.856  0.2165 -0.7849 -0.6541
 8752TIP3   OH247746   6.186   5.684  12.462  0.2013 -0.2167  0.0065
 8752TIP3    H147747   6.269   5.668  12.417  0.1973 -1.1146  0.2964
 8752TIP3    H247748   6.167   5.776  12.446  0.5127 -0.3671 -1.3035
 8753TIP3   OH247749   0.258   3.690  11.285 -0.1979  0.3866  0.6215
 8753TIP3    H147750   0.190   3.631  11.318 -0.6554  0.9171  0.6353
 8753TIP3    H247751   0.331   3.679  11.346 -0.5228  0.3219  0.9989
 8754TIP3   OH247752   0.704   6.575  13.639  0.0529  0.2558  0.0548
 8754TIP3    H147753   0.635   6.512  13.620  1.0427 -1.0992  0.7799
 8754TIP3    H247754   0.746   6.542  13.719  1.5045  1.0495 -0.3417
 8755TIP3   OH247755   3.559   5.743  11.391 -0.5593 -0.2289  0.3963
 8755TIP3    H147756   3.639   5.748  11.442 -0.4476  0.2364  0.1788
 8755TIP3    H247757   3.528   5.834  11.385 -1.0706 -0.3946  0.4325
 8756TIP3   OH247758   2.688   6.429  15.418 -0.6043  0.0055  0.5142
 8756TIP3    H147759   2.763   6.488  15.410 -2.4910  2.6624  1.1919
 8756TIP3    H247760   2.679   6.415  15.513  0.4761 -2.3872  0.3255
 8757TIP3   OH247761   4.709   6.132   1.572  0.1733 -0.5813  0.2547
 8757TIP3    H147762   4.799   6.160   1.589 -0.7099  0.7958  3.2034
 8757TIP3    H247763   4.705   6.043   1.606  0.8633 -1.4263 -1.7213
 8758TIP3   OH247764   6.103   0.732   2.041  0.1896  0.1044 -0.4069
 8758TIP3    H147765   6.188   0.736   1.998 -0.4413  0.0730 -1.7046
 8758TIP3    H247766   6.042   0.767   1.977 -0.9106 -0.7490  0.1373
 8759TIP3   OH247767   2.111   4.246  13.271  0.2762  0.5091  0.8465
 8759TIP3    H147768   2.141   4.252  13.362  0.6535  0.3397  0.7351
 8759TIP3    H247769   2.023   4.210  13.277  0.4498  0.1278  1.1249
 8760TIP3   OH247770   4.975   2.119  13.674 -0.1441  0.1534  0.3579
 8760TIP3    H147771   5.059   2.134  13.717  0.8883  1.7738 -1.9857
 8760TIP3    H247772   4.921   2.194  13.697  0.1680  0.6701 -0.5310
 8761TIP3   OH247773   5.098   2.877   1.065 -0.2054 -0.1816 -0.3534
 8761TIP3    H147774   5.121   2.794   1.107 -1.1278 -0.2826 -0.0199
 8761TIP3    H247775   5.176   2.932   1.076  0.5725 -1.1279 -0.9410
 8762TIP3   OH247776   4.015   0.660  16.818  0.2419  0.5350 -0.4898
 8762TIP3    H147777   4.108   0.660  16.841  0.7362 -0.5962 -2.2906
 8762TIP3    H247778   3.970   0.683  16.899  2.1231  2.0525  0.2029
 8763TIP3   OH247779   2.104   2.087   4.207  0.2245 -0.2735 -0.0573
 8763TIP3    H147780   2.113   2.057   4.116 -0.2861 -2.2242  0.4909
 8763TIP3    H247781   2.058   2.015   4.251 -4.0173  2.5263  0.6984
 8764TIP3   OH247782   5.456   2.299   5.442  0.0839 -0.2994 -0.4058
 8764TIP3    H147783   5.476   2.208   5.424  0.8581 -0.1807 -0.1689
 8764TIP3    H247784   5.370   2.297   5.485  1.0558 -1.1247  1.6160
 8765TIP3   OH247785   3.125   4.975   0.050 -0.6799 -0.1773  0.5502
 8765TIP3    H147786   3.219   4.979   0.035 -0.8800 -0.9805 -1.1321
 8765TIP3    H247787   3.116   4.920   0.128  0.2295 -0.4727  0.4605
 8766TIP3   OH247788   4.572   5.957   0.365  0.6223 -0.7298 -0.2543
 8766TIP3    H147789   4.626   5.917   0.433  0.0910  1.7237  1.7755
 8766TIP3    H247790   4.507   5.890   0.343  0.5698 -1.5129  1.9781
 8767TIP3   OH247791   3.522   6.519   5.275 -0.3973 -0.2283 -0.6914
 8767TIP3    H147792   3.537   6.459   5.202 -1.0970 -0.1222 -0.9327
 8767TIP3    H247793   3.534   6.607   5.237  0.3688 -0.2073 -0.4032
 8768TIP3   OH247794   0.439   2.044  12.805 -0.5252 -0.2381  0.4043
 8768TIP3    H147795   0.462   1.983  12.735  1.4157 -0.4442  1.1537
 8768TIP3    H247796   0.386   2.111  12.762  1.0957 -0.0365 -1.4251
 8769TIP3   OH247797   4.887   2.991   4.436  0.2679  0.3770 -0.2832
 8769TIP3    H147798   4.920   2.989   4.347  1.2844 -0.8202  0.0968
 8769TIP3    H247799   4.962   2.967   4.491 -0.2168  1.5039  0.9439
 8770TIP3   OH247800   3.795   6.242   4.305  0.5703  0.3455 -0.4047
 8770TIP3    H147801   3.823   6.255   4.395 -0.0291 -1.0630  0.0151
 8770TIP3    H247802   3.792   6.147   4.294 -0.5655  0.4736 -1.5088
 8771TIP3   OH247803   3.690   4.142  16.366  0.6876 -0.2405 -0.2589
 8771TIP3    H147804   3.683   4.121  16.273  0.7604 -0.2315 -0.2655
 8771TIP3    H247805   3.602   4.171  16.390  1.0115  1.1662 -0.6656
 8772TIP3   OH247806   4.049   3.770   1.522  0.1580 -0.8779  0.3241
 8772TIP3    H147807   4.131   3.753   1.569  0.3824  1.9362  1.1021
 8772TIP3    H247808   4.018   3.853   1.558 -0.8070  0.3478 -3.0109
 8773TIP3   OH247809   2.057   4.945  12.186  0.2664  0.0213 -0.2638
 8773TIP3    H147810   2.065   4.987  12.272  0.3620  2.3920 -1.3822
 8773TIP3    H247811   1.964   4.948  12.166  0.2139 -0.7385 -0.1688
 8774TIP3   OH247812   2.208   1.443  11.166 -0.3152  0.3962 -0.1513
 8774TIP3    H147813   2.290   1.434  11.117 -0.2909  0.8902 -0.2044
 8774TIP3    H247814   2.140   1.432  11.101 -0.2872  0.5145 -0.2008
 8775TIP3   OH247815   3.773   5.937  11.577 -0.4270 -0.4569  0.1382
 8775TIP3    H147816   3.779   5.878  11.652  2.4095 -1.1719 -0.5137
 8775TIP3    H247817   3.808   5.885  11.504 -0.5670  1.0998 -1.0851
 8776TIP3   OH247818   2.857   4.434  12.193 -0.1244 -0.3093 -0.2703
 8776TIP3    H147819   2.931   4.455  12.250  0.0579 -0.8250 -0.3122
 8776TIP3    H247820   2.891   4.446  12.104  0.2698 -1.6725 -0.3211
 8777TIP3   OH247821   4.402   5.689  14.438  0.1351  0.3169 -0.5575
 8777TIP3    H147822   4.412   5.779  14.407  0.3628 -0.0628 -1.6379
 8777TIP3    H247823   4.347   5.696  14.516  0.7715  1.4604 -0.1984
 8778TIP3   OH247824   3.392   0.476  13.491 -0.1210  0.1098 -0.5169
 8778TIP3    H147825   3.335   0.545  13.458 -5.2411 -2.2436  2.1633
 8778TIP3    H247826   3.407   0.499  13.582  1.7410 -0.3447 -0.6714
 8779TIP3   OH247827   1.063   3.577  11.839 -0.1009 -0.0093 -0.1124
 8779TIP3    H147828   1.101   3.646  11.785 -0.3356 -0.4118 -0.8013
 8779TIP3    H247829   1.017   3.520  11.777  1.0512 -1.4456  0.2958
 8780TIP3   OH247830   3.908   4.683   2.771  0.0952 -0.2330  0.1104
 8780TIP3    H147831   3.972   4.656   2.836  1.2672 -0.6734 -1.1825
 8780TIP3    H247832   3.823   4.672   2.815  0.8858  1.0568  2.0904
 8781TIP3   OH247833   3.609   3.589   1.609 -0.3168  0.2130  0.0937
 8781TIP3    H147834   3.690   3.617   1.653  0.1965 -0.4244 -0.4366
 8781TIP3    H247835   3.638   3.527   1.542 -1.2688 -0.1849  0.0388
 8782TIP3   OH247836   3.230   5.228   3.561  0.0669  0.5045  0.2507
 8782TIP3    H147837   3.323   5.230   3.537  0.1643 -1.9540  0.0894
 8782TIP3    H247838   3.229   5.247   3.655  0.5163  2.2933 -0.0736
 8783TIP3   OH247839   6.024   4.484   2.179  0.4262  0.2407  0.4067
 8783TIP3    H147840   5.956   4.537   2.137  0.5843  0.7482  0.7686
 8783TIP3    H247841   5.999   4.394   2.162  0.3686  0.4357 -0.5765
 8784TIP3   OH247842   1.359   3.759   1.924  0.2096  0.2794  0.4810
 8784TIP3    H147843   1.303   3.697   1.877 -0.4288 -0.1321  1.7228
 8784TIP3    H247844   1.321   3.845   1.903  1.1470  0.2991 -1.3090
 8785TIP3   OH247845   5.602   2.334   0.126  0.8674  0.7777 -0.2190
 8785TIP3    H147846   5.510   2.352   0.143  0.3360  0.5411 -2.4745
 8785TIP3    H247847   5.646   2.419   0.131  0.5290  0.8996  0.7954
 8786TIP3   OH247848   2.096   6.508   0.263  0.3505 -0.1305 -0.2960
 8786TIP3    H147849   2.166   6.458   0.221 -0.2961 -1.3700  0.0311
 8786TIP3    H247850   2.035   6.528   0.192  1.4392  1.7493 -0.7558
 8787TIP3   OH247851   1.488   5.956  12.512 -0.3431  0.1968  0.4187
 8787TIP3    H147852   1.554   5.897  12.548 -0.0473 -0.2441 -0.8105
 8787TIP3    H247853   1.512   5.966  12.421 -0.4352  2.1855  0.5808
 8788TIP3   OH247854   6.632   5.486  14.826 -0.0599 -0.0649 -0.3467
 8788TIP3    H147855   6.602   5.443  14.745 -1.0431  0.6037 -0.3582
 8788TIP3    H247856   6.716   5.525  14.802 -0.8424  1.0631 -1.3984
 8789TIP3   OH247857   3.991   5.686  10.794  0.2185  0.4847 -0.2731
 8789TIP3    H147858   4.027   5.604  10.759  0.7861  1.2435 -1.5512
 8789TIP3    H247859   3.900   5.665  10.816  1.1207 -1.2488  2.2354
 8790TIP3   OH247860   4.764   5.682  15.488 -0.1653 -0.2826 -0.0859
 8790TIP3    H147861   4.834   5.747  15.495  0.6869 -1.2784  1.0587
 8790TIP3    H247862   4.801   5.613  15.433  0.5253 -1.6915  2.0199
 8791TIP3   OH247863   6.760   3.955  11.995 -0.0838 -0.4350  0.3737
 8791TIP3    H147864   6.685   3.992  11.949  0.1455 -0.5706 -0.1130
 8791TIP3    H247865   6.745   3.860  11.992  0.4335 -0.5012 -0.2999
 8792TIP3   OH247866   0.100   5.070  12.196  0.3250  0.0560  0.7314
 8792TIP3    H147867   0.177   5.120  12.170  2.0688 -2.4853  0.6530
 8792TIP3    H247868   0.126   5.024  12.275 -0.7853 -1.5494  0.2169
 8793TIP3   OH247869   1.008   3.149  11.675 -0.0231 -0.1212  0.0798
 8793TIP3    H147870   1.090   3.180  11.713  0.1317 -1.1512  0.6239
 8793TIP3    H247871   1.010   3.180  11.585  0.3399  1.0005  0.4483
 8794TIP3   OH247872   5.470   3.244  16.871 -0.2820 -0.0766 -0.6597
 8794TIP3    H147873   5.501   3.264  16.960  1.2905  0.4381 -1.3003
 8794TIP3    H247874   5.381   3.211  16.884 -0.8548  1.9092  0.9462
 8795TIP3   OH247875   1.346   5.307   6.148  0.4762  0.1615  0.2221
 8795TIP3    H147876   1.383   5.222   6.172 -0.0133 -0.1632 -0.1653
 8795TIP3    H247877   1.304   5.338   6.228  0.2980 -0.1480  0.2487
 8796TIP3   OH247878   1.005   5.133  12.556  0.2831 -0.1836 -0.1927
 8796TIP3    H147879   0.970   5.061  12.609 -2.1223  0.3616 -0.9185
 8796TIP3    H247880   0.968   5.118  12.469  0.8011  1.2322 -0.6780
 8797TIP3   OH247881   5.267   0.062  10.379  0.0067 -0.2696  0.2919
 8797TIP3    H147882   5.354   0.094  10.354 -0.4687  0.2063 -0.8183
 8797TIP3    H247883   5.272   0.051  10.474  0.6359  1.8333  0.5583
 8798TIP3   OH247884   0.440   3.414  15.972  0.4340  0.0196  0.0532
 8798TIP3    H147885   0.442   3.346  15.905  0.2281 -1.5887  1.6114
 8798TIP3    H247886   0.362   3.395  16.024 -0.7249  2.6020 -0.5428
 8799TIP3   OH247887   1.818   5.197   2.340 -0.6424 -0.6446  0.4907
 8799TIP3    H147888   1.890   5.141   2.368 -0.5748 -0.9388 -0.2461
 8799TIP3    H247889   1.762   5.205   2.417 -0.7200 -1.8241  0.5771
 8800TIP3   OH247890   1.977   1.088  14.381 -0.5211 -0.5914  0.3034
 8800TIP3    H147891   2.072   1.100  14.375 -0.6769 -0.0207 -1.9728
 8800TIP3    H247892   1.942   1.177  14.385 -1.0087 -0.7577 -0.1164
 8801TIP3   OH247893   4.411   6.444  12.890 -0.6079 -0.0348  0.2019
 8801TIP3    H147894   4.320   6.457  12.865 -0.1801  1.1041 -0.9319
 8801TIP3    H247895   4.459   6.448  12.807  0.4771 -0.5099  0.7862
 8802TIP3   OH247896   4.444   5.168  15.929 -0.0271  0.4205 -0.3322
 8802TIP3    H147897   4.411   5.137  16.013  0.4547 -0.1289 -0.3453
 8802TIP3    H247898   4.539   5.156  15.934  0.0316  0.6520 -0.8481
 8803TIP3   OH247899   1.136   2.025  15.667  0.8990 -0.1449 -0.1033
 8803TIP3    H147900   1.180   1.979  15.738 -0.6888  0.0448  1.0582
 8803TIP3    H247901   1.058   1.973  15.649 -0.7679  1.8217  1.0114
 8804TIP3   OH247902   6.640   6.480  14.781 -0.3010 -0.0099  0.6135
 8804TIP3    H147903   6.656   6.386  14.786 -1.0414 -0.0732  3.8884
 8804TIP3    H247904   6.544   6.487  14.773 -0.3194  0.4657  1.2173
 8805TIP3   OH247905   5.048   3.820   2.992  0.3608 -0.2860  0.1509
 8805TIP3    H147906   5.103   3.802   3.068 -0.6642  0.5601  1.1358
 8805TIP3    H247907   5.094   3.889   2.945 -0.8384  2.0452  2.1780
 8806TIP3   OH247908   3.120   6.319   2.805  0.1418 -0.1157 -0.0646
 8806TIP3    H147909   3.034   6.278   2.819 -0.6002  0.7174 -1.9406
 8806TIP3    H247910   3.180   6.245   2.797 -0.6235 -0.7459 -0.1104
 8807TIP3   OH247911   5.905   0.609  13.961 -0.2132 -0.0547 -0.3045
 8807TIP3    H147912   5.887   0.538  13.900 -1.4670 -1.8635  2.0037
 8807TIP3    H247913   5.986   0.583  14.005 -1.0550 -0.4888  1.0543
 8808TIP3   OH247914   2.199   6.329  14.920 -0.0270 -0.0952 -0.3299
 8808TIP3    H147915   2.250   6.253  14.892  0.8046  0.2995  0.0755
 8808TIP3    H247916   2.222   6.398  14.858 -0.9234 -0.2151 -0.8103
 8809TIP3   OH247917   3.226   0.003   1.766  0.6841 -0.0217 -0.3945
 8809TIP3    H147918   3.222   0.036   1.676  1.4440  1.2105 -0.0164
 8809TIP3    H247919   3.183  -0.082   1.763 -0.6974  0.6773 -1.6042
 8810TIP3   OH247920   3.584   0.647  14.294 -0.4480  0.0852 -0.4208
 8810TIP3    H147921   3.488   0.650  14.293 -0.4338  0.7780 -0.2809
 8810TIP3    H247922   3.610   0.732  14.259  0.1215 -0.8182 -2.3865
 8811TIP3   OH247923   5.329   2.569   1.419  0.3276  0.0910 -0.1807
 8811TIP3    H147924   5.346   2.478   1.446 -1.7998 -0.1834  0.3707
 8811TIP3    H247925   5.345   2.621   1.498  3.1250  0.4906 -0.8831
 8812TIP3   OH247926   5.574   0.979  14.333 -0.5660 -0.8713 -0.7520
 8812TIP3    H147927   5.576   0.977  14.238  1.0324 -1.8274 -0.7207
 8812TIP3    H247928   5.481   0.977  14.355 -0.9593 -0.4288 -2.2758
 8813TIP3   OH247929   5.882   6.297   6.113 -0.1806 -0.0313 -0.9053
 8813TIP3    H147930   5.945   6.266   6.178 -0.7630  0.4991 -0.0761
 8813TIP3    H247931   5.865   6.220   6.059 -1.1821 -1.0505  0.7873
 8814TIP3   OH247932   3.383   4.724  10.840 -0.2651 -0.0895 -0.3414
 8814TIP3    H147933   3.311   4.669  10.870 -0.3016 -1.4337 -2.6501
 8814TIP3    H247934   3.350   4.767  10.761  1.5954 -1.3159 -1.9048
 8815TIP3   OH247935   0.386   2.767  16.171 -0.4174  0.6289  0.1157
 8815TIP3    H147936   0.458   2.756  16.110 -1.2231  0.0662 -0.7555
 8815TIP3    H247937   0.317   2.810  16.121 -0.8365  0.8001  0.8192
 8816TIP3   OH247938   2.209   5.704  15.583  0.1104  0.5781 -0.1037
 8816TIP3    H147939   2.285   5.761  15.580 -0.4814  1.3266 -2.3153
 8816TIP3    H247940   2.159   5.735  15.659  0.5699  1.9619 -0.3530
 8817TIP3   OH247941   6.827   0.175  13.310 -0.1529 -0.3330  0.2932
 8817TIP3    H147942   6.741   0.201  13.344 -0.2302 -0.6284  0.3292
 8817TIP3    H247943   6.809   0.148  13.219  0.1268  0.8835 -0.1441
 8818TIP3   OH247944   5.150   5.252   5.297 -0.2347 -0.6929 -0.2311
 8818TIP3    H147945   5.072   5.259   5.352 -0.1087 -0.3066 -0.1036
 8818TIP3    H247946   5.126   5.187   5.230 -0.3932 -1.1502  0.2636
 8819TIP3   OH247947   1.957   6.522  16.583 -0.8120 -0.0500  0.4300
 8819TIP3    H147948   2.052   6.513  16.588 -0.7070  1.3487  1.5065
 8819TIP3    H247949   1.923   6.446  16.631 -0.2831 -0.9275 -0.5414
 8820TIP3   OH247950   1.274   5.207   4.867  0.2987 -0.3282 -0.3551
 8820TIP3    H147951   1.235   5.123   4.841 -0.5109 -0.1075  0.1058
 8820TIP3    H247952   1.211   5.244   4.929  0.5696  0.6951 -0.6801
 8821TIP3   OH247953   1.969   0.138   3.650 -0.0853  0.2714  0.3245
 8821TIP3    H147954   2.010   0.055   3.674 -0.8532 -0.3071 -0.3293
 8821TIP3    H247955   1.994   0.152   3.559  1.2481  1.5089  0.8402
 8822TIP3   OH247956   5.237   1.450   3.203 -0.6385  0.0721  0.1701
 8822TIP3    H147957   5.300   1.519   3.182  1.5486 -0.8478  2.9624
 8822TIP3    H247958   5.152   1.494   3.206  0.6848  2.8130  2.1657
 8823TIP3   OH247959   2.132   1.426  17.119  0.0915 -0.3914 -0.0703
 8823TIP3    H147960   2.122   1.491  17.188  0.1140 -1.1230  0.6419
 8823TIP3    H247961   2.195   1.363  17.154 -1.1953 -1.7139 -0.0154
 8824TIP3   OH247962   5.064   2.126  17.022 -0.1630  0.1182 -0.4355
 8824TIP3    H147963   5.072   2.146  17.115  1.3476 -0.6058 -0.3923
 8824TIP3    H247964   5.129   2.182  16.979 -1.4789  1.1380 -1.1869
 8825TIP3   OH247965   6.497   1.044  12.251  0.3859  0.2420 -0.0817
 8825TIP3    H147966   6.440   1.100  12.304 -1.2058  0.2805 -1.7539
 8825TIP3    H247967   6.533   0.981  12.314  2.2816  3.0340  1.8750
 8826TIP3   OH247968   2.606   1.441  14.946  0.6918  0.4863 -0.8836
 8826TIP3    H147969   2.516   1.472  14.936  0.8027  1.1105 -0.0264
 8826TIP3    H247970   2.652   1.474  14.869  0.0834 -0.2745 -1.5946
 8827TIP3   OH247971   2.327   6.566  14.316 -0.1084 -0.4234  0.2184
 8827TIP3    H147972   2.298   6.656  14.302  1.0550  0.5404  3.2685
 8827TIP3    H247973   2.384   6.547  14.242 -0.1843  1.4593 -0.3675
 8828TIP3   OH247974   6.231   3.958   3.640 -0.5326  0.0879  0.2929
 8828TIP3    H147975   6.305   3.906   3.673  0.6453  0.2479 -1.8618
 8828TIP3    H247976   6.271   4.040   3.611 -1.5866  0.2693 -0.7007
 8829TIP3   OH247977   4.166   3.240  14.534 -0.1724 -0.4425  0.1698
 8829TIP3    H147978   4.221   3.200  14.467 -0.0308  0.7759 -0.4807
 8829TIP3    H247979   4.152   3.330  14.503  0.8831  0.5461  2.3566
 8830TIP3   OH247980   5.326   6.014  11.982 -0.7642  0.0226  0.4460
 8830TIP3    H147981   5.260   6.070  11.941 -0.4532  1.2245  1.5341
 8830TIP3    H247982   5.357   5.958  11.911 -3.6345 -1.2974  0.1089
 8831TIP3   OH247983   3.309   6.607  16.636  0.1610  0.1625  0.2373
 8831TIP3    H147984   3.320   6.533  16.694  0.2317  2.0631  2.8146
 8831TIP3    H247985   3.393   6.613  16.590 -0.2589 -1.9822 -0.9335
 8832TIP3   OH247986   1.775   3.553   3.839  0.0026  0.8609  0.6100
 8832TIP3    H147987   1.830   3.482   3.806  2.8493  2.3612  1.7483
 8832TIP3    H247988   1.693   3.545   3.790  1.0522 -1.7643 -0.9227
 8833TIP3   OH247989   3.522   1.306  13.674 -0.4598  0.2284  1.2491
 8833TIP3    H147990   3.599   1.264  13.636 -1.5213 -1.3535  0.7177
 8833TIP3    H247991   3.496   1.248  13.746 -1.3057  0.5743  1.2371
 8834TIP3   OH247992   3.322   6.706   6.254  0.0391 -0.5711 -0.0153
 8834TIP3    H147993   3.307   6.778   6.193 -1.1880 -0.8028 -0.0170
 8834TIP3    H247994   3.400   6.731   6.302 -0.6742  1.0455  0.3711
 8835TIP3   OH247995   2.833   5.680  12.089  0.1387  0.0662  0.0055
 8835TIP3    H147996   2.841   5.600  12.037  1.3974  0.8561 -1.1042
 8835TIP3    H247997   2.876   5.659  12.172  0.7002 -0.3261 -0.3788
 8836TIP3   OH247998   2.438   0.285  11.158 -0.1606 -0.0523  0.4866
 8836TIP3    H147999   2.513   0.258  11.104 -0.0182  1.2369 -0.0092
 8836TIP3    H248000   2.390   0.346  11.102  0.1680  1.5743  1.9114
 8837TIP3   OH248001   2.108   0.151  14.857 -0.9079  0.0700 -0.1073
 8837TIP3    H148002   2.078   0.130  14.769 -0.4374 -0.2242 -0.1998
 8837TIP3    H248003   2.112   0.247  14.859 -0.9209  0.0766 -0.4055
 8838TIP3   OH248004   0.465   2.715  14.485 -0.4284 -0.0275  0.1436
 8838TIP3    H148005   0.389   2.681  14.439 -1.7629  2.4148  0.3338
 8838TIP3    H248006   0.463   2.673  14.571 -1.3778 -0.2160  0.0340
 8839TIP3   OH248007   4.813   1.729   2.794  0.2034  0.0512 -0.4634
 8839TIP3    H148008   4.878   1.722   2.865 -0.1897 -1.7623 -0.2299
 8839TIP3    H248009   4.840   1.662   2.731  0.4368  1.5127 -1.9820
 8840TIP3   OH248010   4.009   1.633   3.796 -0.1480  0.4133  0.1113
 8840TIP3    H148011   4.027   1.543   3.768 -0.2646  0.4486 -0.0773
 8840TIP3    H248012   4.095   1.673   3.806 -0.0678  0.0924  0.8198
 8841TIP3   OH248013   3.483   3.119   4.479 -0.0074  0.1614  0.4022
 8841TIP3    H148014   3.500   3.157   4.565 -0.8759 -1.0344  1.1490
 8841TIP3    H248015   3.390   3.096   4.482 -0.0613  0.1684 -0.8866
 8842TIP3   OH248016   4.801   4.012   0.077  0.0146  0.3135 -0.3368
 8842TIP3    H148017   4.771   3.921   0.072  0.5455  0.1752 -1.1284
 8842TIP3    H248018   4.721   4.064   0.072 -0.1973 -0.0839 -1.1055
 8843TIP3   OH248019   5.258   6.820  13.341 -0.6635  0.0828 -0.1117
 8843TIP3    H148020   5.291   6.858  13.423  0.5854  1.8428 -1.3554
 8843TIP3    H248021   5.303   6.869  13.272  0.2403 -3.0140 -1.9025
 8844TIP3   OH248022   1.760   1.302  16.435 -0.1280  0.5250  0.2122
 8844TIP3    H148023   1.801   1.221  16.466 -0.7468  1.0500  2.6512
 8844TIP3    H248024   1.758   1.293  16.340  1.7954 -1.3418  0.2598
 8845TIP3   OH248025   4.025   6.240   5.558 -0.1937 -0.0619 -0.0265
 8845TIP3    H148026   3.959   6.291   5.605 -0.2131  2.2564 -2.3604
 8845TIP3    H248027   3.989   6.152   5.553 -0.8427 -0.0578  2.9072
 8846TIP3   OH248028   1.436   0.762   4.030 -0.4424  0.1598  0.0102
 8846TIP3    H148029   1.458   0.670   4.045  0.8355  0.2096 -1.3859
 8846TIP3    H248030   1.501   0.810   4.082  1.3520  0.2679 -2.1603
 8847TIP3   OH248031   5.818   1.192   4.571  0.3773  0.8334 -0.3029
 8847TIP3    H148032   5.814   1.142   4.653  1.3103  1.2777  0.0261
 8847TIP3    H248033   5.726   1.208   4.548  0.0701 -0.3909 -0.0361
 8848TIP3   OH248034   1.280   6.421  10.804 -0.1533 -0.1967  0.7455
 8848TIP3    H148035   1.197   6.374  10.792 -0.1797  0.1593 -0.7813
 8848TIP3    H248036   1.276   6.491  10.739  2.1224 -1.2747 -0.6810
 8849TIP3   OH248037   5.313   3.622  16.364 -0.4464 -0.5921  0.4293
 8849TIP3    H148038   5.271   3.688  16.421 -1.0528 -0.6668  0.0802
 8849TIP3    H248039   5.399   3.608  16.403  0.5263  1.9097 -0.6140
 8850TIP3   OH248040   5.791   2.542   0.897  0.6314 -0.4166  0.0427
 8850TIP3    H148041   5.793   2.623   0.846  0.8447  0.2060  1.0233
 8850TIP3    H248042   5.881   2.530   0.927  0.2788 -0.1200  1.2655
 8851TIP3   OH248043   4.186   6.734   1.754  0.4159 -0.5071  0.4153
 8851TIP3    H148044   4.128   6.765   1.685  0.7914 -1.0615 -0.1575
 8851TIP3    H248045   4.155   6.778   1.833 -1.1003 -1.1715  0.2223
 8852TIP3   OH248046   4.306   1.782  13.125  0.8124  0.2049 -0.1252
 8852TIP3    H148047   4.216   1.785  13.094 -0.0890  0.6116  2.3428
 8852TIP3    H248048   4.343   1.867  13.100 -0.2570  1.0103  0.9542
 8853TIP3   OH248049   5.022   3.748   1.268  0.4173 -0.2364  0.5424
 8853TIP3    H148050   4.943   3.726   1.219  0.1850  1.4896  0.0686
 8853TIP3    H248051   5.091   3.754   1.201  0.4192  0.6546  0.6204
 8854TIP3   OH248052   6.680   5.997   0.236  0.5595  0.0316 -0.2269
 8854TIP3    H148053   6.715   6.049   0.163  1.1494 -0.5907 -0.4008
 8854TIP3    H248054   6.747   5.930   0.251 -0.1093 -0.5724  0.0984
 8855TIP3   OH248055   4.135   3.899   1.823  0.0017  0.3929  0.1341
 8855TIP3    H148056   4.183   3.816   1.825  0.0023  0.3745 -0.5618
 8855TIP3    H248057   4.203   3.966   1.815  0.0968  0.5676  1.9317
 8856TIP3   OH248058   6.795   0.533   1.596  0.2514 -0.0688 -0.2533
 8856TIP3    H148059   6.704   0.502   1.600  0.2406 -0.1067 -0.7744
 8856TIP3    H248060   6.793   0.618   1.639  0.4533 -1.1533  2.0825
 8857TIP3   OH248061   0.264   1.120   4.968  0.0082 -0.6317 -0.5853
 8857TIP3    H148062   0.211   1.060   5.020 -1.2401  0.6469 -0.3070
 8857TIP3    H248063   0.218   1.127   4.885 -0.2027  0.3678 -0.4036
 8858TIP3   OH248064   5.852   6.835  11.928  0.2666 -0.6566 -0.0672
 8858TIP3    H148065   5.826   6.744  11.936  0.5835 -0.6015  1.9448
 8858TIP3    H248066   5.774   6.885  11.952  0.2004 -0.3753 -0.8210
 8859TIP3   OH248067   5.221   1.318   3.455 -0.2818 -0.3032  0.0133
 8859TIP3    H148068   5.152   1.367   3.500  2.2104  1.9147  1.7247
 8859TIP3    H248069   5.215   1.346   3.364 -1.5430 -0.1133  0.1291
 8860TIP3   OH248070   5.168   4.764   3.295  0.0602  0.5939  0.1032
 8860TIP3    H148071   5.159   4.672   3.319  0.0180  0.6534  0.3107
 8860TIP3    H248072   5.253   4.790   3.330  0.0497  0.6491  0.0878
 8861TIP3   OH248073   5.246   5.038  13.687 -0.1683 -0.2115 -0.3089
 8861TIP3    H148074   5.157   5.029  13.652 -0.7152  1.2403  0.6347
 8861TIP3    H248075   5.236   5.093  13.764  1.2196 -2.0149  1.2526
 8862TIP3   OH248076   3.413   1.512   3.586 -0.6240 -0.0163 -0.6651
 8862TIP3    H148077   3.329   1.489   3.627  0.6840 -0.6161  1.8738
 8862TIP3    H248078   3.439   1.434   3.539 -0.7063 -0.4264 -0.0444
 8863TIP3   OH248079   5.841   3.980  10.775 -0.1338  0.0062  0.1854
 8863TIP3    H148080   5.791   3.953  10.852 -2.1749  1.4157 -0.5587
 8863TIP3    H248081   5.851   4.074  10.785  0.0975  0.1203 -0.9693
 8864TIP3   OH248082   0.104   6.577  16.525  0.7494 -0.2038 -0.1955
 8864TIP3    H148083   0.161   6.653  16.510 -0.7020  0.8661 -0.5891
 8864TIP3    H248084   0.121   6.519  16.451  0.4764  0.6717 -0.9757
 8865TIP3   OH248085   4.108   3.057  11.300  0.6163  0.3181  0.8575
 8865TIP3    H148086   4.064   3.097  11.225  0.6172 -0.3749  0.4745
 8865TIP3    H248087   4.201   3.059  11.278  0.6269  0.2304  0.8910
 8866TIP3   OH248088   1.533   0.232  13.231  0.1983  0.3881 -0.1501
 8866TIP3    H148089   1.513   0.207  13.141 -0.6921  0.2564  0.0748
 8866TIP3    H248090   1.447   0.242  13.273  0.5988  0.6029  0.6396
 8867TIP3   OH248091   2.638   3.693  12.126  0.0536  0.0424 -0.3014
 8867TIP3    H148092   2.574   3.746  12.174 -0.8933 -0.2382 -1.2378
 8867TIP3    H248093   2.628   3.605  12.161  1.3653  0.3561  0.9829
 8868TIP3   OH248094   3.839   4.315  10.580  0.0432  0.4289 -0.6609
 8868TIP3    H148095   3.842   4.320  10.485 -1.2665 -0.6913 -0.7852
 8868TIP3    H248096   3.759   4.266  10.600 -0.2296  1.4582  1.0463
 8869TIP3   OH248097   0.158   0.699   3.804 -0.2727  0.1878 -0.3251
 8869TIP3    H148098   0.170   0.624   3.862  1.0122  0.1501 -0.6107
 8869TIP3    H248099   0.221   0.686   3.734 -1.1108  0.7431 -1.2209
 8870TIP3   OH248100   0.776   5.492  15.018  0.4322  0.2986 -0.1937
 8870TIP3    H148101   0.755   5.584  15.035  0.6131  0.0686  1.3968
 8870TIP3    H248102   0.691   5.447  15.020  0.6086 -0.0429  2.3747
 8871TIP3   OH248103   4.576   5.663   5.752  0.5258 -0.4499 -0.0330
 8871TIP3    H148104   4.653   5.713   5.726  0.2548 -0.4274 -0.8420
 8871TIP3    H248105   4.510   5.685   5.686 -0.0493 -0.7613  0.4300
 8872TIP3   OH248106   0.166   3.009  17.000  0.1785  0.4656 -0.5716
 8872TIP3    H148107   0.158   2.993  16.906 -0.0784 -2.6055 -0.1181
 8872TIP3    H248108   0.142   3.101  17.011  1.5234  1.2733 -3.6293
 8873TIP3   OH248109   6.744   6.106   2.799  0.5710  0.7055 -0.3042
 8873TIP3    H148110   6.659   6.149   2.800  1.1627  1.9770 -1.1409
 8873TIP3    H248111   6.749   6.060   2.883 -0.1354  2.2630  0.6309
 8874TIP3   OH248112   6.263   0.560   1.552  0.2145  0.1484 -0.1727
 8874TIP3    H148113   6.358   0.547   1.549 -0.0332 -1.6423 -2.4490
 8874TIP3    H248114   6.231   0.489   1.608  0.1825  0.7196  0.5503
 8875TIP3   OH248115   1.849   3.833   1.400 -0.3559  0.5470 -0.4582
 8875TIP3    H148116   1.855   3.929   1.400  0.0722  0.5809  1.8123
 8875TIP3    H248117   1.756   3.814   1.414 -0.1658  0.6993  1.1637
 8876TIP3   OH248118   4.163   0.324   6.434 -0.0649 -0.0566  0.0124
 8876TIP3    H148119   4.071   0.334   6.459  0.1002  3.2930 -0.2934
 8876TIP3    H248120   4.212   0.360   6.507  0.9925 -0.9903 -0.2087
 8877TIP3   OH248121   4.282   4.920  11.830 -0.2050 -0.7368  0.0806
 8877TIP3    H148122   4.261   4.843  11.884 -0.7264 -0.1792  0.6858
 8877TIP3    H248123   4.197   4.951  11.799  0.0695 -0.8553 -0.7902
 8878TIP3   OH248124   0.493   1.716   3.224 -0.5961 -0.2290  0.5441
 8878TIP3    H148125   0.423   1.778   3.245 -1.0890 -0.9496  1.0614
 8878TIP3    H248126   0.527   1.746   3.139 -1.9095 -0.2002  0.0104
 8879TIP3   OH248127   1.958   3.258   2.040 -0.2759  0.4715  0.5391
 8879TIP3    H148128   1.907   3.281   2.117  1.3841  1.3942  1.4167
 8879TIP3    H248129   1.952   3.335   1.983  0.0571  0.5598  0.6187
 8880TIP3   OH248130   5.940   0.949   0.633 -0.1868 -0.1430  0.0747
 8880TIP3    H148131   5.976   0.864   0.609 -0.1297 -0.2234  0.4438
 8880TIP3    H248132   5.873   0.930   0.699 -1.1632 -0.0297 -0.8581
 8881TIP3   OH248133   5.647   2.614   1.659 -0.1190  0.2958  0.4796
 8881TIP3    H148134   5.581   2.560   1.616 -1.3511  0.6097  1.8925
 8881TIP3    H248135   5.629   2.703   1.629  0.6468  0.2034 -0.2984
 8882TIP3   OH248136   2.702   6.311   5.982 -0.0995 -0.2494  0.4317
 8882TIP3    H148137   2.730   6.399   6.006  0.1059 -0.8319  2.6341
 8882TIP3    H248138   2.645   6.284   6.055 -1.9796 -1.1364 -1.2677
 8883TIP3   OH248139   5.961   1.846   4.115 -0.3553 -0.2574 -0.2736
 8883TIP3    H148140   5.901   1.857   4.042 -1.0995  0.3590  0.4161
 8883TIP3    H248141   6.025   1.916   4.104 -1.4454  0.9226  0.5825
 8884TIP3   OH248142   4.998   4.386   0.993  0.7094 -0.0539  0.0019
 8884TIP3    H148143   4.969   4.305   0.951 -2.0312  0.3501  0.9011
 8884TIP3    H248144   5.093   4.388   0.979  1.0001 -3.7585  0.5869
 8885TIP3   OH248145   0.456   4.035   4.345 -0.0825 -0.1625 -0.0238
 8885TIP3    H148146   0.375   4.017   4.392 -1.0719  0.4344 -1.4358
 8885TIP3    H248147   0.447   3.989   4.261  0.9835  0.0064 -0.2564
 8886TIP3   OH248148   0.283   2.197  12.628  0.5019 -0.3785  0.7616
 8886TIP3    H148149   0.215   2.130  12.617 -0.5040  0.8301 -0.8119
 8886TIP3    H248150   0.239   2.279  12.606  2.5352  0.4274 -0.5229
 8887TIP3   OH248151   0.778   5.728   4.205 -0.0214 -0.6364 -0.4371
 8887TIP3    H148152   0.719   5.683   4.266 -1.3111  0.4472 -0.8456
 8887TIP3    H248153   0.844   5.768   4.261  0.4046 -1.9202  0.0265
 8888TIP3   OH248154   0.431   5.497   4.175 -0.2532 -0.3422 -0.2523
 8888TIP3    H148155   0.498   5.493   4.107 -0.2104  0.9372 -0.3188
 8888TIP3    H248156   0.384   5.578   4.157 -0.9733 -0.5589  0.5789
 8889TIP3   OH248157   0.962   2.562   2.931 -0.2147 -0.4794 -0.0602
 8889TIP3    H148158   0.948   2.487   2.989  1.3002 -0.2323  0.6702
 8889TIP3    H248159   0.990   2.523   2.848 -1.9740 -0.8125 -0.5423
 8890TIP3   OH248160   1.934   3.721  14.261 -0.5394 -0.2628 -0.3749
 8890TIP3    H148161   1.868   3.668  14.215 -0.7243 -1.1111  0.8143
 8890TIP3    H248162   1.995   3.656  14.297  1.3354  0.5273 -1.9738
 8891TIP3   OH248163   0.549   6.077  15.836  0.3177 -0.4430 -1.0438
 8891TIP3    H148164   0.621   6.074  15.773  0.9859 -1.3503 -0.2650
 8891TIP3    H248165   0.528   5.985  15.853  0.0191 -0.2076 -0.0937
 8892TIP3   OH248166   3.857   1.833   3.942 -0.6226 -0.5020 -0.7675
 8892TIP3    H148167   3.860   1.789   3.857  2.2120  1.0679 -1.6015
 8892TIP3    H248168   3.851   1.762   4.006  0.9785 -1.9585 -2.1546
 8893TIP3   OH248169   0.120   5.255  15.348 -0.4327  0.0318 -0.0513
 8893TIP3    H148170   0.194   5.219  15.397 -1.2527  0.6639  1.7236
 8893TIP3    H248171   0.160   5.296  15.271  0.6561 -3.4031 -1.4906
 8894TIP3   OH248172   6.532   3.418   4.122 -0.1810 -0.4944 -0.0139
 8894TIP3    H148173   6.575   3.370   4.051  1.1695  0.1955  0.3056
 8894TIP3    H248174   6.457   3.460   4.080  1.0264  0.5404 -1.2380
 8895TIP3   OH248175   2.490   1.544  16.918  0.0003 -0.6922  0.2503
 8895TIP3    H148176   2.491   1.562  17.012 -0.2093 -0.6966  0.2542
 8895TIP3    H248177   2.573   1.498  16.902  0.8419  0.8128  0.1270
 8896TIP3   OH248178   6.142   0.483  15.042 -0.1776  0.4604  0.4046
 8896TIP3    H148179   6.151   0.535  15.122 -0.8440  1.6057 -0.2462
 8896TIP3    H248180   6.158   0.544  14.971  0.0295 -0.4657 -0.3713
 8897TIP3   OH248181   2.306   5.042   3.677 -0.3860  0.5952  0.3656
 8897TIP3    H148182   2.318   4.970   3.616  0.0538  0.6207  0.4187
 8897TIP3    H248183   2.219   5.076   3.657 -0.1711  0.7289 -0.3729
 8898TIP3   OH248184   2.752   2.288   3.271 -0.0475  0.2028 -0.5074
 8898TIP3    H148185   2.785   2.284   3.361  1.3697  0.1400 -1.0094
 8898TIP3    H248186   2.827   2.316   3.219 -0.3813 -1.3110 -1.8987
 8899TIP3   OH248187   5.432   1.061  10.558 -0.4689  0.5719 -0.3256
 8899TIP3    H148188   5.420   1.064  10.463 -0.1937 -1.2929 -0.4491
 8899TIP3    H248189   5.345   1.077  10.594 -0.4599  1.9525 -0.8518
 8900TIP3   OH248190   0.934   3.357   4.374  0.0578  0.1588 -0.3263
 8900TIP3    H148191   0.886   3.344   4.292  0.2735  0.0065 -0.4292
 8900TIP3    H248192   1.013   3.404   4.347  1.1371 -1.6861 -0.5099
 8901TIP3   OH248193   5.318   2.607   2.577 -0.2168 -0.6683  1.0935
 8901TIP3    H148194   5.301   2.579   2.487 -0.1374  0.8486  0.5741
 8901TIP3    H248195   5.263   2.551   2.630 -0.6243 -1.2786  0.0598
 8902TIP3   OH248196   6.779   4.523   1.321 -0.2599  0.1603  0.6804
 8902TIP3    H148197   6.793   4.582   1.247  0.0357  1.2921  1.5995
 8902TIP3    H248198   6.744   4.579   1.390 -0.8529 -0.9357  1.2953
 8903TIP3   OH248199   1.203   1.000  15.185 -0.3441 -0.1671  0.1051
 8903TIP3    H148200   1.121   0.984  15.230 -1.3579  0.3463 -1.4810
 8903TIP3    H248201   1.187   1.079  15.133 -0.0215 -1.9287 -2.8903
 8904TIP3   OH248202   3.053   5.356   1.530 -0.3022 -0.7536  0.0011
 8904TIP3    H148203   3.028   5.350   1.438  1.4067  0.8825 -0.6502
 8904TIP3    H248204   2.995   5.422   1.567  0.3202  0.0730 -0.4597
 8905TIP3   OH248205   2.628   5.015  12.760 -0.2270  0.4057 -0.1743
 8905TIP3    H148206   2.595   4.939  12.711 -1.1899 -0.1317  1.2396
 8905TIP3    H248207   2.650   4.981  12.846  2.5046  1.1111 -0.4918
 8906TIP3   OH248208   3.137   4.666  10.694  0.2109  0.2190  0.1270
 8906TIP3    H148209   3.053   4.621  10.710 -0.6114  2.3867  2.7095
 8906TIP3    H248210   3.129   4.701  10.606 -1.4818  0.1100  0.2044
 8907TIP3   OH248211   2.458   3.105  16.048  0.6585  0.8100 -0.3318
 8907TIP3    H148212   2.403   3.052  16.105  0.3185  2.5324  1.0143
 8907TIP3    H248213   2.498   3.042  15.988  0.3578 -0.9587  1.2356
 8908TIP3   OH248214   6.170   6.036   1.255 -0.0310  0.1970 -0.6460
 8908TIP3    H148215   6.092   5.981   1.255 -0.3265  0.5185  1.3286
 8908TIP3    H248216   6.179   6.067   1.165 -1.1656 -1.2283 -1.2763
 8909TIP3   OH248217   2.770   0.157  12.252  0.5128 -0.2438  0.0704
 8909TIP3    H148218   2.864   0.153  12.265  0.4807 -2.1372 -0.0805
 8909TIP3    H248219   2.750   0.085  12.192 -0.7620  1.4897 -1.7314
 8910TIP3   OH248220   4.504   6.596  13.261 -0.0943 -0.1850  0.2673
 8910TIP3    H148221   4.486   6.520  13.318  0.3017  0.7407  1.6834
 8910TIP3    H248222   4.596   6.614  13.275  0.4350 -0.9193 -1.9699
 8911TIP3   OH248223   2.914   2.067   4.838 -0.5891 -0.3122  0.3293
 8911TIP3    H148224   3.006   2.045   4.828 -0.4008  0.9280 -1.0630
 8911TIP3    H248225   2.870   2.015   4.770 -0.5964  0.8230 -0.5572
 8912TIP3   OH248226   1.888   5.935   5.249 -0.2035  0.7547  0.1809
 8912TIP3    H148227   1.794   5.955   5.253  0.2332  3.1505 -0.1087
 8912TIP3    H248228   1.910   5.947   5.157  0.3323 -0.2023  0.1767
 8913TIP3   OH248229   0.707   3.002   3.536 -0.1599 -0.3672  0.2529
 8913TIP3    H148230   0.656   3.084   3.540  1.5185  0.7056  0.7979
 8913TIP3    H248231   0.641   2.934   3.523 -1.8253  0.8725  1.5761
 8914TIP3   OH248232   0.219   4.561   1.359 -0.0874 -0.5204  0.0491
 8914TIP3    H148233   0.236   4.504   1.434  0.8271  0.2977  0.4898
 8914TIP3    H248234   0.144   4.522   1.316 -0.6011 -1.0469  1.3658
 8915TIP3   OH248235   3.211   1.454   5.652  0.1012 -0.5967  0.4371
 8915TIP3    H148236   3.125   1.427   5.620 -0.0204 -0.7122  0.8485
 8915TIP3    H248237   3.215   1.548   5.635  0.1526 -0.7085 -0.1624
 8916TIP3   OH248238   5.328   1.920   2.994  0.0286 -1.0787  0.2542
 8916TIP3    H148239   5.290   1.837   3.021 -0.1732 -1.2918 -0.6523
 8916TIP3    H248240   5.257   1.966   2.949 -0.7039  0.7913  3.0804
 8917TIP3   OH248241   6.019   1.339  13.577 -0.1002 -0.4107  0.6097
 8917TIP3    H148242   6.103   1.351  13.621 -0.0517  0.9457  0.1894
 8917TIP3    H248243   5.962   1.299  13.643  0.4703 -0.0509  1.3287
 8918TIP3   OH248244   4.943   4.804  16.604 -0.5918  0.0846 -0.1716
 8918TIP3    H148245   4.946   4.774  16.513 -1.5875  0.9328 -0.4987
 8918TIP3    H248246   5.035   4.803  16.632 -0.0792  1.2037 -1.6575
 8919TIP3   OH248247   3.787   2.589  14.732  0.0792  0.1250  0.4606
 8919TIP3    H148248   3.774   2.532  14.656 -1.1232 -1.5530  1.8289
 8919TIP3    H248249   3.699   2.606  14.765  0.5981  0.2124  1.8738
 8920TIP3   OH248250   0.992   3.123   4.112 -0.3609  0.0429  0.2370
 8920TIP3    H148251   0.918   3.181   4.091  0.3323  0.8318 -0.0986
 8920TIP3    H248252   1.054   3.137   4.040  1.0401  0.9858  1.5637
 8921TIP3   OH248253   3.768   4.843   0.022  0.0381 -0.1251 -0.2241
 8921TIP3    H148254   3.861   4.840   0.046 -0.7663 -1.2201  3.3817
 8921TIP3    H248255   3.748   4.755  -0.008 -0.2836 -0.5294  1.1426
 8922TIP3   OH248256   4.453   4.343  13.419  0.2072 -0.3316 -0.6381
 8922TIP3    H148257   4.497   4.406  13.477 -1.2799 -0.2384  0.4369
 8922TIP3    H248258   4.459   4.259  13.465  0.1931 -0.5358 -0.9990
 8923TIP3   OH248259   5.744   0.085   5.367  0.0018  0.3179 -0.0955
 8923TIP3    H148260   5.661   0.064   5.326 -0.2492 -0.8157  0.9490
 8923TIP3    H248261   5.724   0.159   5.425 -0.3706 -0.1503  0.3888
 8924TIP3   OH248262   5.251   2.316  16.902  1.0378 -0.2065 -0.2248
 8924TIP3    H148263   5.343   2.324  16.876  0.8882  0.2827 -0.6212
 8924TIP3    H248264   5.230   2.400  16.942  1.0340 -0.6674  0.7833
 8925TIP3   OH248265   0.619   0.251  12.759  0.0444 -0.1414 -0.1682
 8925TIP3    H148266   0.593   0.206  12.839 -1.7051 -0.2355 -0.7428
 8925TIP3    H248267   0.561   0.216  12.691  1.5744 -0.1673 -1.5231
 8926TIP3   OH248268   1.390   2.930   4.193  0.0473  0.0150 -0.0971
 8926TIP3    H148269   1.437   2.847   4.181 -1.9783 -1.0369 -1.3026
 8926TIP3    H248270   1.334   2.937   4.116 -1.6632  1.2740  1.1945
 8927TIP3   OH248271   5.298   1.243  13.569  0.1711 -0.2202 -0.4159
 8927TIP3    H148272   5.306   1.156  13.529 -0.5940 -1.1805  1.4055
 8927TIP3    H248273   5.256   1.227  13.653 -0.2123  1.9702 -0.1311
 8928TIP3   OH248274   5.784   0.415   4.721 -0.2721  0.0324 -0.0016
 8928TIP3    H148275   5.746   0.451   4.640 -0.1684  1.1023  0.4033
 8928TIP3    H248276   5.860   0.365   4.692 -0.0417  0.6824 -0.5479
 8929TIP3   OH248277   6.371   0.882  17.043 -0.1631 -0.3279 -0.2479
 8929TIP3    H148278   6.311   0.876  16.969 -0.5726 -0.7261  0.1094
 8929TIP3    H248279   6.369   0.974  17.068  0.9286  0.0696 -1.4969
 8930TIP3   OH248280   4.935   6.351  16.104 -0.0011  0.0065 -0.1445
 8930TIP3    H148281   4.860   6.410  16.093  0.0948  0.4173  1.1917
 8930TIP3    H248282   5.001   6.384  16.043 -0.1812  0.9068  0.1364
 8931TIP3   OH248283   6.566   2.106  14.425  0.3030  0.4025 -0.6717
 8931TIP3    H148284   6.486   2.093  14.375 -0.0366 -1.2277  0.1997
 8931TIP3    H248285   6.582   2.021  14.466  0.8661  1.4728  1.5060
 8932TIP3   OH248286   2.988   3.449   3.147  0.0518  0.3394  0.1765
 8932TIP3    H148287   2.909   3.440   3.200 -0.2543  1.5210 -0.0378
 8932TIP3    H248288   2.968   3.522   3.088  1.3834  0.8048  0.2733
 8933TIP3   OH248289   2.216   2.369  15.787 -0.5411  0.2154  0.0369
 8933TIP3    H148290   2.216   2.394  15.880  1.4128 -1.9851  0.7121
 8933TIP3    H248291   2.179   2.281  15.786  0.4560 -0.2089 -1.1282
 8934TIP3   OH248292   2.854   2.538   5.159  0.1896 -0.3251 -0.0294
 8934TIP3    H148293   2.803   2.459   5.143 -0.5078  0.2260 -0.6065
 8934TIP3    H248294   2.863   2.543   5.254  1.5444 -1.8916 -0.0223
 8935TIP3   OH248295   6.301   2.789  14.683 -0.0700  0.2073  0.4931
 8935TIP3    H148296   6.286   2.727  14.754 -0.7847 -2.2273 -1.6529
 8935TIP3    H248297   6.385   2.764  14.645 -1.1784 -0.6791 -1.5060
 8936TIP3   OH248298   2.557   0.131   4.761  0.4320  0.5223 -0.2178
 8936TIP3    H148299   2.629   0.127   4.824  0.4990  1.2521 -0.2340
 8936TIP3    H248300   2.598   0.166   4.682 -0.1037  1.7537  0.0351
 8937TIP3   OH248301   6.754   5.619   1.425 -0.0405  0.2161 -0.0416
 8937TIP3    H148302   6.701   5.542   1.446 -0.3308  1.1200  2.9652
 8937TIP3    H248303   6.714   5.655   1.346 -1.8914 -0.9105  0.3169
 8938TIP3   OH248304   1.049   3.039  15.809  0.4818 -0.0804  0.3668
 8938TIP3    H148305   0.967   3.000  15.779 -0.0835  0.7482  0.7966
 8938TIP3    H248306   1.047   3.030  15.904 -0.6332  2.7192  0.7126
 8939TIP3   OH248307   6.637   5.347  13.061 -0.4040 -0.4287  0.3967
 8939TIP3    H148308   6.555   5.317  13.022 -1.4154  0.1685  1.9563
 8939TIP3    H248309   6.621   5.440  13.081 -0.2875 -0.8862  2.9310
 8940TIP3   OH248310   1.604   3.294   2.220 -0.0398  0.1811 -0.0747
 8940TIP3    H148311   1.620   3.295   2.126 -0.3162  0.5928 -0.1190
 8940TIP3    H248312   1.683   3.255   2.258  0.4641  0.8789 -0.4025
 8941TIP3   OH248313   1.042   2.636   3.198 -0.7157  0.3022 -0.6156
 8941TIP3    H148314   1.121   2.596   3.161 -0.7878 -0.6245  0.1798
 8941TIP3    H248315   0.971   2.605   3.142 -0.7886 -0.8437  0.0870
 8942TIP3   OH248316   0.780   6.532   3.399 -0.6699 -0.2919 -0.0865
 8942TIP3    H148317   0.757   6.507   3.488 -0.0632  0.1782  0.2116
 8942TIP3    H248318   0.713   6.596   3.374 -2.2490 -2.1542 -0.8686
 8943TIP3   OH248319   1.865   3.007   2.432  0.2351  0.2145 -0.7866
 8943TIP3    H148320   1.916   2.933   2.398 -0.1363  1.0692 -3.4179
 8943TIP3    H248321   1.777   2.972   2.445  0.5745 -0.3296  0.1555
 8944TIP3   OH248322   5.287   0.624  14.469  0.1059  0.3899 -0.4562
 8944TIP3    H148323   5.232   0.703  14.472 -0.4931  0.0859 -2.2117
 8944TIP3    H248324   5.291   0.602  14.376  1.3404 -0.9207 -0.1166
 8945TIP3   OH248325   3.712   5.084   3.181  0.7343 -0.6382 -0.2528
 8945TIP3    H148326   3.733   5.177   3.181 -1.5802 -0.0043  1.8740
 8945TIP3    H248327   3.694   5.063   3.089 -1.1806  1.6937 -0.5013
 8946TIP3   OH248328   6.378   1.284   2.675  0.1339 -0.2521  0.5397
 8946TIP3    H148329   6.450   1.221   2.674 -0.9095 -1.4997  0.1472
 8946TIP3    H248330   6.299   1.229   2.680 -0.8330  1.0225 -0.2445
 8947TIP3   OH248331   3.335   0.808  10.799  0.2289 -0.5274 -0.3922
 8947TIP3    H148332   3.311   0.715  10.802 -0.4194 -0.3424  1.6979
 8947TIP3    H248333   3.349   0.832  10.891  0.6768  1.3731 -0.9186
 8948TIP3   OH248334   6.312   5.958  15.312  0.1474  0.1339  0.5036
 8948TIP3    H148335   6.220   5.944  15.288  1.0487 -2.1203 -2.1277
 8948TIP3    H248336   6.349   6.005  15.237  1.4361 -0.1603  0.9415
 8949TIP3   OH248337   1.090   3.297  16.033  0.1409 -0.0094  0.4766
 8949TIP3    H148338   1.048   3.212  16.023  1.5170 -0.4431 -3.7888
 8949TIP3    H248339   1.034   3.357  15.984  1.0617  0.7200  0.2765
 8950TIP3   OH248340   0.810   5.053   0.341 -0.0779  0.0868 -0.4409
 8950TIP3    H148341   0.869   5.091   0.406 -1.4209  3.1923 -0.8688
 8950TIP3    H248342   0.763   4.985   0.389  2.1219 -0.8844  0.5102
 8951TIP3   OH248343   2.875   2.406   3.624  0.0952  0.4379 -0.0168
 8951TIP3    H148344   2.832   2.390   3.707 -0.9899  2.0722 -0.2181
 8951TIP3    H248345   2.886   2.501   3.620  3.4712  0.1804 -0.1390
 8952TIP3   OH248346   3.715   3.434  12.667  0.1141  0.3217 -0.3019
 8952TIP3    H148347   3.623   3.453  12.685  0.0214  0.5311 -0.9627
 8952TIP3    H248348   3.762   3.512  12.697  0.1031  0.1423  0.2013
 8953TIP3   OH248349   5.385   2.838   4.562  0.3139 -0.0086  0.1282
 8953TIP3    H148350   5.425   2.871   4.643 -2.2025 -0.1066  1.5150
 8953TIP3    H248351   5.391   2.743   4.570 -0.6399 -0.0363  0.6080
 8954TIP3   OH248352   4.183   0.465   2.841  0.0008 -0.2326 -0.4791
 8954TIP3    H148353   4.137   0.440   2.761  0.8371 -2.1140 -0.4249
 8954TIP3    H248354   4.261   0.410   2.842  0.5505  0.5172  1.1054
 8955TIP3   OH248355   2.707   6.010  16.148 -0.1833  0.7609  0.4188
 8955TIP3    H148356   2.788   6.052  16.179 -0.2705  0.9281  0.4194
 8955TIP3    H248357   2.669   6.074  16.087 -1.0345  1.2842  1.4750
 8956TIP3   OH248358   3.179   4.527  14.346  0.3206  0.1132  0.0930
 8956TIP3    H148359   3.108   4.558  14.402  0.3416 -0.4634  0.4440
 8956TIP3    H248360   3.258   4.544  14.397  0.5949  2.1882 -0.9239
 8957TIP3   OH248361   6.162   3.606  12.272 -0.3378  0.2767  0.1255
 8957TIP3    H148362   6.204   3.608  12.358  0.0009  0.9351 -0.0526
 8957TIP3    H248363   6.136   3.696  12.256 -0.7488  0.0890 -0.2992
 8958TIP3   OH248364   5.127   6.479  14.655 -0.1970  0.9911  0.1806
 8958TIP3    H148365   5.088   6.494  14.741 -0.5466  1.9558 -0.1345
 8958TIP3    H248366   5.221   6.493  14.669 -0.3585  2.1201  0.2099
 8959TIP3   OH248367   0.208   2.274   6.212 -0.0163  0.5717 -0.6402
 8959TIP3    H148368   0.237   2.185   6.230 -2.9752 -0.4848 -0.4892
 8959TIP3    H248369   0.233   2.290   6.121 -0.6444 -0.9688 -1.1098
 8960TIP3   OH248370   3.226   1.499  15.011  0.3060  0.0255 -0.0947
 8960TIP3    H148371   3.202   1.437  15.080 -0.4703  1.7976  1.3094
 8960TIP3    H248372   3.317   1.479  14.991 -0.7220 -3.7022 -2.0747
 8961TIP3   OH248373   2.299   0.437   5.850 -0.4883  0.0802 -0.5763
 8961TIP3    H148374   2.326   0.520   5.811 -0.3273  0.4158  0.2255
 8961TIP3    H248375   2.367   0.417   5.915 -1.1380 -0.0582  0.0792
 8962TIP3   OH248376   1.384   5.117  16.513  0.1798  0.3119  0.0274
 8962TIP3    H148377   1.335   5.167  16.448 -0.8546 -0.6099  0.0529
 8962TIP3    H248378   1.317   5.086  16.574  1.2277  2.0029  2.1708
 8963TIP3   OH248379   3.094   6.592   4.879 -0.0641 -0.2686 -0.2301
 8963TIP3    H148380   3.149   6.640   4.817  0.2866 -0.7716 -0.3129
 8963TIP3    H248381   3.005   6.624   4.862  0.1302  0.1728 -0.4462
 8964TIP3   OH248382   3.020   3.698  15.074  0.3237  0.0484  0.0161
 8964TIP3    H148383   3.032   3.725  15.165  0.6442  0.3740 -0.1207
 8964TIP3    H248384   3.034   3.778  15.023  2.8849 -0.6362 -0.5052
 8965TIP3   OH248385   4.954   4.598  12.925  0.1980 -0.2359 -0.1834
 8965TIP3    H148386   4.895   4.653  12.875 -0.0701  0.2998  0.6935
 8965TIP3    H248387   5.034   4.596  12.873 -0.4530 -0.6582 -1.1935
 8966TIP3   OH248388   6.115   2.970   6.385  0.0701 -0.2394  0.2534
 8966TIP3    H148389   6.080   2.922   6.309 -0.8086  1.0760 -0.1992
 8966TIP3    H248390   6.045   3.031   6.409  1.7075  1.9078 -0.1747
 8967TIP3   OH248391   3.850   6.564  15.750 -0.7218 -0.5003  0.1627
 8967TIP3    H148392   3.827   6.601  15.835  0.3144 -0.9155  0.6479
 8967TIP3    H248393   3.916   6.624  15.715 -1.0090 -0.4327 -0.2667
 8968TIP3   OH248394   2.825   5.614  16.476  0.0534  0.0708  0.6436
 8968TIP3    H148395   2.888   5.549  16.507 -0.0372  0.2984  1.3088
 8968TIP3    H248396   2.873   5.662  16.408  0.5654  0.1776  1.0731
 8969TIP3   OH248397   5.095   0.278  17.022  0.1366 -0.1190 -0.2507
 8969TIP3    H148398   5.166   0.267  17.086 -0.0055 -0.0753 -0.0871
 8969TIP3    H248399   5.107   0.204  16.962 -0.4288 -0.8256  0.4816
 8970TIP3   OH248400   4.817   4.955   6.264 -0.3205 -0.5397 -0.0376
 8970TIP3    H148401   4.911   4.974   6.267 -0.0817 -1.1667 -2.2264
 8970TIP3    H248402   4.784   4.990   6.347  1.7441  0.1559  0.5717
 8971TIP3   OH248403   3.249   6.103  15.396 -0.1118  0.0027  0.2158
 8971TIP3    H148404   3.169   6.148  15.368 -0.4730 -0.2360  0.8252
 8971TIP3    H248405   3.270   6.142  15.481  2.3020  2.3929 -1.3043
 8972TIP3   OH248406   4.578   3.262   2.706  0.4608  0.0613 -0.5379
 8972TIP3    H148407   4.586   3.341   2.759  0.6083 -0.4472  0.2138
 8972TIP3    H248408   4.661   3.257   2.658 -0.2320  1.3087 -1.9650
 8973TIP3   OH248409   1.982   3.811  15.925  0.1890 -0.0997  0.2447
 8973TIP3    H148410   2.068   3.844  15.951  0.5408  0.4884 -1.5450
 8973TIP3    H248411   1.946   3.773  16.005  1.8496  0.1968  1.1784
 8974TIP3   OH248412   0.800   4.605   0.278  0.4929  0.5416 -0.2548
 8974TIP3    H148413   0.769   4.522   0.314  1.7501  0.5548  0.9240
 8974TIP3    H248414   0.778   4.599   0.185 -2.8924  0.5281  0.3948
 8975TIP3   OH248415   4.981   0.569   3.978  0.4539 -0.5444  0.2121
 8975TIP3    H148416   4.893   0.603   3.993  0.9180  0.3551  0.9908
 8975TIP3    H248417   5.026   0.637   3.929  0.5980 -1.1887 -0.5726
 8976TIP3   OH248418   0.146   2.621   2.819  0.3107  0.4202  0.6389
 8976TIP3    H148419   0.159   2.538   2.773  0.3678  1.2964 -1.0110
 8976TIP3    H248420   0.067   2.658   2.780  0.1897  1.0730  1.4823
 8977TIP3   OH248421   2.775   1.478   4.927  0.1392 -0.0544 -0.5642
 8977TIP3    H148422   2.737   1.523   4.851 -1.7424 -0.6062  0.0196
 8977TIP3    H248423   2.708   1.416   4.954  0.9322 -0.1189  1.3401
 8978TIP3   OH248424   3.384   3.089   2.551  0.2506 -0.0147  0.4181
 8978TIP3    H148425   3.385   3.053   2.640  1.1925  2.6359  1.5709
 8978TIP3    H248426   3.468   3.134   2.543 -1.1268  2.5789 -0.5639
 8979TIP3   OH248427   5.379   6.712   3.388 -0.4764 -0.1846 -0.0842
 8979TIP3    H148428   5.304   6.661   3.358  0.2352 -0.9585 -0.5892
 8979TIP3    H248429   5.344   6.769   3.456 -1.5491 -0.4278 -0.4128
 8980TIP3   OH248430   0.026   3.012  16.339 -0.3199 -0.5642  0.0044
 8980TIP3    H148431   0.071   2.951  16.281  1.7002  1.7175 -1.0495
 8980TIP3    H248432   0.073   3.095  16.326 -2.3860  1.0184  1.9232
 8981TIP3   OH248433   1.085   6.376  13.095  0.5308  0.0750 -0.3957
 8981TIP3    H148434   1.169   6.329  13.092  0.9530  0.7189  0.5796
 8981TIP3    H248435   1.083   6.414  13.183 -1.7877 -1.6904  0.4044
 8982TIP3   OH248436   1.723   2.544   1.679  0.1440  0.3009  0.5033
 8982TIP3    H148437   1.709   2.620   1.734 -1.3856  1.6111 -1.5153
 8982TIP3    H248438   1.698   2.573   1.591  1.3994 -1.9679 -0.7154
 8983TIP3   OH248439   1.095   6.494   5.156 -0.2002  0.2944 -0.3385
 8983TIP3    H148440   1.178   6.447   5.149 -0.1018  0.7001 -2.1492
 8983TIP3    H248441   1.081   6.502   5.251  1.3001 -0.6756  0.0031
 8984TIP3   OH248442   3.029   3.086  16.128  0.1248 -0.0076  0.0897
 8984TIP3    H148443   2.972   3.145  16.178  1.5624  1.6729 -0.1634
 8984TIP3    H248444   3.107   3.138  16.109  1.0790 -1.7217 -0.9554
 8985TIP3   OH248445   0.987   3.167   1.514 -0.4586 -0.4038  0.7890
 8985TIP3    H148446   1.049   3.107   1.555 -0.4741  0.4651  2.1506
 8985TIP3    H248447   1.015   3.254   1.543 -1.2841  0.1438  0.0171
 8986TIP3   OH248448   2.396   1.907   6.364  0.3153 -0.1786  0.8138
 8986TIP3    H148449   2.384   1.815   6.342 -0.7546  0.2597 -0.6129
 8986TIP3    H248450   2.413   1.950   6.280  0.5513  0.9614  1.4204
 8987TIP3   OH248451   3.171   4.915   1.817  0.2397 -0.6560  0.2432
 8987TIP3    H148452   3.117   4.983   1.777  0.2354 -1.0041 -0.3516
 8987TIP3    H248453   3.157   4.926   1.911  1.5874  1.2992  0.2691
 8988TIP3   OH248454   5.950   5.597   0.231 -0.3592  0.3922 -0.3390
 8988TIP3    H148455   5.895   5.666   0.268 -0.2078 -0.3371  1.3450
 8988TIP3    H248456   6.028   5.596   0.286  0.0195 -0.5727 -0.8595
 8989TIP3   OH248457   4.246   5.262  14.306  0.2717 -0.3126 -0.0320
 8989TIP3    H148458   4.239   5.197  14.236  0.1641  1.7518 -2.0606
 8989TIP3    H248459   4.283   5.339  14.263  0.4638  0.9658  2.2848
 8990TIP3   OH248460   0.296   3.605  13.527 -0.0356  0.4559 -0.0667
 8990TIP3    H148461   0.254   3.608  13.614  0.4868 -0.2957  0.2226
 8990TIP3    H248462   0.361   3.535  13.534 -0.3402  0.0335 -1.2244
 8991TIP3   OH248463   3.259   3.225  15.268 -0.0174 -0.4596  0.2754
 8991TIP3    H148464   3.319   3.167  15.315 -0.6034  0.7690  2.6600
 8991TIP3    H248465   3.179   3.174  15.258 -0.1039 -0.5341  1.2334
 8992TIP3   OH248466   6.479   3.666  11.346 -0.2488  0.2499  0.2799
 8992TIP3    H148467   6.511   3.756  11.354 -0.3957  0.5750 -2.0017
 8992TIP3    H248468   6.465   3.654  11.252 -3.2088 -1.1332  0.7601
 8993TIP3   OH248469   2.651   5.200  10.866  0.5057  0.2251 -0.3598
 8993TIP3    H148470   2.706   5.252  10.808 -0.0873  1.4054  0.0983
 8993TIP3    H248471   2.703   5.189  10.946  0.1926  1.1566 -0.0089
 8994TIP3   OH248472   0.788   6.556  13.198 -0.3420  0.1833  0.1449
 8994TIP3    H148473   0.847   6.526  13.267 -1.4822  0.5365  1.3222
 8994TIP3    H248474   0.714   6.496  13.203 -0.0956 -0.2670 -1.3252
 8995TIP3   OH248475   5.997   5.037  16.874  0.1392  0.1172  0.3526
 8995TIP3    H148476   6.056   5.078  16.811 -0.5832 -1.4650 -1.4281
 8995TIP3    H248477   5.936   5.106  16.899  0.7610  0.9085 -0.2766
 8996TIP3   OH248478   5.716   2.757  16.468  0.5008 -0.0369  0.2933
 8996TIP3    H148479   5.675   2.814  16.403 -0.7261 -0.6677  0.4726
 8996TIP3    H248480   5.776   2.702  16.417 -0.6200 -0.6872 -0.3821
 8997TIP3   OH248481   3.962   6.266  16.354 -0.4324 -0.5335 -0.1613
 8997TIP3    H148482   3.955   6.205  16.281  0.9811 -1.8565  0.7532
 8997TIP3    H248483   3.905   6.230  16.422 -0.4460 -0.2335 -0.0090
 8998TIP3   OH248484   2.573   3.730  10.394 -0.4707  0.7113  0.7833
 8998TIP3    H148485   2.583   3.758  10.303  1.6029  1.6917  1.2432
 8998TIP3    H248486   2.566   3.812  10.444 -4.7751  0.2195  1.3408
 8999TIP3   OH248487   1.023   2.983  12.576  0.7645  0.3439  0.2568
 8999TIP3    H148488   1.003   3.009  12.667  0.1563 -0.1148  0.2596
 8999TIP3    H248489   1.090   3.045  12.548 -0.5690  1.8815  0.3049
 9000TIP3   OH248490   5.058   2.133  12.531 -0.0090 -0.5437 -0.1932
 9000TIP3    H148491   4.984   2.186  12.502 -0.1347 -1.3453 -1.4213
 9000TIP3    H248492   5.037   2.045  12.501  2.0668 -0.5580 -1.8154
 9001TIP3   OH248493   2.447   6.258  11.454  0.2925  0.2975  0.5318
 9001TIP3    H148494   2.541   6.259  11.474  0.2905  1.9665  0.6079
 9001TIP3    H248495   2.406   6.294  11.533 -0.2241  1.3584 -0.1940
 9002TIP3   OH248496   1.538   3.049   4.382 -0.9835  0.2196  0.8058
 9002TIP3    H148497   1.496   2.973   4.340 -1.5912  0.8794  0.1937
 9002TIP3    H248498   1.621   3.058   4.336 -0.2619 -0.9125  1.8239
 9003TIP3   OH248499   5.718   4.044   2.894  0.3976 -0.6004 -0.2215
 9003TIP3    H148500   5.718   4.123   2.839  0.6645 -0.5201 -0.1083
 9003TIP3    H248501   5.658   3.984   2.850  1.0006 -0.7336 -0.8814
 9004TIP3   OH248502   1.712   2.395   4.981  0.3241  0.8335 -0.4003
 9004TIP3    H148503   1.761   2.476   4.978 -0.5525  1.5158  1.6762
 9004TIP3    H248504   1.669   2.396   5.067 -0.4524 -1.3845 -0.6914
 9005TIP3   OH248505   4.038   4.892   0.014 -0.6918  0.1739  0.0990
 9005TIP3    H148506   4.023   4.977  -0.027  0.0662 -0.8534 -2.5509
 9005TIP3    H248507   4.109   4.853  -0.038 -0.6751 -1.8633  1.5404
 9006TIP3   OH248508   6.434   1.257   1.287 -0.5218  0.3114  0.0750
 9006TIP3    H148509   6.508   1.270   1.347  0.7317  0.6911 -1.4900
 9006TIP3    H248510   6.422   1.342   1.244  0.2372 -0.5423 -1.9559
 9007TIP3   OH248511   3.550   4.662   5.152  0.0263  0.8070 -0.1955
 9007TIP3    H148512   3.526   4.714   5.076 -1.3179  0.2037 -0.2103
 9007TIP3    H248513   3.468   4.645   5.197  0.6093 -0.1017  0.5833
 9008TIP3   OH248514   1.709   5.108   4.979 -0.3347 -0.0501 -0.0066
 9008TIP3    H148515   1.619   5.090   5.008 -0.9011  1.2710 -0.8538
 9008TIP3    H248516   1.756   5.133   5.058 -0.5648 -1.2062  0.5229
 9009TIP3   OH248517   2.300   2.135   3.321 -0.9208  0.3574 -0.0216
 9009TIP3    H148518   2.365   2.084   3.272 -0.6288  1.0199 -0.3313
 9009TIP3    H248519   2.217   2.093   3.301 -0.9719  1.3402 -2.0824
 9010TIP3   OH248520   4.365   4.348   0.019  0.1170  0.2750  0.2946
 9010TIP3    H148521   4.449   4.351   0.065  0.0401  1.7487  0.3805
 9010TIP3    H248522   4.387   4.373  -0.071 -0.4647  2.5749  0.7393
 9011TIP3   OH248523   5.070   6.109  14.951 -0.2464  0.1682  0.2810
 9011TIP3    H148524   5.149   6.162  14.954 -0.2935  0.2880 -0.3638
 9011TIP3    H248525   5.078   6.049  15.025  0.2463  0.4568  0.4643
 9012TIP3   OH248526   1.184   1.687  14.430  0.0528  0.3618  1.0816
 9012TIP3    H148527   1.095   1.719  14.447 -1.2246 -1.4877 -1.3619
 9012TIP3    H248528   1.190   1.605  14.479 -1.0426 -1.3361 -1.3632
 9013TIP3   OH248529   3.698   4.439   0.166 -0.1915  0.2718 -0.3842
 9013TIP3    H148530   3.630   4.380   0.134  0.5334 -1.4899  1.1108
 9013TIP3    H248531   3.664   4.527   0.147 -2.5741 -0.5371 -0.2916
 9014TIP3   OH248532   0.652   6.104  13.005  0.5326  0.6891 -0.2357
 9014TIP3    H148533   0.579   6.141  13.055 -0.3867  0.9259 -1.6967
 9014TIP3    H248534   0.640   6.010  13.011 -1.6922  0.6864 -2.8620
 9015TIP3   OH248535   6.702   1.957   0.808  0.4091 -0.5239 -0.5717
 9015TIP3    H148536   6.652   1.876   0.806 -0.1512 -0.2626  1.1540
 9015TIP3    H248537   6.642   2.021   0.846  0.3486  1.0949 -3.1327
 9016TIP3   OH248538   2.146   6.233  16.655  0.0997  0.2354  0.1402
 9016TIP3    H148539   2.051   6.236  16.642  0.3638  0.5274 -2.2002
 9016TIP3    H248540   2.166   6.142  16.676 -0.6563  0.1050  0.3011
 9017TIP3   OH248541   3.669   1.924   3.021 -0.0631 -0.0886 -0.2673
 9017TIP3    H148542   3.741   1.863   3.039 -1.0168 -1.8021 -1.8835
 9017TIP3    H248543   3.611   1.916   3.098  1.1929  0.9725  0.8374
 9018TIP3   OH248544   2.146   6.791   0.258 -0.2820 -0.1528  0.3167
 9018TIP3    H148545   2.112   6.702   0.271 -0.5235  0.0417  1.0676
 9018TIP3    H248546   2.089   6.829   0.191 -0.9095 -0.1735  0.8346
 9019TIP3   OH248547   3.925   1.738   2.788  0.1417 -0.3598  0.2467
 9019TIP3    H148548   3.964   1.745   2.701 -0.4587  2.3118  0.1320
 9019TIP3    H248549   3.846   1.685   2.774 -0.5598  0.9728 -1.0826
 9020TIP3   OH248550   2.029   0.441   3.562  0.4147 -0.1524 -0.3882
 9020TIP3    H148551   1.938   0.438   3.531  1.0374 -3.4548 -2.2904
 9020TIP3    H248552   2.075   0.492   3.496  0.4065 -0.7040 -0.8186
 9021TIP3   OH248553   0.378   0.517  11.809 -0.5522  0.0804  0.0027
 9021TIP3    H148554   0.322   0.594  11.821 -1.5022 -0.4418 -0.9423
 9021TIP3    H248555   0.403   0.519  11.717  0.5655 -0.0041  0.2850
 9022TIP3   OH248556   4.132   0.654   6.032  0.1614  0.2152 -0.3240
 9022TIP3    H148557   4.118   0.720   6.100  1.3090  1.1664 -0.9634
 9022TIP3    H248558   4.126   0.571   6.079 -0.9041  0.7686  0.5811
 9023TIP3   OH248559   2.602   3.970  14.017  0.6313 -0.0596  0.3658
 9023TIP3    H148560   2.657   3.968  14.096 -0.2650 -1.3475  0.9945
 9023TIP3    H248561   2.546   4.047  14.029  2.2229  1.2593 -0.2749
 9024TIP3   OH248562   6.223   2.349  14.350 -0.4720  0.1278 -0.2201
 9024TIP3    H148563   6.252   2.319  14.437 -1.6129  0.6814  0.3774
 9024TIP3    H248564   6.128   2.360  14.359 -0.6028  0.2326 -1.5384
 9025TIP3   OH248565   3.589   0.960   3.553  0.0917 -0.1552  0.5268
 9025TIP3    H148566   3.525   1.028   3.575 -2.6436 -2.3190 -0.1786
 9025TIP3    H248567   3.657   0.969   3.620 -2.0621  0.8934  2.7435
 9026TIP3   OH248568   3.823   0.428  11.945 -0.1979 -0.0325  0.2851
 9026TIP3    H148569   3.785   0.340  11.942 -0.1026 -0.0457 -2.2630
 9026TIP3    H248570   3.916   0.414  11.964  0.3660 -0.7791 -2.5397
 9027TIP3   OH248571   0.283   3.162   5.381  0.5575 -0.0115 -0.8257
 9027TIP3    H148572   0.339   3.119   5.316 -0.6186  0.4489 -2.2127
 9027TIP3    H248573   0.234   3.091   5.421 -0.0767 -0.1616 -1.8221
 9028TIP3   OH248574   1.288   2.266  12.677 -0.3783 -0.1125 -0.2782
 9028TIP3    H148575   1.230   2.341  12.664  0.8359  0.5496 -2.3215
 9028TIP3    H248576   1.254   2.198  12.619 -0.9931 -0.9019  0.9616
 9029TIP3   OH248577   4.143   6.339   2.537 -0.1704  0.1043 -0.3216
 9029TIP3    H148578   4.163   6.304   2.450  1.6252 -0.0287  0.1262
 9029TIP3    H248579   4.067   6.396   2.522 -0.8798 -1.1166 -1.6909
 9030TIP3   OH248580   3.439   4.999  12.084  0.0506 -0.0466  0.6657
 9030TIP3    H148581   3.368   4.939  12.104  0.6622 -1.9142 -2.1405
 9030TIP3    H248582   3.396   5.080  12.056 -1.0342 -1.1677 -1.0443
 9031TIP3   OH248583   0.179   1.043  12.972  0.2376  0.2232 -0.4459
 9031TIP3    H148584   0.237   1.029  12.897 -0.5307 -0.6583 -0.9068
 9031TIP3    H248585   0.227   1.008  13.047 -0.1082 -1.5479 -0.9956
 9032TIP3   OH248586   0.916   4.072  17.039  0.2253 -0.1790 -0.3082
 9032TIP3    H148587   0.995   4.099  17.086  0.2272 -0.9018  0.1161
 9032TIP3    H248588   0.947   4.015  16.969  0.1126 -0.1557 -0.3789
 9033TIP3   OH248589   5.842   4.581  14.038  0.0980  0.0172  0.2586
 9033TIP3    H148590   5.781   4.639  14.084 -0.0423  0.1380 -0.0774
 9033TIP3    H248591   5.887   4.533  14.108  0.3873  0.7002  0.5462
 9034TIP3   OH248592   5.705   5.233  11.715 -0.1147 -0.0981 -0.4213
 9034TIP3    H148593   5.692   5.301  11.648 -0.4836 -0.1658 -0.4212
 9034TIP3    H248594   5.660   5.156  11.680 -0.1543 -0.1882 -0.1741
 9035TIP3   OH248595   3.747   4.611   1.123  0.5139  0.3716 -0.1096
 9035TIP3    H148596   3.732   4.596   1.216 -0.4100 -1.1005 -0.4606
 9035TIP3    H248597   3.840   4.592   1.110  0.3002 -1.0263  0.2520
 9036TIP3   OH248598   5.388   6.667  13.068  0.3122  0.6916  0.5142
 9036TIP3    H148599   5.304   6.637  13.102  0.9421  0.8183  2.3114
 9036TIP3    H248600   5.367   6.709  12.985 -1.0147 -1.7514 -0.4960
 9037TIP3   OH248601   4.133   0.782   3.366  0.4225  0.0511 -0.5514
 9037TIP3    H148602   4.121   0.708   3.425 -1.1106  0.1419 -0.7038
 9037TIP3    H248603   4.158   0.743   3.282 -0.6468 -0.3272 -0.7032
 9038TIP3   OH248604   0.943   5.131   5.228  0.1116 -0.3329 -0.4348
 9038TIP3    H148605   0.876   5.125   5.161 -0.8652 -2.1977  0.6245
 9038TIP3    H248606   0.994   5.209   5.205 -3.9884  2.8839  0.1754
 9039TIP3   OH248607   4.641   4.091   1.019  0.7753  0.0139 -0.0436
 9039TIP3    H148608   4.718   4.148   1.031  0.2180  0.4838  1.6031
 9039TIP3    H248609   4.616   4.067   1.108  0.8241 -2.6376 -0.6626
 9040TIP3   OH248610   3.575   0.588  16.616  0.0312 -0.0200  0.0766
 9040TIP3    H148611   3.484   0.583  16.587  0.1630 -2.6989 -0.1557
 9040TIP3    H248612   3.571   0.590  16.711 -0.3295 -2.9894  0.2103
 9041TIP3   OH248613   5.487   0.794   4.380 -0.2258 -1.0722 -0.4859
 9041TIP3    H148614   5.419   0.746   4.333 -2.9281  1.9076  0.0500
 9041TIP3    H248615   5.460   0.791   4.471  1.2464 -1.0978 -0.0274
 9042TIP3   OH248616   1.699   5.452   0.245 -0.1526 -0.1497 -0.0040
 9042TIP3    H148617   1.716   5.529   0.299 -0.1875 -0.8164  0.9851
 9042TIP3    H248618   1.778   5.399   0.252 -0.6741 -0.8846  0.5200
 9043TIP3   OH248619   3.824   2.157  16.322 -0.3916 -0.4931 -0.2510
 9043TIP3    H148620   3.900   2.197  16.278 -0.2722 -1.3735 -0.8701
 9043TIP3    H248621   3.861   2.111  16.397 -0.3763 -0.4839 -0.2527
 9044TIP3   OH248622   4.270   4.249  16.774 -0.0371 -0.4271  0.2490
 9044TIP3    H148623   4.194   4.246  16.716  0.4211  0.0940 -0.3925
 9044TIP3    H248624   4.237   4.220  16.859 -1.3380  1.3065  0.3909
 9045TIP3   OH248625   1.960   5.753   3.830 -0.0204  0.2807  0.5396
 9045TIP3    H148626   1.988   5.704   3.908  2.3478 -1.0805 -1.0447
 9045TIP3    H248627   1.908   5.690   3.780  1.1031  0.1003 -0.4259
 9046TIP3   OH248628   6.589   2.801  16.760  0.8414  0.4261 -0.4338
 9046TIP3    H148629   6.627   2.841  16.838  2.2718 -0.0123 -0.8739
 9046TIP3    H248630   6.605   2.863  16.689  0.5789  0.3139 -0.5961
 9047TIP3   OH248631   4.485   1.334  16.319  0.4420 -0.0647  0.2127
 9047TIP3    H148632   4.433   1.276  16.375 -0.5630  0.9036  0.3406
 9047TIP3    H248633   4.543   1.276  16.270  0.8982 -0.9854  1.7933
 9048TIP3   OH248634   1.965   3.238  17.085  0.2368  0.4529 -0.7520
 9048TIP3    H148635   1.875   3.268  17.085 -0.2420 -0.8665  0.7106
 9048TIP3    H248636   2.017   3.318  17.092 -0.7866  1.2352 -1.7124
 9049TIP3   OH248637   1.787   6.579  13.646 -0.2887 -0.5322 -0.0043
 9049TIP3    H148638   1.758   6.620  13.727  1.1940  0.7708 -0.0859
 9049TIP3    H248639   1.791   6.650  13.583 -0.2341 -1.3016 -0.8892
 9050TIP3   OH248640   6.665   6.080  13.967  0.3330  0.1474 -0.3101
 9050TIP3    H148641   6.648   6.169  13.938  1.3557  1.1440  1.9290
 9050TIP3    H248642   6.668   6.086  14.062  1.7593 -2.0214 -0.1536
 9051TIP3   OH248643   2.371   1.978   5.550  0.2734  0.3955  0.0343
 9051TIP3    H148644   2.389   2.053   5.607  0.2224  0.9300 -0.6480
 9051TIP3    H248645   2.449   1.923   5.559  0.3805  0.6024  0.4088
 9052TIP3   OH248646   0.797   2.107   0.221  0.3336 -0.3291 -0.0696
 9052TIP3    H148647   0.812   2.027   0.270 -3.4512 -0.0266  1.9811
 9052TIP3    H248648   0.809   2.178   0.284 -1.2577  0.3228 -0.4434
 9053TIP3   OH248649   0.670   6.430  15.796 -0.4067  0.3060  0.3344
 9053TIP3    H148650   0.620   6.348  15.790 -0.9124  0.5928  0.5907
 9053TIP3    H248651   0.752   6.406  15.838 -1.0327  0.1410  1.4818
 9054TIP3   OH248652   6.701   2.413  14.079 -0.1193  0.3291  0.3599
 9054TIP3    H148653   6.751   2.377  14.152 -1.4432 -1.5556  0.3838
 9054TIP3    H248654   6.767   2.458  14.025  1.7018 -2.2361  0.2453
 9055TIP3   OH248655   0.885   4.994   3.010 -0.5057  0.2931  0.4272
 9055TIP3    H148656   0.910   4.982   3.102  1.9214 -2.1689 -0.4387
 9055TIP3    H248657   0.813   4.933   2.996  0.3995 -0.7546  0.2576
 9056TIP3   OH248658   2.019   4.697   5.863 -0.3349 -0.4149  0.1396
 9056TIP3    H148659   1.984   4.726   5.947  1.2464 -0.6708  0.9370
 9056TIP3    H248660   1.964   4.623   5.839 -0.1184 -1.0845  1.5581
 9057TIP3   OH248661   2.592   3.936   5.381  0.0648 -0.1294  0.1693
 9057TIP3    H148662   2.501   3.962   5.394 -0.0862 -0.2628 -0.5682
 9057TIP3    H248663   2.643   3.998   5.433 -0.3937  0.5277 -0.1546
 9058TIP3   OH248664   1.592   6.400  13.056 -0.2888 -0.2685  0.0162
 9058TIP3    H148665   1.612   6.318  13.011 -0.1604 -0.3458  0.2175
 9058TIP3    H248666   1.631   6.391  13.142  0.0956  0.1692 -0.1051
 9059TIP3   OH248667   4.798   4.084  10.879  0.1692 -0.1358 -0.0861
 9059TIP3    H148668   4.862   4.073  10.949  0.8732 -1.2123 -0.8736
 9059TIP3    H248669   4.792   4.179  10.867  2.9006 -0.0020 -1.1118
 9060TIP3   OH248670   0.773   2.008   3.158 -0.5269 -0.2341  0.3547
 9060TIP3    H148671   0.709   1.952   3.113 -2.0200  0.2907  1.7226
 9060TIP3    H248672   0.833   1.946   3.200 -1.1342 -0.7924  0.4214
 9061TIP3   OH248673   0.211   2.694   4.615 -0.3881 -0.2379 -0.3094
 9061TIP3    H148674   0.135   2.661   4.663 -0.6650 -0.6632 -1.0266
 9061TIP3    H248675   0.222   2.633   4.542  0.5487 -0.0911 -0.3074
 9062TIP3   OH248676   0.439   5.966  12.610 -0.5331 -0.1746 -0.2033
 9062TIP3    H148677   0.361   6.021  12.609  0.6089  1.4970 -0.6087
 9062TIP3    H248678   0.433   5.916  12.691 -1.3772  0.8940  0.4048
 9063TIP3   OH248679   2.805   4.873  15.817 -0.5492  0.5362 -0.3878
 9063TIP3    H148680   2.739   4.807  15.795  0.0335 -0.0459 -0.4042
 9063TIP3    H248681   2.757   4.956  15.814 -0.7666  0.3885 -2.7392
 9064TIP3   OH248682   0.802   0.307   1.605  0.0070  0.4198  0.9030
 9064TIP3    H148683   0.736   0.247   1.642  1.0816 -0.3473  1.6170
 9064TIP3    H248684   0.880   0.254   1.595  0.2143  1.0188 -1.0714
 9065TIP3   OH248685   0.003   3.723  16.847 -0.1380  0.1768  0.1498
 9065TIP3    H148686   0.081   3.739  16.793  0.5516 -0.3533  0.9539
 9065TIP3    H248687  -0.023   3.810  16.878 -0.7101  0.5225 -1.2274
 9066TIP3   OH248688   3.545   4.888   3.322 -0.0749  0.0540  0.1523
 9066TIP3    H148689   3.487   4.924   3.389  0.2207 -0.1505  0.5245
 9066TIP3    H248690   3.561   4.961   3.262 -1.3913 -0.1089 -0.4423
 9067TIP3   OH248691   6.037   2.278   0.738  0.6314 -0.2875 -1.1464
 9067TIP3    H148692   5.959   2.254   0.789  2.5492 -0.6629  1.9062
 9067TIP3    H248693   6.091   2.199   0.739  0.6077 -0.4477 -4.3276
 9068TIP3   OH248694   5.303   4.752   2.646 -0.5571 -0.5403 -0.5494
 9068TIP3    H148695   5.391   4.788   2.637 -0.6567 -0.0194  0.4786
 9068TIP3    H248696   5.289   4.745   2.741 -1.3033 -1.4054 -0.7087
 9069TIP3   OH248697   5.125   4.664  11.750 -0.1837  0.4021 -0.2874
 9069TIP3    H148698   5.057   4.610  11.790 -0.3213 -2.2828 -3.7033
 9069TIP3    H248699   5.206   4.614  11.763 -0.0404  0.1026 -2.0993
 9070TIP3   OH248700   2.497   0.254   1.508  0.1762  0.3588  0.4309
 9070TIP3    H148701   2.497   0.188   1.577  1.3333  0.0590  0.1658
 9070TIP3    H248702   2.514   0.204   1.428  0.1537  0.8681  0.1090
 9071TIP3   OH248703   2.133   3.545  12.967  0.7274 -0.3728 -0.0638
 9071TIP3    H148704   2.091   3.608  12.909 -0.5076 -1.8866 -0.9188
 9071TIP3    H248705   2.060   3.507  13.017  1.4661 -0.9048  0.6464
 9072TIP3   OH248706   3.435   5.613  11.068  0.3824 -0.2546 -0.2870
 9072TIP3    H148707   3.348   5.620  11.030  1.1180 -0.3764 -2.1089
 9072TIP3    H248708   3.445   5.691  11.121 -0.6722 -0.0196 -0.4144
 9073TIP3   OH248709   3.251   1.357  10.651 -0.1964 -0.3816 -0.1134
 9073TIP3    H148710   3.220   1.444  10.677 -0.9705 -0.0495 -2.0036
 9073TIP3    H248711   3.331   1.344  10.703 -1.0261  0.6647  1.5226
 9074TIP3   OH248712   5.834   3.533  13.915  0.0702  1.0542 -0.0085
 9074TIP3    H148713   5.753   3.583  13.922  0.0535  0.8919  1.3255
 9074TIP3    H248714   5.865   3.550  13.826 -1.3812  1.1685 -0.5291
 9075TIP3   OH248715   4.784   2.670   3.760  0.5049 -0.7184 -0.2682
 9075TIP3    H148716   4.830   2.705   3.836 -0.3605 -0.4865  0.1587
 9075TIP3    H248717   4.766   2.579   3.783  0.3110 -0.6696 -0.2279
 9076TIP3   OH248718   2.937   6.518   5.769  0.4250  0.0044  0.6377
 9076TIP3    H148719   3.026   6.552   5.774  1.2218 -1.9018  0.3334
 9076TIP3    H248720   2.904   6.523   5.858  1.1397 -0.0166  0.9081
 9077TIP3   OH248721   5.346   5.147   5.015 -0.4281  0.0240  0.2681
 9077TIP3    H148722   5.302   5.123   5.097  1.7041 -0.9692  1.2288
 9077TIP3    H248723   5.300   5.098   4.947 -1.3989 -0.1868  1.0561
 9078TIP3   OH248724   2.406   2.251  11.593 -0.1110  0.2542 -0.0734
 9078TIP3    H148725   2.414   2.340  11.626 -0.1735  0.1180  0.3213
 9078TIP3    H248726   2.464   2.199  11.650 -0.4597 -0.0370  0.0194
 9079TIP3   OH248727   5.031   4.336  12.905  0.5094  0.1412 -0.5730
 9079TIP3    H148728   5.121   4.356  12.931  0.2040 -0.9201  1.5085
 9079TIP3    H248729   4.977   4.397  12.957 -0.1991 -3.0017  2.8233
 9080TIP3   OH248730   4.878   4.447  16.509  0.1262  0.1837 -0.0827
 9080TIP3    H148731   4.806   4.395  16.545  0.0796  0.1511 -0.2226
 9080TIP3    H248732   4.956   4.414  16.554  0.3193 -1.1038 -1.2958
 9081TIP3   OH248733   3.259   2.297  13.660 -0.1847 -0.0247 -0.0872
 9081TIP3    H148734   3.231   2.327  13.574  1.8628 -0.4290 -0.9744
 9081TIP3    H248735   3.179   2.287  13.710 -1.2898  2.3089 -1.2380
 9082TIP3   OH248736   0.729   3.954  15.023  0.1819 -0.3863 -0.0363
 9082TIP3    H148737   0.723   4.050  15.028  0.3426 -0.4163  0.7177
 9082TIP3    H248738   0.691   3.933  14.937  0.0451  0.3404 -0.1634
 9083TIP3   OH248739   6.691   6.103  12.418  1.2038  0.6218  0.4890
 9083TIP3    H148740   6.762   6.040  12.432  0.7947  0.2592  0.9386
 9083TIP3    H248741   6.611   6.050  12.420  0.9820  0.8030 -1.3648
 9084TIP3   OH248742   2.368   3.018   3.791 -0.1416 -0.3964  0.3152
 9084TIP3    H148743   2.278   2.991   3.774  0.3004 -1.7830  0.1048
 9084TIP3    H248744   2.406   3.033   3.704  0.4027 -1.8020  0.2797
 9085TIP3   OH248745   1.617   2.555   0.113  0.4965 -0.5300  0.4209
 9085TIP3    H148746   1.699   2.603   0.105 -0.2499  0.8039  0.4287
 9085TIP3    H248747   1.592   2.535   0.023  0.3851 -0.1371  0.3629
 9086TIP3   OH248748   1.513   5.398  16.784 -0.5195 -0.2309  0.1634
 9086TIP3    H148749   1.439   5.345  16.811 -2.0464  2.0400  0.7043
 9086TIP3    H248750   1.491   5.428  16.696  0.6909 -1.0664 -0.4564
 9087TIP3   OH248751   1.151   5.184  16.318  0.6948 -0.1970 -0.0263
 9087TIP3    H148752   1.102   5.265  16.303  1.3266  0.2931  0.5331
 9087TIP3    H248753   1.087   5.115  16.300 -0.2327  0.4298  0.7333
 9088TIP3   OH248754   0.460   4.558  14.732  0.6058  0.3891 -0.2607
 9088TIP3    H148755   0.543   4.518  14.708  0.6517 -4.0555  5.3478
 9088TIP3    H248756   0.481   4.616  14.805 -1.0589 -0.2067  0.7513
 9089TIP3   OH248757   5.610   1.265   2.188  0.4132 -0.7534  0.2914
 9089TIP3    H148758   5.541   1.210   2.149 -1.0754 -0.5954  2.4799
 9089TIP3    H248759   5.622   1.336   2.126 -3.9994  1.1446  1.2169
 9090TIP3   OH248760   6.190   4.430  16.546  0.1167 -0.0421  1.2530
 9090TIP3    H148761   6.260   4.467  16.600  0.3374  0.7704  0.4401
 9090TIP3    H248762   6.130   4.503  16.532 -1.1147 -0.8288  2.2536
 9091TIP3   OH248763   2.726   3.481  13.626 -0.3840  0.1373 -0.5462
 9091TIP3    H148764   2.746   3.388  13.617 -2.2631 -0.2646 -0.9193
 9091TIP3    H248765   2.732   3.498  13.720 -0.3293 -0.4289 -0.4460
 9092TIP3   OH248766   0.494   4.166  14.470  0.3788  0.6013  0.3162
 9092TIP3    H148767   0.589   4.168  14.488  0.6934 -2.5225 -0.3637
 9092TIP3    H248768   0.454   4.182  14.555  1.6225 -0.5842  1.1907
 9093TIP3   OH248769   4.693   4.145   0.725  0.1829 -0.2507 -0.2909
 9093TIP3    H148770   4.675   4.095   0.804  0.2907 -1.1985 -0.8414
 9093TIP3    H248771   4.613   4.194   0.708  1.1719  2.4862  2.1165
 9094TIP3   OH248772   3.852   0.391  15.308  0.1206  0.1772 -0.2023
 9094TIP3    H148773   3.859   0.298  15.328 -0.8311  0.0601 -0.3723
 9094TIP3    H248774   3.794   0.426  15.377  0.8369  0.7373  0.1310
 9095TIP3   OH248775   5.996   5.147   5.930  0.5519 -0.4018 -0.1605
 9095TIP3    H148776   5.973   5.169   6.020 -1.9621  1.6250 -1.1534
 9095TIP3    H248777   6.079   5.192   5.915  0.1659  0.6349  0.6877
 9096TIP3   OH248778   0.983   6.105  13.033 -0.2196  0.6654 -0.4403
 9096TIP3    H148779   0.955   6.124  12.943  0.1263  1.4263 -0.3995
 9096TIP3    H248780   0.988   6.191  13.075  2.2382  0.5935 -0.4672
 9097TIP3   OH248781   2.286   4.943   2.863 -0.0450  0.3484  0.6519
 9097TIP3    H148782   2.238   4.864   2.890  0.7825 -0.5300 -0.3439
 9097TIP3    H248783   2.249   5.013   2.917 -0.4840 -0.7950  1.9009
 9098TIP3   OH248784   1.290   5.297  11.644 -0.8728 -0.4140 -0.2400
 9098TIP3    H148785   1.365   5.259  11.597  0.4271  0.0782  1.3408
 9098TIP3    H248786   1.251   5.224  11.691  0.5856 -0.1561  1.4455
 9099TIP3   OH248787   2.604   3.392  16.892 -0.3719  0.2893 -0.1617
 9099TIP3    H148788   2.564   3.319  16.844 -1.1301  0.3047  0.4127
 9099TIP3    H248789   2.530   3.447  16.917 -0.2989 -0.7006  2.6550
 9100TIP3   OH248790   5.984   5.958  15.498 -0.8202 -0.2481 -0.5612
 9100TIP3    H148791   5.975   5.955  15.403  0.9270 -1.6669 -0.7328
 9100TIP3    H248792   5.896   5.980  15.530 -0.8343  3.0618 -2.5517
 9101TIP3   OH248793   4.847   6.740   0.461 -0.4001  0.2290 -0.5680
 9101TIP3    H148794   4.756   6.719   0.483  0.1837 -0.5165  1.4174
 9101TIP3    H248795   4.877   6.793   0.535  0.6450  0.8809 -1.4386
 9102TIP3   OH248796   5.882   3.117   5.430  0.2981 -0.0234 -0.0770
 9102TIP3    H148797   5.964   3.102   5.477  0.7750 -1.5040 -1.2989
 9102TIP3    H248798   5.828   3.040   5.449 -0.9062  0.9989  0.8246
 9103TIP3   OH248799   0.670   1.846  12.314  0.3592 -0.3535  0.0808
 9103TIP3    H148800   0.654   1.823  12.222  1.6988 -0.1559 -0.2211
 9103TIP3    H248801   0.764   1.838  12.325  0.3797  0.8522  1.0992
 9104TIP3   OH248802   6.476   3.544   3.801  0.1183  0.1688  0.0869
 9104TIP3    H148803   6.435   3.592   3.729 -0.0613 -2.2605 -1.5847
 9104TIP3    H248804   6.487   3.455   3.766  1.5919 -0.6879  2.5107
 9105TIP3   OH248805   6.513   5.775  10.939 -0.5354 -0.1658 -0.1909
 9105TIP3    H148806   6.489   5.866  10.923  0.5622  0.2606  0.4341
 9105TIP3    H248807   6.521   5.736  10.852 -1.9841  0.0450 -0.4454
 9106TIP3   OH248808   5.661   3.675  12.768 -0.4124  0.2075 -0.5280
 9106TIP3    H148809   5.571   3.698  12.743 -0.6816  1.1895  1.2174
 9106TIP3    H248810   5.699   3.757  12.797  0.5382 -0.4941  0.2585
 9107TIP3   OH248811   4.882   3.911   2.122 -0.2907  0.1160  0.3022
 9107TIP3    H148812   4.964   3.862   2.109 -0.5105 -0.0268 -0.6368
 9107TIP3    H248813   4.815   3.857   2.079 -0.6155  1.0089 -0.3360
 9108TIP3   OH248814   2.749   6.023   2.127 -0.6397  0.4246  0.2112
 9108TIP3    H148815   2.704   5.954   2.177 -1.7735  0.9417 -0.0583
 9108TIP3    H248816   2.689   6.042   2.055  0.0902  1.0576 -0.2346
 9109TIP3   OH248817   3.353   6.697  11.866  0.2640  0.7040  0.1973
 9109TIP3    H148818   3.347   6.703  11.961  0.2880 -0.1366  0.2542
 9109TIP3    H248819   3.346   6.604  11.847 -0.8529  0.9490 -0.7021
 9110TIP3   OH248820   3.489   4.427  16.962  0.1093  0.7595 -0.3136
 9110TIP3    H148821   3.570   4.435  16.913 -0.1013  0.2109 -0.7601
 9110TIP3    H248822   3.433   4.496  16.927 -1.0590 -1.3268 -2.8882
 9111TIP3   OH248823   0.014   2.108  15.442  0.1916  0.0272  0.0738
 9111TIP3    H148824  -0.035   2.187  15.464 -0.3862 -0.2836 -0.0823
 9111TIP3    H248825  -0.036   2.037  15.482  0.2277 -0.3473 -0.5464
 9112TIP3   OH248826   5.616   4.311  11.513 -0.2344  0.0651  0.0745
 9112TIP3    H148827   5.658   4.297  11.428 -1.2419  0.6073 -0.5366
 9112TIP3    H248828   5.661   4.388  11.550 -0.4083  0.3926 -0.3891
 9113TIP3   OH248829   1.854   3.327  14.404  0.2456  0.5762  0.1450
 9113TIP3    H148830   1.939   3.369  14.417  0.6215 -0.3244  0.7081
 9113TIP3    H248831   1.859   3.290  14.315  0.4824  0.4567  0.2051
 9114TIP3   OH248832   6.834   5.501  14.497  0.4598  0.7465 -0.3349
 9114TIP3    H148833   6.754   5.461  14.463  0.0430  1.8651 -0.7364
 9114TIP3    H248834   6.905   5.459  14.449 -0.0724  1.8288 -2.1837
 9115TIP3   OH248835   5.595   2.915   3.029  0.1559  1.0010  0.0683
 9115TIP3    H148836   5.534   2.913   3.103  1.4031  3.4612  1.2988
 9115TIP3    H248837   5.603   2.824   3.002 -1.6515  0.2289  1.8611
 9116TIP3   OH248838   4.299   3.528  14.186  0.0295 -0.0699 -0.1113
 9116TIP3    H148839   4.214   3.489  14.168  1.0535 -1.7913 -1.4832
 9116TIP3    H248840   4.296   3.614  14.145 -0.8213 -0.3843 -0.7283
 9117TIP3   OH248841   1.064   2.853   2.538 -0.1091  0.2285 -0.2036
 9117TIP3    H148842   1.154   2.854   2.570 -0.3960  2.4628  0.7168
 9117TIP3    H248843   1.026   2.934   2.571 -1.6745  0.6707 -2.7989
 9118TIP3   OH248844   4.400   2.701  15.246 -0.5513  0.3670 -0.0324
 9118TIP3    H148845   4.494   2.694  15.265 -1.0091  0.4525  2.5478
 9118TIP3    H248846   4.394   2.773  15.183  1.1886 -0.4312 -1.2058
 9119TIP3   OH248847   1.856   2.207   3.900 -0.1119  0.2037 -0.5283
 9119TIP3    H148848   1.808   2.260   3.836  0.1449  0.8105 -0.2361
 9119TIP3    H248849   1.948   2.225   3.881  0.0523 -1.6684 -1.6847
 9120TIP3   OH248850   4.075   6.053  16.175 -0.4358  0.3338 -0.1535
 9120TIP3    H148851   4.105   5.969  16.139  0.0135  0.4270  0.0028
 9120TIP3    H248852   4.148   6.084  16.229 -0.9407  0.3895  0.5200
 9121TIP3   OH248853   0.446   4.817   5.878  0.2845 -0.1035 -0.0049
 9121TIP3    H148854   0.526   4.781   5.840 -0.1043  0.5921 -1.5664
 9121TIP3    H248855   0.375   4.773   5.832 -0.3915 -2.6765  3.1574
 9122TIP3   OH248856   6.728   2.969  11.582  0.7807  0.2815  0.0914
 9122TIP3    H148857   6.677   2.927  11.651 -1.0924 -0.6634 -1.7591
 9122TIP3    H248858   6.816   2.978  11.619  0.1779 -1.3781  2.1039
 9123TIP3   OH248859   0.736   2.677  13.781 -0.2582 -0.1508 -0.3695
 9123TIP3    H148860   0.811   2.666  13.723  0.4447  0.9539  0.2737
 9123TIP3    H248861   0.662   2.694  13.722  0.2302 -0.0987 -0.9770
 9124TIP3   OH248862   4.205   3.332   3.986 -0.2192  0.1866 -0.3227
 9124TIP3    H148863   4.235   3.255   4.035  0.5521 -0.6924 -2.0971
 9124TIP3    H248864   4.109   3.325   3.986 -0.1833 -0.3071  0.2531
 9125TIP3   OH248865   6.272   1.976  11.759  0.6038 -0.1581 -0.1924
 9125TIP3    H148866   6.344   1.940  11.810  0.0271 -1.3830 -0.2136
 9125TIP3    H248867   6.207   2.001  11.825 -0.0613 -1.5634 -0.2763
 9126TIP3   OH248868   2.646   4.213  14.497  0.2554 -0.0798  0.6378
 9126TIP3    H148869   2.560   4.203  14.537  0.6090 -0.3580  1.3392
 9126TIP3    H248870   2.643   4.158  14.418  0.3757 -1.5038  1.5933
 9127TIP3   OH248871   5.471   4.073   0.608  0.0787  0.4676 -0.4466
 9127TIP3    H148872   5.504   4.087   0.519 -0.2905  2.3561 -0.3382
 9127TIP3    H248873   5.392   4.127   0.613 -0.4129 -0.3268  0.7473
 9128TIP3   OH248874   1.762   0.639   1.623 -0.3503  0.4929  0.4573
 9128TIP3    H148875   1.723   0.717   1.663  0.1063  1.1616 -0.3685
 9128TIP3    H248876   1.840   0.671   1.577  0.6027 -0.6542  1.1997
 9129TIP3   OH248877   3.049   4.823   5.565 -0.1848  0.8255 -0.1637
 9129TIP3    H148878   2.992   4.774   5.624 -1.1745  1.0508 -0.9144
 9129TIP3    H248879   3.129   4.837   5.615 -0.2867 -0.6288  0.4431
 9130TIP3   OH248880   6.726   3.244  17.169 -0.0151  1.2039 -0.0496
 9130TIP3    H148881   6.664   3.313  17.146 -1.4920  0.9072  2.6538
 9130TIP3    H248882   6.677   3.185  17.224  2.6472  0.9606  2.2799
 9131TIP3   OH248883   3.303   3.608  11.886 -0.2382 -0.0578  0.4234
 9131TIP3    H148884   3.330   3.670  11.955  0.7141 -0.3213  0.2997
 9131TIP3    H248885   3.384   3.566  11.858 -0.9894 -2.2488  1.3263
 9132TIP3   OH248886   4.596   2.690   0.742 -0.6823 -0.3150 -0.5564
 9132TIP3    H148887   4.605   2.767   0.685  0.1892  1.3834  1.7086
 9132TIP3    H248888   4.555   2.724   0.822  2.2106 -1.5366  1.6240
 9133TIP3   OH248889   4.043   5.135   1.280  0.3056  0.2281  0.1585
 9133TIP3    H148890   4.056   5.155   1.373  1.1129 -0.8118  0.2839
 9133TIP3    H248891   4.031   5.040   1.277  1.4697  0.0898 -0.9067
 9134TIP3   OH248892   2.062   0.718   4.946 -0.0915 -0.2336 -0.0450
 9134TIP3    H148893   2.079   0.694   4.855  0.0828 -0.0778 -0.0533
 9134TIP3    H248894   2.073   0.813   4.948  0.4047 -0.2983  0.2478
 9135TIP3   OH248895   1.004   0.336   3.715 -0.5420 -0.1000 -0.6277
 9135TIP3    H148896   0.988   0.366   3.804  1.4264 -0.1467 -0.2362
 9135TIP3    H248897   1.099   0.330   3.707 -0.6897 -0.6995 -2.5359
 9136TIP3   OH248898   5.365   1.692  14.670  0.2494 -0.0040  0.3860
 9136TIP3    H148899   5.408   1.609  14.649  2.3679  1.2812 -0.7010
 9136TIP3    H248900   5.392   1.712  14.759  1.5732  0.5624 -0.1249
 9137TIP3   OH248901   4.744   3.202   3.898  0.1840 -0.6274 -0.1238
 9137TIP3    H148902   4.763   3.128   3.956 -0.9801 -0.0538  1.0477
 9137TIP3    H248903   4.649   3.212   3.902  0.1836  0.1253 -1.3001
 9138TIP3   OH248904   6.240   6.572   0.640 -0.3368 -0.3442  0.0621
 9138TIP3    H148905   6.164   6.624   0.614 -0.1134 -0.3056 -0.5257
 9138TIP3    H248906   6.282   6.548   0.557  0.8678  0.5138  0.4013
 9139TIP3   OH248907   2.018   3.560   2.194 -0.6052  0.1300 -0.1309
 9139TIP3    H148908   2.041   3.504   2.120 -1.2503 -0.6646  0.2535
 9139TIP3    H248909   2.069   3.640   2.181 -1.4790  0.4338 -2.0065
 9140TIP3   OH248910   0.974   4.894  13.773 -0.3082  0.0415  0.3524
 9140TIP3    H148911   0.982   4.989  13.781 -0.2924 -0.0902  3.3362
 9140TIP3    H248912   1.059   4.866  13.738  0.0748  1.0560  0.4315
 9141TIP3   OH248913   1.175   6.504   3.298 -0.2903 -0.4574  0.2107
 9141TIP3    H148914   1.192   6.476   3.208 -1.1338 -1.2178  0.2786
 9141TIP3    H248915   1.250   6.559   3.320 -0.3312  0.1707 -1.1370
 9142TIP3   OH248916   0.811   6.811  13.536  0.1239  0.0377 -0.3018
 9142TIP3    H148917   0.787   6.897  13.570 -1.2023  0.2593 -1.6622
 9142TIP3    H248918   0.745   6.751  13.573 -1.3980  0.2983 -2.3849
 9143TIP3   OH248919   3.248   3.492  14.293 -0.3889  0.2239 -0.1139
 9143TIP3    H148920   3.261   3.477  14.199 -0.6598  2.7155 -0.6232
 9143TIP3    H248921   3.260   3.406  14.333  0.0317 -0.8530 -2.3907
 9144TIP3   OH248922   2.418   5.257  15.518 -0.2934  0.1488 -0.7190
 9144TIP3    H148923   2.442   5.335  15.568 -1.8513  0.5400 -0.5264
 9144TIP3    H248924   2.325   5.245  15.536 -0.4303 -0.8667 -1.9835
 9145TIP3   OH248925   1.873   3.564  15.333 -0.2036  0.3305  0.0022
 9145TIP3    H148926   1.927   3.519  15.269  0.6463 -0.0273  0.9396
 9145TIP3    H248927   1.853   3.497  15.399 -0.9070  0.7315  0.2111
 9146TIP3   OH248928   4.886   1.155   1.357 -0.2550 -0.2028  0.0591
 9146TIP3    H148929   4.857   1.087   1.417  0.8578 -1.1902 -0.4800
 9146TIP3    H248930   4.869   1.119   1.270  0.9658 -0.0856 -0.2409
 9147TIP3   OH248931   2.463   3.642   5.662  0.1393  0.0360 -0.0307
 9147TIP3    H148932   2.514   3.656   5.742 -0.0832  2.8564 -0.2640
 9147TIP3    H248933   2.379   3.607   5.692  1.0977 -1.8327  0.6245
 9148TIP3   OH248934   3.995   6.569   0.565  0.0870 -0.0546 -0.2704
 9148TIP3    H148935   3.971   6.613   0.483  1.2857  3.5048  1.0793
 9148TIP3    H248936   4.068   6.512   0.541  0.7288  1.2646 -1.6350
 9149TIP3   OH248937   6.573   0.504   0.590 -0.2480 -0.1655  0.2123
 9149TIP3    H148938   6.491   0.455   0.588 -0.1679 -0.2845 -0.1189
 9149TIP3    H248939   6.594   0.521   0.498  0.4794 -0.7765  0.2534
 9150TIP3   OH248940   5.019   6.495   3.045 -0.4532 -0.6705 -0.1161
 9150TIP3    H148941   4.950   6.560   3.029  0.5121  0.3951 -0.0718
 9150TIP3    H248942   4.991   6.418   2.996  0.4425  1.1582 -3.8425
 9151TIP3   OH248943   5.507   3.896  13.463 -0.1932  0.9544  0.1906
 9151TIP3    H148944   5.527   3.988  13.448  3.3616  0.2662 -0.1428
 9151TIP3    H248945   5.498   3.889  13.558 -0.4417  1.6191  0.2229
 9152TIP3   OH248946   4.313   4.980   2.286  0.1202 -0.3338  0.4360
 9152TIP3    H148947   4.359   4.934   2.217 -1.0627 -0.5010 -0.2649
 9152TIP3    H248948   4.360   5.063   2.296 -1.5788  1.2158 -2.9328
 9153TIP3   OH248949   3.976   0.522  13.213  0.0557 -0.0039 -0.5363
 9153TIP3    H148950   4.041   0.566  13.267  0.2081  0.3931 -1.0359
 9153TIP3    H248951   3.903   0.583  13.207 -1.4233 -1.3414  1.9507
 9154TIP3   OH248952   4.189   1.381   6.149  0.5330  0.2851  0.4364
 9154TIP3    H148953   4.209   1.472   6.173 -0.0178 -0.1842  3.0266
 9154TIP3    H248954   4.189   1.334   6.233 -0.9539 -1.7645 -0.6262
 9155TIP3   OH248955   5.554   5.555   5.293  0.2311  0.7511  0.3181
 9155TIP3    H148956   5.574   5.614   5.221  1.6678 -0.6320 -0.4788
 9155TIP3    H248957   5.547   5.468   5.251 -3.5074  0.4777  1.1566
 9156TIP3   OH248958   2.701   6.377  11.267 -0.4105  0.3530 -0.5369
 9156TIP3    H148959   2.744   6.291  11.260 -1.1250  0.0075 -0.7159
 9156TIP3    H248960   2.766   6.439  11.233  0.2489 -0.0696 -0.0825
 9157TIP3   OH248961   6.173   1.653   4.233  0.3532 -0.2190 -0.1155
 9157TIP3    H148962   6.103   1.696   4.184  0.4131 -0.9244 -0.8460
 9157TIP3    H248963   6.208   1.721   4.290 -0.1539  0.4492 -0.5874
 9158TIP3   OH248964   0.381   1.766  15.565 -0.3637 -0.2786 -0.3794
 9158TIP3    H148965   0.347   1.852  15.587 -0.7313 -0.9894  2.3258
 9158TIP3    H248966   0.315   1.727  15.508 -1.3614  0.3997  0.2858
 9159TIP3   OH248967   4.435   6.800  15.313 -0.0671 -0.2903 -0.3687
 9159TIP3    H148968   4.428   6.707  15.288 -0.2386 -0.7402  1.2668
 9159TIP3    H248969   4.503   6.834  15.256  0.3108 -1.5343 -0.7011
 9160TIP3   OH248970   4.637   0.835  11.830 -0.2875 -0.1608  0.0665
 9160TIP3    H148971   4.622   0.746  11.860 -0.9374 -0.3437 -0.7742
 9160TIP3    H248972   4.556   0.860  11.785 -0.5786  1.2835  1.2969
 9161TIP3   OH248973   5.114   4.213   2.949  0.2109 -0.0266  0.3879
 9161TIP3    H148974   5.128   4.284   2.887 -0.8949  0.1495  0.3320
 9161TIP3    H248975   5.190   4.156   2.937  1.9199  1.8722  1.4793
 9162TIP3   OH248976   3.744   5.146   1.158  0.0722  0.5907 -0.0939
 9162TIP3    H148977   3.774   5.057   1.177 -0.1816  0.8044  1.4509
 9162TIP3    H248978   3.658   5.134   1.119 -0.0800  0.1513  0.3587
 9163TIP3   OH248979   2.974   1.346  15.362  0.7968 -0.1980 -0.0802
 9163TIP3    H148980   2.892   1.394  15.356  1.8239  1.5883 -0.5702
 9163TIP3    H248981   2.979   1.317  15.453  1.5151  3.2962  1.1293
 9164TIP3   OH248982   5.797   1.388  15.653  0.4004  0.1888  0.2366
 9164TIP3    H148983   5.728   1.390  15.719 -0.6340  2.5743 -0.7890
 9164TIP3    H248984   5.876   1.417  15.700  0.1564 -0.1846  0.8813
 9165TIP3   OH248985   4.507   3.089  14.505 -0.5406 -0.7978  0.3126
 9165TIP3    H148986   4.499   3.076  14.411 -1.5296 -1.2917  0.4466
 9165TIP3    H248987   4.505   3.184  14.516  2.5396 -0.5618 -0.3543
 9166TIP3   OH248988   0.016   3.535   0.622  0.3585 -0.6493  0.2209
 9166TIP3    H148989   0.080   3.551   0.553 -0.1957 -0.8735 -0.3583
 9166TIP3    H248990  -0.065   3.517   0.576 -0.2966  0.3250  0.9625
 9167TIP3   OH248991   6.376   2.139  11.546  0.4343 -0.4203 -0.1330
 9167TIP3    H148992   6.464   2.175  11.553 -0.7074  2.4311  0.8569
 9167TIP3    H248993   6.347   2.130  11.637  0.4288 -3.5118 -0.3413
 9168TIP3   OH248994   2.330   1.413  15.270  0.1750 -0.8727  0.5402
 9168TIP3    H148995   2.328   1.336  15.213 -0.9171 -1.3303  1.1654
 9168TIP3    H248996   2.367   1.381  15.352  1.2883 -0.3267  0.2719
 9169TIP3   OH248997   1.127   0.965   0.523  0.0040  0.1798  0.3891
 9169TIP3    H148998   1.140   1.017   0.444 -0.6872  1.2169  0.9318
 9169TIP3    H248999   1.032   0.964   0.535  0.0538 -0.6470  0.7680
 9170TIP3   OH249000   1.524   5.749   0.038  0.4343  0.1530 -0.2488
 9170TIP3    H149001   1.571   5.674   0.003 -1.6984 -0.8356 -1.1812
 9170TIP3    H249002   1.470   5.713   0.108  1.0620  1.2646  0.8533
 9171TIP3   OH249003   6.243   4.733  16.563  0.3900  0.6527  0.0928
 9171TIP3    H149004   6.332   4.700  16.552 -0.1630 -0.7783 -0.3712
 9171TIP3    H249005   6.241   4.768  16.652  0.8760 -1.1887  0.8826
 9172TIP3   OH249006   3.755   4.734   1.614  0.3030  0.6044  0.4141
 9172TIP3    H149007   3.790   4.670   1.676 -0.9246 -0.2080  0.3013
 9172TIP3    H249008   3.723   4.681   1.541  3.5179  1.5885 -1.9735
 9173TIP3   OH249009   6.387   1.784  12.851 -0.2872  0.1068 -0.7410
 9173TIP3    H149010   6.314   1.783  12.789 -1.3676  2.6261  0.3538
 9173TIP3    H249011   6.443   1.855  12.819  0.9378 -0.8263 -0.7219
 9174TIP3   OH249012   1.635   6.445   1.307  0.0153 -0.3096 -0.0344
 9174TIP3    H149013   1.584   6.422   1.229  0.9367 -1.9134 -0.2182
 9174TIP3    H249014   1.652   6.361   1.350  1.8244  0.2365  0.4257
 9175TIP3   OH249015   3.206   6.804  11.379  0.0780 -0.0257  0.1182
 9175TIP3    H149016   3.170   6.829  11.294 -0.9328 -0.2432  0.4692
 9175TIP3    H249017   3.285   6.857  11.387 -0.1175  0.4167 -0.7105
 9176TIP3   OH249018   3.952   6.612  13.351  0.4478 -0.0614 -1.0471
 9176TIP3    H149019   3.978   6.548  13.417  1.1334  0.8411 -0.4165
 9176TIP3    H249020   3.940   6.560  13.271  1.1568 -0.9424 -0.6004
 9177TIP3   OH249021   4.293   0.841   4.057 -0.4054  0.1688  0.0024
 9177TIP3    H149022   4.364   0.880   4.006 -0.5435 -0.8706 -1.0339
 9177TIP3    H249023   4.337   0.801   4.132  0.2326 -1.0405 -0.9663
 9178TIP3   OH249024   4.119   5.615  15.446  0.0526 -0.5243  0.1282
 9178TIP3    H149025   4.175   5.562  15.502  0.3717 -2.1608 -1.6004
 9178TIP3    H249026   4.130   5.704  15.477 -1.3774 -1.4734  3.9500
 9179TIP3   OH249027   5.095   3.876  15.777  0.1487  0.1228 -0.1358
 9179TIP3    H149028   5.054   3.816  15.839 -0.8735 -0.8974 -1.7375
 9179TIP3    H249029   5.133   3.944  15.832  0.8248 -1.6430  1.7243
 9180TIP3   OH249030   2.026   6.296  10.845 -0.3585 -0.0781 -0.1290
 9180TIP3    H149031   2.025   6.203  10.869  1.0521  0.6239  3.2424
 9180TIP3    H249032   2.118   6.314  10.825 -0.8475  0.3702 -2.2557
 9181TIP3   OH249033   4.098   5.385  12.303 -0.0582 -0.1560 -0.0240
 9181TIP3    H149034   4.098   5.480  12.306 -0.7622 -0.0842 -1.5340
 9181TIP3    H249035   4.168   5.363  12.241  0.3967 -0.6470  0.6504
 9182TIP3   OH249036   1.221   5.636   6.245  0.6017 -0.1071  0.1047
 9182TIP3    H149037   1.209   5.721   6.287 -0.4500 -0.0788 -0.2158
 9182TIP3    H249038   1.239   5.576   6.317 -0.0991  0.1313  0.4879
 9183TIP3   OH249039   0.807   3.361  15.761 -0.0411 -0.0940  0.0110
 9183TIP3    H149040   0.859   3.430  15.803 -0.6996 -0.7413  1.9894
 9183TIP3    H249041   0.872   3.298  15.730  0.4650  0.1472  0.5491
 9184TIP3   OH249042   4.504   3.054  12.632 -0.0539  0.6998  0.4429
 9184TIP3    H149043   4.469   3.134  12.671 -1.0583  0.6770 -0.3806
 9184TIP3    H249044   4.587   3.039  12.679 -1.2716  0.5428  2.7220
 9185TIP3   OH249045   0.824   6.197  13.283  0.1202  0.3588  0.1878
 9185TIP3    H149046   0.836   6.274  13.339 -0.5033  0.2674  0.4489
 9185TIP3    H249047   0.738   6.208  13.243 -2.2463 -2.3553  3.7794
 9186TIP3   OH249048   4.346   2.562   4.100  0.7050 -0.2935 -0.3776
 9186TIP3    H149049   4.379   2.547   4.011 -0.5041  1.6441 -1.2082
 9186TIP3    H249050   4.266   2.510   4.105 -0.5543  1.4359 -1.3513
 9187TIP3   OH249051   3.271   0.836   6.115 -1.4344  0.0953  0.0760
 9187TIP3    H149052   3.218   0.889   6.175  0.6709  0.3778  1.8047
 9187TIP3    H249053   3.344   0.892   6.091 -1.1879 -0.7236 -1.1843
 9188TIP3   OH249054   5.629   2.059   1.149 -0.0723 -0.1526 -0.2078
 9188TIP3    H149055   5.563   2.106   1.099  1.1741  1.0897 -0.7446
 9188TIP3    H249056   5.703   2.049   1.089  0.7502 -0.2819  0.7937
 9189TIP3   OH249057   0.429   3.363  17.085 -0.3728 -0.5644  0.2577
 9189TIP3    H149058   0.377   3.286  17.109  0.0387 -0.5059  1.4060
 9189TIP3    H249059   0.517   3.344  17.119 -0.6934  1.1695  2.2629
 9190TIP3   OH249060   3.885   1.136  12.826 -0.0850  0.4316 -0.0654
 9190TIP3    H149061   3.800   1.144  12.783 -0.5965  2.2695  1.1394
 9190TIP3    H249062   3.918   1.226  12.829  1.0105  0.0140  1.2201
 9191TIP3   OH249063   4.452   5.901  14.284 -0.1450 -0.2068  0.2514
 9191TIP3    H149064   4.526   5.889  14.225  1.4332 -1.1693  2.2908
 9191TIP3    H249065   4.472   5.983  14.330  1.4995 -1.9993  3.0880
 9192TIP3   OH249066   5.611   6.570   2.353  0.0819  0.5137  0.3204
 9192TIP3    H149067   5.570   6.656   2.360  0.6444  0.6973  1.5269
 9192TIP3    H249068   5.594   6.543   2.262 -1.8998  0.9803  0.4963
 9193TIP3   OH249069   2.857   3.130  11.427  0.1528  0.0945 -0.3859
 9193TIP3    H149070   2.950   3.145  11.443  0.1401  0.5600 -0.7292
 9193TIP3    H249071   2.818   3.129  11.514  0.2394  1.5292 -0.3034
 9194TIP3   OH249072   1.174   1.344   2.562 -0.0928 -0.2874 -0.0187
 9194TIP3    H149073   1.120   1.324   2.486 -0.3853  0.1563  0.0694
 9194TIP3    H249074   1.261   1.360   2.527 -0.2515  0.0271 -0.2775
 9195TIP3   OH249075   5.681   2.586  12.742 -0.1280  0.8224 -0.1351
 9195TIP3    H149076   5.723   2.672  12.734  0.0917  0.6149 -1.3799
 9195TIP3    H249077   5.599   2.595  12.694 -0.5512  0.6012  0.5283
 9196TIP3   OH249078   6.352   3.839  12.807 -0.1625 -0.6642  0.0844
 9196TIP3    H149079   6.407   3.760  12.800  1.3238  0.1610  1.8586
 9196TIP3    H249080   6.380   3.894  12.734 -0.7841 -1.4711 -0.8000
 9197TIP3   OH249081   3.562   0.580   1.308  0.2393 -0.2896 -0.3332
 9197TIP3    H149082   3.531   0.652   1.253  0.6387  0.1439  0.0057
 9197TIP3    H249083   3.483   0.527   1.324 -0.4820  1.0928  0.9619
 9198TIP3   OH249084   1.723   5.724  10.892 -0.3162  0.0452  0.4512
 9198TIP3    H149085   1.749   5.681  10.974 -0.8741 -2.6251 -0.6618
 9198TIP3    H249086   1.804   5.733  10.843 -0.0656  1.1227  1.0443
 9199TIP3   OH249087   4.915   0.779   1.852  0.1932  0.0934  0.0120
 9199TIP3    H149088   4.949   0.858   1.894  0.4387 -0.4834  0.9331
 9199TIP3    H249089   4.928   0.794   1.758  1.4917  0.5696  0.2478
 9200TIP3   OH249090   6.276   6.170   3.172  0.1104  0.2009 -0.0832
 9200TIP3    H149091   6.281   6.210   3.259  1.0802  1.8050 -0.8434
 9200TIP3    H249092   6.299   6.240   3.112 -0.9419 -0.7779 -1.6853
 9201TIP3   OH249093   1.485   3.931   2.956 -1.0717  0.4824  0.1374
 9201TIP3    H149094   1.546   4.002   2.935 -1.8948  0.7669 -1.4123
 9201TIP3    H249095   1.406   3.976   2.986 -1.2172  0.1703  0.2228
 9202TIP3   OH249096   2.443   6.728  12.645 -0.0485  0.0355  0.1208
 9202TIP3    H149097   2.349   6.716  12.636  0.2246 -2.3016 -0.1585
 9202TIP3    H249098   2.469   6.662  12.709  1.2692  1.3887  1.0410
 9203TIP3   OH249099   1.240   3.324  12.030  0.2485 -0.0639 -0.8651
 9203TIP3    H149100   1.241   3.321  11.935 -1.2459 -1.3843 -0.8847
 9203TIP3    H249101   1.147   3.320  12.053  0.6212 -0.7564  0.6489
 9204TIP3   OH249102   2.240   5.083   5.406  0.7648  0.6626 -0.1790
 9204TIP3    H149103   2.202   5.020   5.467  1.5231  1.1652  0.8404
 9204TIP3    H249104   2.173   5.094   5.339  0.0167 -0.1116  0.4126
 9205TIP3   OH249105   3.243   3.030  14.091  0.0206 -0.0437  0.1965
 9205TIP3    H149106   3.294   2.964  14.043 -0.4360 -1.4631  1.5595
 9205TIP3    H249107   3.154   3.021  14.057 -0.5054 -1.7020  1.8379
 9206TIP3   OH249108   3.098   4.201   3.459  0.2299  0.6304  0.3023
 9206TIP3    H149109   3.094   4.189   3.554 -0.7712  2.3201  0.5200
 9206TIP3    H249110   3.053   4.125   3.423  1.7879 -0.7153  1.0913
 9207TIP3   OH249111   1.641   0.739  11.669  0.1633 -0.2784 -0.1004
 9207TIP3    H149112   1.731   0.764  11.687 -0.2036  2.3784 -1.3840
 9207TIP3    H249113   1.647   0.659  11.618  1.7914 -0.1918 -0.0770
 9208TIP3   OH249114   4.217   0.227   3.079 -0.1366 -0.2868  0.4411
 9208TIP3    H149115   4.263   0.309   3.098 -0.9950  1.3151 -3.3263
 9208TIP3    H249116   4.287   0.163   3.065  0.7407  0.7395  0.0038
 9209TIP3   OH249117   0.348   2.232   3.776  0.4815 -0.1512 -0.2990
 9209TIP3    H149118   0.306   2.263   3.696  0.4318 -1.9970 -1.0264
 9209TIP3    H249119   0.373   2.312   3.822 -1.2589  0.9602 -1.1968
 9210TIP3   OH249120   0.830   3.396   3.181  0.1209  0.1122  0.3441
 9210TIP3    H149121   0.833   3.473   3.124 -1.9142  0.9061  1.2064
 9210TIP3    H249122   0.921   3.375   3.198  0.7375  1.5154 -0.9968
 9211TIP3   OH249123   5.595   5.991  12.918  0.3233 -0.7937  0.1948
 9211TIP3    H149124   5.663   6.056  12.932  0.6945 -1.3163  0.8353
 9211TIP3    H249125   5.515   6.031  12.953  0.1226  0.1104 -1.1987
 9212TIP3   OH249126   3.804   3.112   2.365 -0.3574  0.0758 -0.0435
 9212TIP3    H149127   3.848   3.031   2.389 -1.5670  0.0632  2.4022
 9212TIP3    H249128   3.863   3.181   2.395 -0.2994  0.1041 -0.2171
 9213TIP3   OH249129   1.846   4.156  12.688 -0.1872 -0.4835 -0.1329
 9213TIP3    H149130   1.828   4.104  12.610  0.6633 -0.1969 -0.5318
 9213TIP3    H249131   1.917   4.215  12.662  0.2298 -0.5064  0.9001
 9214TIP3   OH249132   0.540   3.547  14.891 -0.4395  0.4997 -0.1436
 9214TIP3    H149133   0.581   3.576  14.810  3.3420 -0.6898  1.1416
 9214TIP3    H249134   0.496   3.625  14.926  0.2418  1.7387 -1.9520
 9215TIP3   OH249135   3.171   2.593  10.589 -0.0654 -0.1858  0.0920
 9215TIP3    H149136   3.175   2.669  10.531  1.2503  1.6103  2.3804
 9215TIP3    H249137   3.080   2.564  10.584 -0.8083  2.0194 -0.3299
 9216TIP3   OH249138   2.829   3.216  10.653  0.4511  0.1180 -0.7452
 9216TIP3    H149139   2.778   3.212  10.572  0.9100  2.6278 -1.2416
 9216TIP3    H249140   2.828   3.126  10.686 -2.5077 -0.3540 -1.7974
 9217TIP3   OH249141   3.599   4.967  16.251 -0.4644 -0.8245  0.0045
 9217TIP3    H149142   3.600   5.001  16.340  1.5350  1.6441 -0.8486
 9217TIP3    H249143   3.560   5.037  16.199 -0.8133 -1.8703 -1.2095
 9218TIP3   OH249144   6.501   5.305   2.777 -0.1713 -0.1671 -0.4904
 9218TIP3    H149145   6.407   5.323   2.783  0.1176  1.7824 -0.9533
 9218TIP3    H249146   6.542   5.388   2.800  1.4066 -0.5895 -1.6299
 9219TIP3   OH249147   3.812   2.553   1.005 -0.3794  0.6890  0.1718
 9219TIP3    H149148   3.785   2.630   1.055 -1.1637  0.4472  0.1471
 9219TIP3    H249149   3.823   2.585   0.916  1.1067  1.1385  0.4950
 9220TIP3   OH249150   3.264   4.358   2.080 -0.4573  0.3143  0.6583
 9220TIP3    H149151   3.309   4.274   2.068  0.4585  0.7499  1.0160
 9220TIP3    H249152   3.283   4.407   2.000 -0.4375  0.4425  0.7427
 9221TIP3   OH249153   0.325   3.555  13.130  0.3373  0.2887 -0.0544
 9221TIP3    H149154   0.274   3.535  13.052  0.9176 -1.5476 -0.0075
 9221TIP3    H249155   0.331   3.472  13.177  0.3976  1.2413  1.7238
 9222TIP3   OH249156   1.824   0.177   1.401 -0.2256  0.6125 -0.1627
 9222TIP3    H149157   1.801   0.175   1.494 -0.7468 -1.4573 -0.2705
 9222TIP3    H249158   1.916   0.152   1.398  0.0218  1.5227 -0.1549
 9223TIP3   OH249159   3.920   3.737  11.987 -0.0614 -0.3816 -0.8614
 9223TIP3    H149160   3.930   3.673  11.916  0.5997  0.3630 -1.4554
 9223TIP3    H249161   3.924   3.822  11.943  1.6059  0.1358  0.1848
 9224TIP3   OH249162   5.176   0.860   0.600  0.1598 -0.2958 -0.5758
 9224TIP3    H149163   5.183   0.859   0.505  1.7242  3.2249 -0.6711
 9224TIP3    H249164   5.266   0.867   0.631 -0.3543 -0.8720  1.1647
 9225TIP3   OH249165   5.770   2.170  16.146 -0.0376 -0.4226  0.1308
 9225TIP3    H149166   5.793   2.092  16.196  0.0412 -0.6166 -0.2074
 9225TIP3    H249167   5.818   2.241  16.189 -0.4078 -0.4896  0.6749
 9226TIP3   OH249168   0.117   3.156   3.473  0.5552 -0.2712 -0.0012
 9226TIP3    H149169   0.146   3.066   3.485  0.7297  0.1107  3.3250
 9226TIP3    H249170   0.195   3.209   3.490 -0.4038  0.5626  2.0470
 9227TIP3   OH249171   3.763   0.575   0.512 -0.2118 -0.3314  0.1865
 9227TIP3    H149172   3.770   0.483   0.484  0.2488 -0.2338 -0.0129
 9227TIP3    H249173   3.726   0.570   0.600  0.4927 -0.7435  0.4665
 9228TIP3   OH249174   2.063   3.631   5.293 -0.0291  0.1390 -1.2548
 9228TIP3    H149175   1.973   3.620   5.264 -0.6001 -3.3277  1.0918
 9228TIP3    H249176   2.113   3.568   5.241  0.1534 -1.1261  0.3677
 9229TIP3   OH249177   3.404   5.921   5.229  0.1888 -0.3337 -0.2594
 9229TIP3    H149178   3.352   5.912   5.149  3.3613  2.1680 -2.8369
 9229TIP3    H249179   3.406   6.015   5.246  0.9425 -0.6832  1.8793
 9230TIP3   OH249180   5.784   5.746   2.817 -0.3579 -0.5366 -0.1539
 9230TIP3    H149181   5.763   5.835   2.787  0.9509  1.1515  3.3883
 9230TIP3    H249182   5.699   5.704   2.828 -1.0539  0.5733 -1.0226
 9231TIP3   OH249183   3.702   0.668  16.051 -0.1502 -0.6658 -0.0140
 9231TIP3    H149184   3.768   0.734  16.073  0.1388 -1.5333  1.9574
 9231TIP3    H249185   3.690   0.677  15.956  1.5223  0.6848 -0.1571
 9232TIP3   OH249186   6.159   3.489  10.674 -0.5997 -0.3479 -0.4337
 9232TIP3    H149187   6.131   3.416  10.618 -0.5642 -0.1422 -0.7238
 9232TIP3    H249188   6.132   3.567  10.625 -0.7018 -0.1700 -0.0912
 9233TIP3   OH249189   0.966   2.199   5.723 -0.0373  1.1062  0.2468
 9233TIP3    H149190   1.060   2.206   5.703 -0.1296  1.0097 -0.2178
 9233TIP3    H249191   0.922   2.230   5.644 -0.4018  0.7342  0.3053
 9234TIP3   OH249192   6.359   4.255  12.068  0.5121 -0.6871 -0.6889
 9234TIP3    H149193   6.289   4.307  12.028  1.6330  2.0750  0.6428
 9234TIP3    H249194   6.397   4.205  11.995  0.8661  2.2133 -2.6798
 9235TIP3   OH249195   4.142   2.246  14.811  0.0527 -0.5405 -0.4604
 9235TIP3    H149196   4.084   2.298  14.866  0.3045 -1.2959  0.5500
 9235TIP3    H249197   4.113   2.264  14.721 -0.2067  0.8977 -0.1128
 9236TIP3   OH249198   3.583   1.063  12.639 -0.4333 -0.4379  0.5766
 9236TIP3    H149199   3.592   1.093  12.548  0.9589 -2.0504  0.1291
 9236TIP3    H249200   3.499   1.018  12.642 -0.8898  0.3681  0.3461
 9237TIP3   OH249201   1.700   6.323  16.493  0.4309 -0.0043 -0.1919
 9237TIP3    H149202   1.740   6.356  16.413  0.9149 -0.0024  0.0479
 9237TIP3    H249203   1.769   6.272  16.536  0.3768  0.4882  0.5165
 9238TIP3   OH249204   0.656   2.368  11.221 -0.9234 -0.0235  0.3073
 9238TIP3    H149205   0.629   2.442  11.276  1.5648  0.4117  1.0624
 9238TIP3    H249206   0.655   2.293  11.279  1.2321  0.3503  0.9191
 9239TIP3   OH249207   2.016   3.385  15.923  0.4994  0.4775  0.7437
 9239TIP3    H149208   2.076   3.313  15.944 -0.5436 -0.7329 -0.2352
 9239TIP3    H249209   2.046   3.418  15.838 -0.9621 -1.0690 -0.4532
 9240TIP3   OH249210   3.511   5.858   3.364  0.2598  0.2271 -0.1675
 9240TIP3    H149211   3.549   5.815   3.288 -0.8638 -1.7776  0.3303
 9240TIP3    H249212   3.417   5.857   3.347  0.0359  0.2680  0.9929
 9241TIP3   OH249213   0.717   2.878   4.373  0.4533 -0.0854 -0.3489
 9241TIP3    H149214   0.716   2.895   4.279  0.8456  2.4179  0.0135
 9241TIP3    H249215   0.793   2.823   4.388  0.5029 -0.3295 -1.4599
 9242TIP3   OH249216   4.361   3.004  15.469 -0.1605  0.0244 -0.2131
 9242TIP3    H149217   4.294   2.979  15.405 -1.2082  1.3700  0.3003
 9242TIP3    H249218   4.346   2.945  15.543 -1.2677  0.7635  0.1777
 9243TIP3   OH249219   5.031   1.220  15.846  0.1204 -0.0881 -0.0827
 9243TIP3    H149220   5.113   1.254  15.883  0.7550 -0.3978 -1.1636
 9243TIP3    H249221   4.992   1.295  15.801 -0.6040  0.2637  1.0750
 9244TIP3   OH249222   5.602   6.584  14.163 -0.2352 -0.0531 -0.1471
 9244TIP3    H149223   5.696   6.594  14.180  0.7060 -0.3894 -4.1282
 9244TIP3    H249224   5.575   6.511  14.218  1.5590  0.6224  1.7736
 9245TIP3   OH249225   3.911   5.218  12.854  0.1033 -0.0005  0.1117
 9245TIP3    H149226   3.859   5.137  12.851  0.0765 -0.0696  1.6407
 9245TIP3    H249227   3.995   5.190  12.890  0.4545  0.4881 -0.3226
 9246TIP3   OH249228   1.331   0.317   6.248 -0.1737  0.5175  0.2300
 9246TIP3    H149229   1.246   0.313   6.205 -1.7384  1.2192  3.0108
 9246TIP3    H249230   1.357   0.225   6.259 -0.8643  0.2758 -0.1127
 9247TIP3   OH249231   0.878   3.685  11.232  0.2909 -0.0969  0.0364
 9247TIP3    H149232   0.866   3.636  11.313  0.2671 -0.6045 -0.2667
 9247TIP3    H249233   0.822   3.640  11.169  2.3538 -1.4166 -0.9622
 9248TIP3   OH249234   5.764   0.785  14.184  0.5914  0.1069 -0.4724
 9248TIP3    H149235   5.804   0.710  14.141  1.7155  0.1474  0.4665
 9248TIP3    H249236   5.682   0.800  14.136 -0.1795 -2.3349 -0.0249
 9249TIP3   OH249237   4.945   6.703  17.084  0.2767 -0.8462 -0.2353
 9249TIP3    H149238   5.023   6.681  17.034 -0.3229  0.0849 -1.6394
 9249TIP3    H249239   4.978   6.746  17.163  1.1741 -0.1402 -0.9750
 9250TIP3   OH249240   2.950   1.204   2.026 -0.2921 -0.5988  0.2348
 9250TIP3    H149241   3.019   1.173   1.968 -1.3694  1.2242 -2.1711
 9250TIP3    H249242   2.968   1.296   2.040 -1.0086 -0.6129  1.4522
 9251TIP3   OH249243   4.504   5.475   2.224  0.2693  0.0604  0.7185
 9251TIP3    H149244   4.496   5.502   2.316 -0.3570 -0.2724  0.7683
 9251TIP3    H249245   4.471   5.550   2.175 -1.9988 -0.7626  0.8760
 9252TIP3   OH249246   4.396   0.390  10.603 -0.0735 -0.1550 -0.5977
 9252TIP3    H149247   4.339   0.324  10.565  0.3504 -0.9009  0.0176
 9252TIP3    H249248   4.344   0.470  10.604 -1.3752 -0.9746  0.5957
 9253TIP3   OH249249   0.305   3.930   4.119  0.6301  0.0655  0.4380
 9253TIP3    H149250   0.267   3.974   4.044 -1.8662 -1.4691  0.7036
 9253TIP3    H249251   0.361   3.862   4.082  0.2392 -0.0066 -0.0224
 9254TIP3   OH249252   2.194   4.404  15.444  0.2371  0.1287  0.3008
 9254TIP3    H149253   2.225   4.456  15.370 -1.4071 -0.2053 -0.6872
 9254TIP3    H249254   2.233   4.445  15.521  0.2156  1.8737 -0.5770
 9255TIP3   OH249255   6.090   4.547   2.725 -0.1384 -0.7786 -0.3034
 9255TIP3    H149256   6.073   4.483   2.794  2.2952 -0.8125  0.3465
 9255TIP3    H249257   6.030   4.619   2.745 -1.0408 -1.7278  0.5217
 9256TIP3   OH249258   3.244   4.715   2.732 -0.4009 -0.1762  0.8984
 9256TIP3    H149259   3.335   4.739   2.718 -0.7824  0.5160 -0.5057
 9256TIP3    H249260   3.217   4.769   2.807  0.5814 -1.0859  1.9455
 9257TIP3   OH249261   5.910   3.210   2.495  0.0474 -0.1839 -0.0429
 9257TIP3    H149262   5.861   3.287   2.465 -0.2623 -0.7142 -0.9444
 9257TIP3    H249263   5.910   3.217   2.590  0.9917  1.5328 -0.1279
 9258TIP3   OH249264   4.873   4.538  11.598 -0.2151  0.3217  0.3001
 9258TIP3    H149265   4.940   4.473  11.622 -0.7185  0.1299  1.2287
 9258TIP3    H249266   4.849   4.515  11.508  0.2643 -0.2123  0.3021
 9259TIP3   OH249267   6.320   4.890  11.960 -0.0735 -0.4423 -0.0636
 9259TIP3    H149268   6.236   4.894  12.005 -0.6018 -2.3622 -0.7370
 9259TIP3    H249269   6.338   4.980  11.933 -1.0156  0.2987  1.6379
 9260TIP3   OH249270   4.417   3.173   6.129 -0.1941 -0.0233  0.3856
 9260TIP3    H149271   4.446   3.261   6.104 -0.6407 -0.4953 -2.0754
 9260TIP3    H249272   4.452   3.160   6.217  0.9482  2.1332  0.3157
 9261TIP3   OH249273   6.692   6.740   1.227 -0.2478  0.8939  0.3345
 9261TIP3    H149274   6.727   6.823   1.257 -1.1027  1.1456  0.6896
 9261TIP3    H249275   6.758   6.705   1.168  0.4012  1.5250  0.6764
 9262TIP3   OH249276   3.398   3.102   3.936  0.0174 -0.3860 -0.1373
 9262TIP3    H149277   3.339   3.043   3.982  0.9639  0.2529  1.9894
 9262TIP3    H249278   3.412   3.175   3.996  2.4943 -0.2318 -0.7842
 9263TIP3   OH249279   0.052   1.481   1.785  0.4618  0.6589 -0.5859
 9263TIP3    H149280   0.098   1.551   1.740 -1.2126  2.2049 -0.0118
 9263TIP3    H249281  -0.041   1.497   1.765  0.0267 -1.5062 -0.5736
 9264TIP3   OH249282   6.628   2.579   6.703 -0.1119  0.2051  0.1515
 9264TIP3    H149283   6.572   2.563   6.626  1.0637 -1.5717 -0.4027
 9264TIP3    H249284   6.649   2.672   6.698 -2.5400  0.8244  0.0861
 9265TIP3   OH249285   1.482   2.356   6.629 -0.8133  0.2770 -0.3170
 9265TIP3    H149286   1.450   2.417   6.563 -1.9770 -2.0862 -2.1071
 9265TIP3    H249287   1.434   2.275   6.611  0.9142 -1.2856  1.6609
 9266TIP3   OH249288   0.337   3.006  14.238 -0.3854  0.1557  0.3261
 9266TIP3    H149289   0.352   3.088  14.190 -1.5352  1.0790  1.4475
 9266TIP3    H249290   0.424   2.971  14.254  0.1435  1.2645 -0.0379
 9267TIP3   OH249291   4.666   1.506  13.253 -0.4522 -0.2231  0.1208
 9267TIP3    H149292   4.618   1.575  13.207  1.7842 -0.7469 -3.4780
 9267TIP3    H249293   4.626   1.425  13.222  0.0678 -0.5853  0.3928
 9268TIP3   OH249294   2.294   6.577  11.755 -0.1361  0.2625  0.6270
 9268TIP3    H149295   2.242   6.579  11.675  0.9934 -0.6486 -0.1542
 9268TIP3    H249296   2.353   6.503  11.744  0.8212  0.8121  1.8074
 9269TIP3   OH249297   5.221   3.399  11.131  0.1298 -0.2436  0.0476
 9269TIP3    H149298   5.241   3.479  11.181  3.8919 -1.5964  1.0323
 9269TIP3    H249299   5.263   3.413  11.046  1.0442 -1.1942  0.3166
 9270TIP3   OH249300   0.834   1.764   1.890  0.2515 -0.5047  0.1800
 9270TIP3    H149301   0.795   1.723   1.813 -2.2831  1.2466  0.3898
 9270TIP3    H249302   0.906   1.817   1.856  0.6956 -1.6229 -0.6471
 9271TIP3   OH249303   6.345   0.535   1.856 -0.2530  0.0248 -0.1112
 9271TIP3    H149304   6.296   0.587   1.792 -3.2271 -1.4324  0.7865
 9271TIP3    H249305   6.359   0.595   1.929 -2.8558 -0.0421  0.5504
 9272TIP3   OH249306   5.642   1.678  11.333  0.1318 -0.1868  0.3454
 9272TIP3    H149307   5.563   1.625  11.324 -0.2488 -0.1359  2.8119
 9272TIP3    H249308   5.668   1.696  11.243 -3.7132  1.3826 -0.6468
 9273TIP3   OH249309   3.113   1.647  13.559 -0.2867 -0.5149  0.2611
 9273TIP3    H149310   3.108   1.584  13.631  2.5311 -0.9920  0.1411
 9273TIP3    H249311   3.025   1.683  13.553 -1.1395 -1.9990  2.5447
 9274TIP3   OH249312   1.079   1.251  11.168  0.0736  0.3127  0.3095
 9274TIP3    H149313   1.069   1.270  11.074  0.6912  0.8795  0.3448
 9274TIP3    H249314   1.059   1.158  11.176 -0.7924  0.4397 -0.2550
 9275TIP3   OH249315   1.157   5.752   1.749 -0.5150 -0.7872  0.7980
 9275TIP3    H149316   1.205   5.694   1.690 -1.0644  0.7711 -1.3058
 9275TIP3    H249317   1.221   5.819   1.773 -1.1631  0.5024 -0.8785
 9276TIP3   OH249318   6.126   2.160  15.229  0.0013 -0.6024 -0.1534
 9276TIP3    H149319   6.187   2.125  15.164  0.5242 -1.5902  0.8312
 9276TIP3    H249320   6.071   2.086  15.253  0.7532 -0.6570  1.5580
 9277TIP3   OH249321   4.832   1.363  13.577 -0.2034  0.1310 -0.3220
 9277TIP3    H149322   4.744   1.402  13.576  0.1067  0.8779  0.4067
 9277TIP3    H249323   4.826   1.293  13.643 -0.7993 -1.1953 -1.7315
 9278TIP3   OH249324   2.783   1.175  11.640  0.2110 -0.4542  0.0119
 9278TIP3    H149325   2.807   1.166  11.733  0.4662  0.6662  0.0746
 9278TIP3    H249326   2.856   1.223  11.601 -0.0870 -0.5515 -0.6853
 9279TIP3   OH249327   5.877   2.282   1.969  0.4815 -0.0342  0.1248
 9279TIP3    H149328   5.805   2.220   1.978  0.0664  0.6123  1.4940
 9279TIP3    H249329   5.836   2.368   1.978  1.1810  0.4311 -0.8736
 9280TIP3   OH249330   4.776   5.150  11.901 -0.0882 -0.2198  0.3204
 9280TIP3    H149331   4.870   5.159  11.883 -0.2852  0.0887 -0.6061
 9280TIP3    H249332   4.736   5.144  11.814 -1.0798  1.2718  0.6367
 9281TIP3   OH249333   6.241   5.503  15.790 -0.0515  0.2179  0.1695
 9281TIP3    H149334   6.287   5.509  15.706  0.4409 -0.7224  0.3461
 9281TIP3    H249335   6.175   5.434  15.776 -0.9124  1.0334  0.1449
 9282TIP3   OH249336   0.288   0.665   6.074  0.1949  0.4407 -0.0691
 9282TIP3    H149337   0.205   0.710   6.062 -1.3126 -1.9036  0.8067
 9282TIP3    H249338   0.311   0.681   6.165  3.2978  4.9163 -1.2924
 9283TIP3   OH249339   2.191   1.699  13.532 -0.2778  0.2898 -0.3984
 9283TIP3    H149340   2.248   1.772  13.509 -0.4491  1.5203  2.6282
 9283TIP3    H249341   2.105   1.724  13.499  0.2196 -0.0239 -2.0325
 9284TIP3   OH249342   0.940   1.120   1.704  0.0999  0.4576 -0.0433
 9284TIP3    H149343   0.961   1.046   1.761  0.5717  0.4976 -0.1592
 9284TIP3    H249344   0.922   1.192   1.763 -0.7667  0.1555  0.0835
 9285TIP3   OH249345   0.150   6.657  14.313 -0.2995  0.5653  0.0600
 9285TIP3    H149346   0.235   6.658  14.270 -0.6051  1.0149 -0.5456
 9285TIP3    H249347   0.171   6.660  14.407  0.3655 -0.6309 -0.0373
 9286TIP3   OH249348   4.780   3.448  10.493  0.3100  0.2121 -0.4989
 9286TIP3    H149349   4.852   3.385  10.486 -0.3206 -0.8638  1.8092
 9286TIP3    H249350   4.816   3.529  10.455  1.5505 -1.1423 -2.4617
 9287TIP3   OH249351   2.543   1.116  12.546 -0.5535  0.2873 -0.2061
 9287TIP3    H149352   2.563   1.061  12.470 -0.9552  0.0271 -0.1257
 9287TIP3    H249353   2.629   1.145  12.577 -0.3819  0.4057 -0.7622
 9288TIP3   OH249354   1.426   4.439  11.953  0.0983  0.2941 -0.0112
 9288TIP3    H149355   1.332   4.442  11.971 -0.2836  0.9366 -1.9190
 9288TIP3    H249356   1.464   4.399  12.031 -1.7104  0.3488  0.9483
 9289TIP3   OH249357   4.966   5.938   5.503 -0.3129  0.0009 -0.1538
 9289TIP3    H149358   5.054   5.910   5.479  0.5774  0.4436  2.3244
 9289TIP3    H249359   4.912   5.917   5.426  1.2144 -3.5962 -0.4199
 9290TIP3   OH249360   5.934   3.070   1.324  0.2305  0.6149 -0.3311
 9290TIP3    H149361   5.905   2.986   1.287 -0.8955 -0.3118  2.3412
 9290TIP3    H249362   6.025   3.054   1.349 -0.1204 -0.0653  0.6221
 9291TIP3   OH249363   2.056   6.722   3.603 -0.4446 -0.2568  0.3697
 9291TIP3    H149364   2.142   6.696   3.570 -0.7777 -1.8008  0.6450
 9291TIP3    H249365   2.041   6.664   3.678 -0.1680  2.4195  2.6914
 9292TIP3   OH249366   0.982   4.055  14.757  0.0702 -0.5914  0.3974
 9292TIP3    H149367   0.969   3.960  14.746 -1.9558 -0.5429  1.6848
 9292TIP3    H249368   1.030   4.063  14.839  1.3747 -0.5081 -0.3514
 9293TIP3   OH249369   2.648   0.312  13.739 -0.1227  0.1180  0.1593
 9293TIP3    H149370   2.688   0.225  13.744  0.8731  0.5814  0.3145
 9293TIP3    H249371   2.673   0.345  13.652 -0.0408  0.4709  0.3178
 9294TIP3   OH249372   5.032   2.564  16.428  0.3139  0.4722  0.2232
 9294TIP3    H149373   5.117   2.572  16.470 -0.0474  0.9415  0.8858
 9294TIP3    H249374   4.984   2.501  16.482  0.6785 -0.8103 -0.8999
 9295TIP3   OH249375   2.528   2.227   3.450  0.2877 -0.2192  0.1998
 9295TIP3    H149376   2.439   2.203   3.423  0.1552  0.5965 -0.1019
 9295TIP3    H249377   2.580   2.220   3.370  0.1789  0.8199  0.0308
 9296TIP3   OH249378   0.639   3.390  16.576  0.7571  0.0513 -0.1197
 9296TIP3    H149379   0.625   3.464  16.517  0.8464  0.1513 -0.0162
 9296TIP3    H249380   0.605   3.420  16.661 -1.3648 -0.8544 -0.5800
 9297TIP3   OH249381   3.891   5.894   3.200 -0.3364 -0.2990  0.1480
 9297TIP3    H149382   3.810   5.932   3.165 -0.1765  0.7593  0.8809
 9297TIP3    H249383   3.943   5.874   3.122 -0.4989  0.8769 -0.2880
 9298TIP3   OH249384   5.664   6.719  13.905 -0.4011  0.1589 -0.3216
 9298TIP3    H149385   5.660   6.652  13.973 -2.5140  1.8692  1.3774
 9298TIP3    H249386   5.588   6.702  13.849 -0.7227  0.8651 -0.1122
 9299TIP3   OH249387   0.595   3.339   3.707 -0.5480  0.0077 -0.1180
 9299TIP3    H149388   0.577   3.347   3.614 -0.5595 -4.5366 -0.7311
 9299TIP3    H249389   0.553   3.257   3.733  0.2027  0.6387  3.7017
 9300TIP3   OH249390   3.811   6.365   5.673  0.2657 -0.3007 -0.0384
 9300TIP3    H149391   3.821   6.415   5.592  0.0105 -0.9302 -0.4591
 9300TIP3    H249392   3.720   6.380   5.700  0.8002  1.3202  1.0892
 9301TIP3   OH249393   4.508   4.825  16.686  0.1895  0.1053  0.0582
 9301TIP3    H149394   4.428   4.869  16.657  0.3343 -0.3157 -1.0563
 9301TIP3    H249395   4.493   4.732  16.667  0.5679 -0.1046  0.7471
 9302TIP3   OH249396   1.178   1.528  16.294 -0.3160 -0.3731 -0.8389
 9302TIP3    H149397   1.254   1.570  16.335 -1.4792  2.5692 -1.4211
 9302TIP3    H249398   1.152   1.459  16.355  2.2539 -0.8808 -0.2101
 9303TIP3   OH249399   5.781   1.828   3.852  0.6514 -0.2662  0.1357
 9303TIP3    H149400   5.753   1.904   3.801  1.7297  1.2706  1.6898
 9303TIP3    H249401   5.717   1.760   3.833 -1.4908  1.6447  0.1562
 9304TIP3   OH249402   6.336   2.898  16.118  0.3941  0.8350  0.0018
 9304TIP3    H149403   6.427   2.876  16.134  0.0347  0.3144  1.4535
 9304TIP3    H249404   6.288   2.818  16.139 -0.5258  1.5728  0.8064
 9305TIP3   OH249405   2.903   3.453   5.353  0.6212  0.0137  0.2988
 9305TIP3    H149406   2.858   3.524   5.308 -1.6752 -1.5606 -0.0880
 9305TIP3    H249407   2.832   3.400   5.390  2.1761 -2.5551 -0.1910
 9306TIP3   OH249408   0.748   6.714  12.664  0.3324 -0.3285  0.3385
 9306TIP3    H149409   0.818   6.749  12.608 -0.1550 -1.0493 -0.7618
 9306TIP3    H249410   0.747   6.620  12.645 -2.4262 -0.0499 -1.4761
 9307TIP3   OH249411   4.455   4.170   4.823  0.4873 -0.1819  0.3960
 9307TIP3    H149412   4.537   4.131   4.794  0.5605 -1.2009  1.8433
 9307TIP3    H249413   4.475   4.207   4.909 -0.8775 -1.7050  1.4197
 9308TIP3   OH249414   0.000   0.095  12.756 -0.2835 -0.0641  0.2779
 9308TIP3    H149415   0.071   0.128  12.810 -0.2426  1.7971 -0.8335
 9308TIP3    H249416   0.030   0.008  12.728 -0.3386 -1.1328  3.1835
 9309TIP3   OH249417   2.864   0.091   0.794 -0.0222 -0.8621 -0.4165
 9309TIP3    H149418   2.935   0.027   0.791  0.1559 -0.6583 -0.5713
 9309TIP3    H249419   2.804   0.057   0.860  0.8391 -0.3947  0.6578
 9310TIP3   OH249420   2.948   2.969   6.290 -0.1209 -0.1736  0.1365
 9310TIP3    H149421   3.041   2.963   6.313 -0.0895  0.1334  0.0888
 9310TIP3    H249422   2.931   3.063   6.281 -0.8791 -0.0948  1.9830
 9311TIP3   OH249423   3.737   1.130  14.079 -0.2277 -0.0452  0.3214
 9311TIP3    H149424   3.787   1.170  14.150  0.3459 -0.6345  0.2606
 9311TIP3    H249425   3.686   1.202  14.042  1.3057  0.7933 -0.2368
 9312TIP3   OH249426   3.407   3.908  14.625 -0.0574  0.3037  0.1155
 9312TIP3    H149427   3.475   3.899  14.692  1.3101  1.4764 -1.0569
 9312TIP3    H249428   3.389   3.818  14.597  1.6748  0.0056 -0.1716
 9313TIP3   OH249429   4.331   6.254  12.228 -0.2423 -0.0848  0.4837
 9313TIP3    H149430   4.358   6.165  12.249  0.1008 -0.2330 -0.5225
 9313TIP3    H249431   4.413   6.299  12.206 -0.4354  0.4295  0.7961
 9314TIP3   OH249432   5.868   2.550   4.153 -0.6671  0.1630  0.1342
 9314TIP3    H149433   5.836   2.552   4.243  0.0397 -1.0891  0.4262
 9314TIP3    H249434   5.906   2.463   4.142  1.4768  1.1112 -0.5921
 9315TIP3   OH249435   5.397   1.344   0.428  0.4025 -0.0452  0.3314
 9315TIP3    H149436   5.305   1.351   0.402  0.2013  0.7955  1.2524
 9315TIP3    H249437   5.413   1.421   0.482  1.3412 -0.7594  1.1038
 9316TIP3   OH249438   1.233   0.049  10.732  0.1193  0.5992 -0.1837
 9316TIP3    H149439   1.231  -0.047  10.735 -1.8363  0.5987 -0.1436
 9316TIP3    H249440   1.323   0.070  10.708  0.5456 -1.2532 -0.3906
 9317TIP3   OH249441   1.044   1.867  15.368  0.0145 -0.2372  0.0636
 9317TIP3    H149442   1.058   1.956  15.336 -1.4601 -0.5315 -1.5489
 9317TIP3    H249443   1.132   1.833  15.384  0.6971  0.8201 -1.2373
 9318TIP3   OH249444   2.487   4.644  11.704 -0.0174  0.3217 -0.4784
 9318TIP3    H149445   2.564   4.588  11.696  0.3264 -0.0313  3.5408
 9318TIP3    H249446   2.523   4.732  11.714 -0.3467  0.6456 -1.9609
 9319TIP3   OH249447   5.864   3.874  14.124 -0.3076  0.3985  0.8526
 9319TIP3    H149448   5.802   3.808  14.155 -0.6030  0.4293  0.3325
 9319TIP3    H249449   5.942   3.823  14.100 -0.6759  0.1870  0.0790
 9320TIP3   OH249450   0.404   3.020  12.374  0.6036  0.4989 -0.7842
 9320TIP3    H149451   0.428   2.939  12.329  0.6951 -0.0090  0.1551
 9320TIP3    H249452   0.422   3.003  12.467  1.8042  1.9998 -0.6845
 9321TIP3   OH249453   1.190   2.565  16.681  0.1898  0.0608  0.8086
 9321TIP3    H149454   1.177   2.474  16.657  0.4446  0.3669 -0.5799
 9321TIP3    H249455   1.283   2.582  16.665  0.0306  0.7031  0.5100
 9322TIP3   OH249456   4.198   6.471   1.877 -0.1268 -0.4223 -0.2929
 9322TIP3    H149457   4.169   6.553   1.839 -0.6502  0.1146  1.1804
 9322TIP3    H249458   4.292   6.466   1.857 -0.3498 -0.0822 -1.4436
 9323TIP3   OH249459   4.551   2.512   0.515 -0.1257  0.3036  0.0811
 9323TIP3    H149460   4.560   2.529   0.608 -0.6422 -0.2961  0.2485
 9323TIP3    H249461   4.458   2.528   0.497  0.1810  1.5136 -0.5705
 9324TIP3   OH249462   0.572   0.640   6.646 -0.0232  0.5897 -0.2050
 9324TIP3    H149463   0.579   0.550   6.680 -1.0414  0.3834 -0.4982
 9324TIP3    H249464   0.481   0.647   6.618  0.5380  1.0577 -2.0275
 9325TIP3   OH249465   1.733   4.263   4.832  0.2984  0.0632  0.2446
 9325TIP3    H149466   1.661   4.303   4.783 -0.4879 -0.0549  1.2863
 9325TIP3    H249467   1.773   4.335   4.880  0.1470 -0.0659  0.5656
 9326TIP3   OH249468   0.985   5.263  11.564  0.3736  0.4715  0.1193
 9326TIP3    H149469   1.039   5.193  11.600  1.2138  0.9648 -0.1615
 9326TIP3    H249470   0.899   5.249  11.603 -0.4143 -2.6285 -2.2962
 9327TIP3   OH249471   4.043   5.751  17.032  0.6302 -0.6658 -0.1086
 9327TIP3    H149472   4.110   5.816  17.010  0.1084 -0.6967 -1.9495
 9327TIP3    H249473   3.988   5.794  17.097  2.2343 -0.5296  1.2084
 9328TIP3   OH249474   4.616   0.623   3.899 -0.0153 -0.9084  0.0925
 9328TIP3    H149475   4.667   0.546   3.875  0.1489 -1.3665  1.7431
 9328TIP3    H249476   4.599   0.612   3.993  0.7886  1.4838  0.5944
 9329TIP3   OH249477   4.353   0.799   5.226  0.1201  0.4058 -0.2679
 9329TIP3    H149478   4.380   0.708   5.240  0.0299  0.6306  1.6799
 9329TIP3    H249479   4.382   0.820   5.137  2.1696 -0.8250  0.0514
 9330TIP3   OH249480   0.635   2.967   5.510  0.3111  0.0824 -0.3893
 9330TIP3    H149481   0.673   2.966   5.422 -0.4710 -0.3510 -0.7332
 9330TIP3    H249482   0.553   2.919   5.501  0.9801 -1.3827  0.9319
 9331TIP3   OH249483   0.584   4.529  15.458 -0.1263  0.8021 -0.3791
 9331TIP3    H149484   0.656   4.560  15.403 -0.8727  1.1568 -1.1559
 9331TIP3    H249485   0.522   4.602  15.460  0.4246  1.3039  1.9533
 9332TIP3   OH249486   2.973   5.902   5.174  0.2951  0.1517  0.0807
 9332TIP3    H149487   3.042   5.932   5.116 -0.5492  0.8967 -0.5678
 9332TIP3    H249488   2.984   5.807   5.177  0.3539  0.0838 -1.3467
 9333TIP3   OH249489   2.741   4.185   4.746 -0.2312 -0.4276 -0.1759
 9333TIP3    H149490   2.673   4.218   4.805 -0.0505 -1.4454  0.6404
 9333TIP3    H249491   2.809   4.151   4.805  0.7347  0.0551 -0.9776
 9334TIP3   OH249492   3.473   4.155  13.113  0.4703 -0.2348 -0.1306
 9334TIP3    H149493   3.442   4.064  13.117  0.9211 -0.3645  2.4115
 9334TIP3    H249494   3.396   4.207  13.135  0.5965 -0.1439  0.1062
 9335TIP3   OH249495   6.841   6.150  12.935  0.2010  0.4802 -0.0990
 9335TIP3    H149496   6.798   6.139  12.850  0.8389  0.4580 -0.4289
 9335TIP3    H249497   6.769   6.156  12.998 -0.3055  1.3347 -0.7339
 9336TIP3   OH249498   6.811   3.120  11.200  0.1679  0.1329  0.2822
 9336TIP3    H149499   6.727   3.082  11.227  0.7090 -0.0481  1.7820
 9336TIP3    H249500   6.787   3.200  11.153 -0.9177 -1.0203 -1.2598
 9337TIP3   OH249501   6.237   3.737   1.856 -0.0338  0.1024  0.3257
 9337TIP3    H149502   6.267   3.650   1.884 -1.3341 -0.1467  1.0125
 9337TIP3    H249503   6.226   3.786   1.938  0.7611  0.9587 -0.0590
 9338TIP3   OH249504   5.824   4.093  14.813  0.1283 -0.6036 -0.4702
 9338TIP3    H149505   5.729   4.078  14.807  0.2336 -2.7843  1.7558
 9338TIP3    H249506   5.863   4.011  14.783  1.2973 -0.0428 -0.5378
 9339TIP3   OH249507   5.799   2.196   3.894  0.2184  0.0891 -0.0982
 9339TIP3    H149508   5.810   2.163   3.805  1.0687 -0.3649  0.1589
 9339TIP3    H249509   5.719   2.154   3.925 -0.5331  0.8824 -0.9172
 9340TIP3   OH249510   1.847   1.506   5.467 -0.0683 -0.4016  0.2797
 9340TIP3    H149511   1.842   1.458   5.384  2.4094  0.1342 -0.2671
 9340TIP3    H249512   1.854   1.437   5.534  0.8557 -0.8528 -0.2536
 9341TIP3   OH249513   4.667   5.144  10.603  0.0819  0.2290  0.1572
 9341TIP3    H149514   4.654   5.239  10.604  1.3001  0.4139  1.8194
 9341TIP3    H249515   4.758   5.132  10.630  0.0081 -1.4199 -0.2492
 9342TIP3   OH249516   0.552   1.971   1.791 -0.4052 -0.2012  0.0764
 9342TIP3    H149517   0.553   1.893   1.846 -2.6083  0.5229  1.2466
 9342TIP3    H249518   0.606   2.035   1.839  0.2461 -0.5557 -0.1808
 9343TIP3   OH249519   4.590   1.267  12.448 -0.0215 -0.8414  0.3109
 9343TIP3    H149520   4.540   1.313  12.381  1.5310  1.5782  0.7100
 9343TIP3    H249521   4.650   1.211  12.399 -1.1057 -1.6024 -0.2021
 9344TIP3   OH249522   0.171   4.093  14.393 -0.1723 -0.1766  0.4745
 9344TIP3    H149523   0.087   4.053  14.417 -0.3229 -0.1017  0.0732
 9344TIP3    H249524   0.159   4.186  14.410  0.1959 -0.2915  1.4593
 9345TIP3   OH249525   2.961   1.715  16.436  0.4713 -0.0118  0.0935
 9345TIP3    H149526   2.890   1.751  16.383  0.9365  1.1154  0.2071
 9345TIP3    H249527   3.039   1.765  16.409  1.5012 -2.0403 -0.9093
 9346TIP3   OH249528   0.982   4.547  14.718 -0.1701 -0.1891 -0.1263
 9346TIP3    H149529   1.034   4.472  14.688 -1.2516 -0.6189 -1.0415
 9346TIP3    H249530   1.037   4.591  14.782  0.8913 -1.2075 -0.3008
 9347TIP3   OH249531   6.029   6.530  15.239 -0.3586  0.4591 -0.2139
 9347TIP3    H149532   6.099   6.588  15.269  0.2876 -0.6368  0.4731
 9347TIP3    H249533   6.039   6.451  15.293 -2.3798  0.4289  0.1864
 9348TIP3   OH249534   5.502   2.041   5.385 -0.4736  0.2838 -0.6826
 9348TIP3    H149535   5.526   2.008   5.298  2.5580  1.8638 -0.5784
 9348TIP3    H249536   5.501   1.964   5.441 -0.3217 -0.4811 -1.7097
 9349TIP3   OH249537   5.285   6.695  14.091  0.4657  0.0150 -0.0325
 9349TIP3    H149538   5.303   6.703  14.185  2.8112 -0.6874 -0.3478
 9349TIP3    H249539   5.201   6.737  14.079  0.2930  0.4899  2.3279
 9350TIP3   OH249540   6.152   5.011  11.734  0.4028  0.2148 -0.2819
 9350TIP3    H149541   6.122   4.920  11.745 -0.8557  0.6407 -0.0164
 9350TIP3    H249542   6.072   5.061  11.720  0.9774  1.4463  0.6110
 9351TIP3   OH249543   0.662   6.381   6.262 -0.5069 -0.2407  0.0912
 9351TIP3    H149544   0.587   6.362   6.318 -1.1729 -0.0513 -0.7084
 9351TIP3    H249545   0.634   6.458   6.211 -0.0359 -0.5722 -0.6881
 9352TIP3   OH249546   3.598   6.059   6.252  0.1645 -0.2452 -0.3397
 9352TIP3    H149547   3.514   6.062   6.206 -0.1809 -0.1447  0.2812
 9352TIP3    H249548   3.663   6.044   6.183 -0.3982 -0.6938 -0.7882
 9353TIP3   OH249549   2.118   4.666   3.001  0.3607 -0.0774  0.3149
 9353TIP3    H149550   2.059   4.598   3.035  0.1489  0.1811  0.4638
 9353TIP3    H249551   2.072   4.702   2.925  1.2413 -1.2947 -0.8306
 9354TIP3   OH249552   3.102   3.132  14.715 -0.1277 -0.6430 -0.4448
 9354TIP3    H149553   3.107   3.078  14.794 -1.3423 -0.7080 -0.4040
 9354TIP3    H249554   3.123   3.071  14.644  0.5888 -0.6683 -0.2283
 9355TIP3   OH249555   4.625   3.947  11.564 -0.4545 -0.1623 -0.7782
 9355TIP3    H149556   4.529   3.953  11.570 -0.4751 -0.7504 -0.4908
 9355TIP3    H249557   4.655   3.948  11.654 -0.2636 -1.0796 -0.8162
 9356TIP3   OH249558   0.126   4.370   6.187 -0.9974  0.3411 -0.3343
 9356TIP3    H149559   0.176   4.303   6.141 -0.5162 -0.4544  1.2828
 9356TIP3    H249560   0.036   4.359   6.155 -0.9963 -1.3237  0.1519
 9357TIP3   OH249561   5.283   2.910   2.013  0.1135 -0.0906 -0.7487
 9357TIP3    H149562   5.194   2.908   1.978 -0.1386 -0.3986 -0.1020
 9357TIP3    H249563   5.302   3.003   2.025 -0.8220 -0.0524  0.8292
 9358TIP3   OH249564   6.445   1.686   6.160  0.4550 -0.1515 -0.3862
 9358TIP3    H149565   6.353   1.689   6.136  0.5679 -0.3783 -0.8620
 9358TIP3    H249566   6.462   1.595   6.183 -0.2304  0.4452  2.9909
 9359TIP3   OH249567   4.914   6.105  16.731 -0.0660  0.0703 -0.4412
 9359TIP3    H149568   5.006   6.081  16.746 -0.2361  0.2249  0.9780
 9359TIP3    H249569   4.901   6.090  16.637  0.9503 -1.5142 -0.3723
 9360TIP3   OH249570   1.308   3.117  12.953  0.0384 -0.5024  0.5859
 9360TIP3    H149571   1.339   3.169  12.879 -0.8060 -0.2481  0.3984
 9360TIP3    H249572   1.374   3.131  13.021  0.3550 -0.0084  0.1866
 9361TIP3   OH249573   4.500   3.864  12.987  1.3572 -0.0985  0.4558
 9361TIP3    H149574   4.426   3.891  13.042  0.0213  1.1005 -1.7923
 9361TIP3    H249575   4.552   3.944  12.977  1.3962 -0.2144 -0.2943
 9362TIP3   OH249576   1.285   6.325  13.615 -0.3771  0.0782  0.0856
 9362TIP3    H149577   1.352   6.376  13.661  0.2552 -1.0248  0.4373
 9362TIP3    H249578   1.217   6.388  13.593 -0.2637  0.8131  1.7267
 9363TIP3   OH249579   0.295   4.550  11.154 -0.1236  0.1171  0.2187
 9363TIP3    H149580   0.199   4.543  11.149 -0.3000 -1.1376  3.1386
 9363TIP3    H249581   0.327   4.483  11.094 -1.1478 -0.7025  0.5436
 9364TIP3   OH249582   2.658   3.974   2.127  0.0128 -0.6894 -0.1445
 9364TIP3    H149583   2.693   3.885   2.134 -0.0342 -0.6012  1.6936
 9364TIP3    H249584   2.568   3.967   2.159 -0.9043 -0.4290 -2.4488
 9365TIP3   OH249585   6.340   0.728  15.705 -0.0570 -0.3873  0.2508
 9365TIP3    H149586   6.336   0.662  15.636 -1.2553  0.5419 -0.6096
 9365TIP3    H249587   6.265   0.785  15.688  0.7064  0.9628  1.2054
 9366TIP3   OH249588   2.621   4.839   2.358  0.2114 -0.1631 -0.5272
 9366TIP3    H149589   2.603   4.810   2.268 -1.3415 -0.0862 -0.2804
 9366TIP3    H249590   2.535   4.865   2.392  0.9542  0.9200  0.6002
 9367TIP3   OH249591   1.491   3.978  13.739 -0.2570 -0.3239 -0.0932
 9367TIP3    H149592   1.455   3.889  13.740  0.4855 -0.6375  0.8168
 9367TIP3    H249593   1.439   4.024  13.674 -0.0247 -1.6928 -1.3058
 9368TIP3   OH249594   5.936   2.465   3.320  0.0093 -0.0697  0.1495
 9368TIP3    H149595   6.023   2.447   3.356 -0.1996 -2.4560 -0.3754
 9368TIP3    H249596   5.876   2.421   3.380 -1.0323  2.4729  1.1429
 9369TIP3   OH249597   0.651   3.354  11.916  0.0605 -0.0554 -0.0045
 9369TIP3    H149598   0.676   3.263  11.898 -2.4129 -0.8862  0.4128
 9369TIP3    H249599   0.560   3.360  11.887 -0.0130  2.1470  0.5179
 9370TIP3   OH249600   2.562   5.571  16.401  0.0473 -0.2672 -0.1364
 9370TIP3    H149601   2.653   5.544  16.413 -0.1581 -0.6375  0.6627
 9370TIP3    H249602   2.567   5.663  16.375  0.5709  0.7501  3.1388
 9371TIP3   OH249603   6.371   5.585   2.041  0.2815  0.2755 -0.1010
 9371TIP3    H149604   6.356   5.547   2.127 -0.4775  0.9237  0.0649
 9371TIP3    H249605   6.285   5.617   2.014  1.1606  3.4724  0.5413
 9372TIP3   OH249606   0.346   1.945  13.029 -0.5897 -0.0521  0.0255
 9372TIP3    H149607   0.254   1.961  13.049 -0.4132  1.9844 -0.5487
 9372TIP3    H249608   0.354   1.971  12.937  0.6722  0.3998  0.2494
 9373TIP3   OH249609   6.309   1.047   3.746 -0.4311  0.2872  0.2667
 9373TIP3    H149610   6.403   1.042   3.729 -1.0269 -1.0423 -3.7370
 9373TIP3    H249611   6.289   0.966   3.793  0.2870  0.3087  0.6343
 9374TIP3   OH249612   4.669   0.014   4.487  0.0169 -0.5081 -0.3734
 9374TIP3    H149613   4.739  -0.050   4.494 -0.7824 -1.3574  0.1184
 9374TIP3    H249614   4.663   0.053   4.574 -0.8006 -1.1974 -0.1033
 9375TIP3   OH249615   0.874   1.196  15.660 -0.2285 -0.2569  0.0743
 9375TIP3    H149616   0.951   1.253  15.654  0.8984 -1.6395  0.8338
 9375TIP3    H249617   0.864   1.179  15.753  0.2949 -2.3316 -0.1915
 9376TIP3   OH249618   1.052   0.814   1.413  0.1300 -0.3329 -0.1976
 9376TIP3    H149619   1.101   0.815   1.495  0.6227  0.6751 -0.4824
 9376TIP3    H249620   0.972   0.765   1.432  0.7530 -1.0661  0.5740
 9377TIP3   OH249621   3.481   2.411  16.265 -0.3766 -0.0112  0.4577
 9377TIP3    H149622   3.489   2.342  16.331  0.2385  1.2442  1.7527
 9377TIP3    H249623   3.541   2.480  16.294 -1.5211  1.4047 -0.3568
 9378TIP3   OH249624   3.873   2.678  11.367 -0.1711 -0.1337  0.2052
 9378TIP3    H149625   3.857   2.765  11.402  0.3905  0.3757 -0.7625
 9378TIP3    H249626   3.881   2.691  11.272  1.7503 -0.9409  0.2182
 9379TIP3   OH249627   0.976   6.348   3.289  0.6385  0.0401  0.5690
 9379TIP3    H149628   0.896   6.399   3.276 -0.3817 -1.3131  1.2782
 9379TIP3    H249629   1.047   6.412   3.282 -0.4328  1.1336 -0.9533
 9380TIP3   OH249630   1.147   5.630  16.673  0.5256 -0.3709  0.7398
 9380TIP3    H149631   1.191   5.693  16.730 -0.5805  2.6118 -1.4589
 9380TIP3    H249632   1.066   5.608  16.719  0.2173  1.0410  0.9099
 9381TIP3   OH249633   0.439   5.956   5.872 -0.1304  0.4626  0.7013
 9381TIP3    H149634   0.499   6.023   5.839 -0.6368 -0.3564 -2.1550
 9381TIP3    H249635   0.479   5.873   5.845 -1.1815 -0.2311  1.2115
 9382TIP3   OH249636   4.014   3.441  14.172  0.0168  0.0919 -0.1558
 9382TIP3    H149637   3.994   3.534  14.160  1.6000  0.4915  0.1280
 9382TIP3    H249638   4.026   3.431  14.266  1.1207 -0.1186 -0.3112
 9383TIP3   OH249639   4.093   4.102  15.136 -0.3174 -0.2746  0.4465
 9383TIP3    H149640   4.037   4.157  15.190 -2.6103 -0.8321 -1.2091
 9383TIP3    H249641   4.122   4.160  15.065  1.0907 -0.0593  1.1523
 9384TIP3   OH249642   4.540   0.643  15.427 -0.2894 -0.4849 -0.4247
 9384TIP3    H149643   4.486   0.693  15.366 -1.0751 -1.7328 -0.7844
 9384TIP3    H249644   4.478   0.607  15.491  0.1188 -1.7186 -0.6865
 9385TIP3   OH249645   2.511   5.108  17.171  0.1702  0.0493 -0.6883
 9385TIP3    H149646   2.466   5.125  17.254 -0.3194 -1.4720 -0.6148
 9385TIP3    H249647   2.467   5.165  17.108 -0.7974 -0.2410 -0.2954
 9386TIP3   OH249648   2.075   0.789   4.268  0.3564 -0.0816  0.3693
 9386TIP3    H149649   2.078   0.724   4.338  2.5075 -2.2461 -1.5283
 9386TIP3    H249650   1.983   0.815   4.263 -0.5534 -2.7150  1.4657
 9387TIP3   OH249651   2.315   2.438  13.632 -0.1204  0.5507  0.1162
 9387TIP3    H149652   2.221   2.444  13.612  0.1909  0.9974 -1.2562
 9387TIP3    H249653   2.337   2.346  13.619  0.0952  0.8411 -1.7767
 9388TIP3   OH249654   4.195   3.157   2.854 -0.2706  0.2488  0.4285
 9388TIP3    H149655   4.282   3.120   2.845 -0.4389  0.1455 -1.0281
 9388TIP3    H249656   4.208   3.252   2.849 -0.3383  0.2032 -1.0509
 9389TIP3   OH249657   3.029   2.336  13.811  0.1074 -0.0783  0.1806
 9389TIP3    H149658   2.994   2.312  13.897  0.0360  0.2163  0.2335
 9389TIP3    H249659   2.965   2.398  13.776  1.2439  1.4934  0.8341
 9390TIP3   OH249660   6.674   1.964  14.939  0.3508 -0.1856  0.2451
 9390TIP3    H149661   6.761   1.983  14.973  0.3993 -0.3068  0.1886
 9390TIP3    H249662   6.682   1.973  14.844  0.3003 -0.1880  0.2402
 9391TIP3   OH249663   1.267   5.457  13.151  0.4346 -0.0345  0.0083
 9391TIP3    H149664   1.192   5.408  13.185  1.1423 -0.1371  1.5017
 9391TIP3    H249665   1.287   5.520  13.220  0.5041  1.3408 -1.2337
 9392TIP3   OH249666   3.132   0.663   4.453  0.0872  0.7375  0.1226
 9392TIP3    H149667   3.166   0.740   4.407 -0.8552  1.0322 -0.0934
 9392TIP3    H249668   3.198   0.595   4.437  1.1458  1.5882  0.6645
 9393TIP3   OH249669   3.820   0.989   2.094  0.5649  0.3127  0.2719
 9393TIP3    H149670   3.753   1.054   2.114 -0.6423 -0.9768  0.5500
 9393TIP3    H249671   3.839   0.948   2.178  0.2911 -0.6268 -0.1131
 9394TIP3   OH249672   0.900   3.666   4.347  0.1292 -0.0661  0.2690
 9394TIP3    H149673   0.955   3.731   4.390 -0.6400  0.3359  0.6707
 9394TIP3    H249674   0.946   3.645   4.266  0.6879  0.5325  0.4258
 9395TIP3   OH249675   5.941   5.128   0.047 -0.0602 -0.2776  0.0249
 9395TIP3    H149676   5.874   5.061   0.060 -0.4129 -0.1397 -1.0036
 9395TIP3    H249677   5.983   5.105  -0.036  0.2982  0.3697  0.0174
 9396TIP3   OH249678   0.280   4.652   0.521 -0.0677  0.0122  0.2065
 9396TIP3    H149679   0.309   4.573   0.476  1.0801  1.2011 -1.2536
 9396TIP3    H249680   0.268   4.625   0.612  1.8296 -1.4750  0.0676
 9397TIP3   OH249681   4.485   6.229  15.766 -0.2707 -0.1558  0.5950
 9397TIP3    H149682   4.448   6.141  15.773 -2.2480  0.5082 -0.5609
 9397TIP3    H249683   4.482   6.249  15.672  0.2945  1.0783  0.8138
 9398TIP3   OH249684   3.644   3.632  14.655 -0.0636  0.0474 -0.4123
 9398TIP3    H149685   3.664   3.709  14.709  0.7849  1.0193 -2.0460
 9398TIP3    H249686   3.587   3.578  14.710  0.3238  1.2497  1.2331
 9399TIP3   OH249687   5.874   5.906  16.487 -0.1751  0.0840  0.1997
 9399TIP3    H149688   5.900   5.835  16.428 -0.2651  0.3056 -0.1124
 9399TIP3    H249689   5.834   5.971  16.429 -2.0193 -0.5118  0.7299
 9400TIP3   OH249690   1.701   1.146   3.146  0.0088  0.1836  0.1376
 9400TIP3    H149691   1.622   1.093   3.148  0.1787 -0.1413  2.8269
 9400TIP3    H249692   1.772   1.083   3.160  0.3938  0.8349  1.2703
 9401TIP3   OH249693   2.296   3.426   2.166  0.1956 -0.4752 -0.5681
 9401TIP3    H149694   2.299   3.402   2.074 -0.5119 -1.1452 -0.4305
 9401TIP3    H249695   2.380   3.469   2.183  0.3210 -0.3212 -1.5242
 9402TIP3   OH249696   2.624   2.488   2.003  0.3251 -0.3635  0.1597
 9402TIP3    H149697   2.548   2.534   2.040  1.4368  0.7215  1.2140
 9402TIP3    H249698   2.589   2.436   1.931 -1.1295  1.6756 -0.7003
 9403TIP3   OH249699   1.879   3.216   2.623  0.3584  0.4629  0.4102
 9403TIP3    H149700   1.943   3.165   2.673 -0.0680  1.4500  2.0372
 9403TIP3    H249701   1.851   3.158   2.552  1.6891 -0.6367  0.7483
 9404TIP3   OH249702   0.832   5.777   0.627  0.3448 -0.0156 -0.0798
 9404TIP3    H149703   0.830   5.869   0.655  0.3126 -0.0837  0.1376
 9404TIP3    H249704   0.889   5.778   0.549 -0.4301  0.3448 -0.6550
 9405TIP3   OH249705   1.011   3.263  15.601 -0.1890 -0.4724  0.6002
 9405TIP3    H149706   1.096   3.267  15.644 -0.4601 -2.2972  1.3706
 9405TIP3    H249707   1.015   3.185  15.546 -1.4747 -0.7829  0.9007
 9406TIP3   OH249708   1.215   0.955  11.434 -0.3605 -0.2083  0.0922
 9406TIP3    H149709   1.300   0.945  11.477 -0.0391  1.9369  0.0627
 9406TIP3    H249710   1.224   0.908  11.351  1.5350  1.6091 -0.8319
 9407TIP3   OH249711   3.646   4.668   2.876  0.2576 -0.0643  0.0708
 9407TIP3    H149712   3.584   4.619   2.930 -0.2074  1.9339  1.4920
 9407TIP3    H249713   3.593   4.708   2.808  0.3294 -0.0393  0.0294
 9408TIP3   OH249714   4.824   1.821   1.482 -0.0495  0.1638  0.2922
 9408TIP3    H149715   4.807   1.867   1.400 -0.7041 -1.3839 -0.4957
 9408TIP3    H249716   4.836   1.890   1.547 -1.0336  1.4112 -0.8051
 9409TIP3   OH249717   1.918   3.765   2.976  0.2308  0.3977  0.5727
 9409TIP3    H149718   1.988   3.765   2.910  2.3971  1.8906  2.7017
 9409TIP3    H249719   1.941   3.694   3.035  0.1923  1.1116  1.4751
 9410TIP3   OH249720   2.063   3.021   3.160 -0.1663  0.4788 -0.0487
 9410TIP3    H149721   2.123   3.047   3.230  0.9858 -0.7485 -0.5417
 9410TIP3    H249722   2.098   2.937   3.128 -0.9627  0.7453 -1.7280
 9411TIP3   OH249723   1.916   3.234   0.447 -0.3149 -0.0480  0.2071
 9411TIP3    H149724   1.967   3.161   0.413 -1.7665 -0.6519 -0.8079
 9411TIP3    H249725   1.841   3.193   0.490 -0.1351  0.8085  1.3644
 9412TIP3   OH249726   4.784   6.504   5.875  0.2346 -0.2399 -0.6926
 9412TIP3    H149727   4.820   6.540   5.956  0.3536 -2.7344  0.4324
 9412TIP3    H249728   4.826   6.555   5.805 -0.3877  2.4332  0.7612
 9413TIP3   OH249729   1.407   2.889  13.311 -0.0114  0.1430  0.8619
 9413TIP3    H149730   1.333   2.919  13.259  1.1043  1.8312  0.1681
 9413TIP3    H249731   1.420   2.798  13.283 -0.3545  0.5579 -0.7682
 9414TIP3   OH249732   2.086   2.843  14.695  0.1299 -0.7836  0.3881
 9414TIP3    H149733   2.167   2.830  14.646 -0.1690 -1.5100  0.0682
 9414TIP3    H249734   2.024   2.782  14.655 -1.2369  1.2995 -0.8597
 9415TIP3   OH249735   2.393   1.802  15.651  0.1178  0.0234  0.1993
 9415TIP3    H149736   2.318   1.859  15.640  0.5184  0.7726  1.2339
 9415TIP3    H249737   2.466   1.861  15.669  0.4843 -0.8071  1.5972
 9416TIP3   OH249738   4.378   3.291   2.318 -0.3317  0.2267 -0.0710
 9416TIP3    H149739   4.329   3.218   2.357 -0.3272 -0.1890 -0.8322
 9416TIP3    H249740   4.461   3.293   2.366  0.0895 -0.9259 -0.7193
 9417TIP3   OH249741   4.316   5.429   1.686 -0.7274  0.2489  0.0165
 9417TIP3    H149742   4.251   5.412   1.754 -0.3691 -0.0643  0.2838
 9417TIP3    H249743   4.366   5.348   1.680 -2.2661 -0.6187 -2.3037
 9418TIP3   OH249744   5.435   0.940   1.388 -0.2172 -0.3807  1.0695
 9418TIP3    H149745   5.363   0.941   1.325  0.2698 -1.5051  0.4578
 9418TIP3    H249746   5.513   0.955   1.335  0.2092 -1.4921  1.3639
 9419TIP3   OH249747   4.009   6.196  14.502 -0.6618 -0.3037  0.3134
 9419TIP3    H149748   3.975   6.169  14.417  0.0157 -0.5883  0.1318
 9419TIP3    H249749   4.079   6.134  14.521  0.7308  1.1206  0.0190
 9420TIP3   OH249750   1.426   0.562  13.518  0.0782 -0.4294  0.2338
 9420TIP3    H149751   1.483   0.490  13.493  2.6718  1.1691  1.1292
 9420TIP3    H249752   1.413   0.551  13.612 -0.6584 -0.4503  0.1402
 9421TIP3   OH249753   2.606   0.958  16.989 -0.2556  0.4389 -0.1286
 9421TIP3    H149754   2.601   0.995  16.901 -0.1756  0.4124 -0.1444
 9421TIP3    H249755   2.693   0.918  16.994 -0.6208 -0.3821 -0.3555
 9422TIP3   OH249756   5.867   1.419   6.270 -0.5301 -0.4492 -0.0898
 9422TIP3    H149757   5.881   1.513   6.254 -2.0100 -0.4326 -1.6054
 9422TIP3    H249758   5.845   1.384   6.184  1.9276 -2.6138  0.0757
 9423TIP3   OH249759   6.013   0.834  14.353 -0.2985  0.6453 -1.0619
 9423TIP3    H149760   5.955   0.764  14.322 -0.5980  0.0373  0.7528
 9423TIP3    H249761   6.008   0.901  14.285 -2.2622  0.1210 -1.5039
 9424TIP3   OH249762   2.970   3.735   5.240  0.1143 -0.6147  0.3410
 9424TIP3    H149763   3.008   3.753   5.154 -1.5454  0.5233 -0.2026
 9424TIP3    H249764   2.875   3.736   5.225 -0.1893 -2.0913  1.8763
 9425TIP3   OH249765   3.366   1.521   1.959  0.1245 -0.1276 -0.0430
 9425TIP3    H149766   3.440   1.505   2.017  0.4952  2.2818  0.2302
 9425TIP3    H249767   3.360   1.616   1.952 -1.1352 -0.3005 -2.4189
 9426TIP3   OH249768   3.164   5.265  12.561  0.2797 -0.0089 -0.3710
 9426TIP3    H149769   3.189   5.179  12.595  2.1494  0.0478 -1.4862
 9426TIP3    H249770   3.107   5.247  12.487  1.8990 -0.3771 -1.5654
 9427TIP3   OH249771   5.214   0.283   4.611  0.5245  0.1098 -0.3720
 9427TIP3    H149772   5.290   0.248   4.565  0.3560  0.2270 -0.7389
 9427TIP3    H249773   5.139   0.255   4.559  0.2139 -1.1403  0.6990
 9428TIP3   OH249774   2.124   1.406   4.581  0.0754  0.3265 -0.1778
 9428TIP3    H149775   2.097   1.386   4.491  0.1392 -2.9467  0.4453
 9428TIP3    H249776   2.218   1.425   4.575  0.8011 -2.9165 -0.5055
 9429TIP3   OH249777   4.130   2.997  16.471  0.2625 -0.0872 -0.1041
 9429TIP3    H149778   4.059   2.960  16.524  0.1453 -0.6131 -0.6250
 9429TIP3    H249779   4.181   2.921  16.443  1.2942  0.3155  0.6294
 9430TIP3   OH249780   2.325   4.498   1.106  0.0312 -0.5574  0.0579
 9430TIP3    H149781   2.361   4.541   1.184 -2.9915  2.0769  0.1946
 9430TIP3    H249782   2.331   4.565   1.037 -0.9715 -1.4320 -0.9139
 9431TIP3   OH249783   5.691   6.745   3.635 -0.0331 -0.0458  0.6349
 9431TIP3    H149784   5.748   6.708   3.703  0.5484  0.7454  0.5981
 9431TIP3    H249785   5.715   6.697   3.556  0.1743 -0.1181  0.7386
 9432TIP3   OH249786   1.312   1.343  15.189  0.2720 -0.0372  0.3364
 9432TIP3    H149787   1.385   1.329  15.128  1.8075  1.3828  1.7770
 9432TIP3    H249788   1.320   1.272  15.252  0.6272  0.3257  0.6995
 9433TIP3   OH249789   0.182   0.667  13.833 -0.0621  0.4440 -0.7983
 9433TIP3    H149790   0.172   0.577  13.864 -0.7188  0.2771 -1.4707
 9433TIP3    H249791   0.206   0.717  13.911 -1.3742 -0.0167 -0.0705
 9434TIP3   OH249792   3.821   2.991  15.654 -0.0577 -0.3463  0.0577
 9434TIP3    H149793   3.762   2.998  15.729 -0.6036 -0.9466 -0.3092
 9434TIP3    H249794   3.881   2.921  15.678  1.1748  0.9194  0.8605
 9435TIP3   OH249795   1.090   4.493  11.340 -0.0675 -0.7141  0.1593
 9435TIP3    H149796   1.121   4.403  11.355 -0.4442 -0.9891 -0.6441
 9435TIP3    H249797   1.008   4.482  11.291  1.5282  0.0923 -2.9982
 9436TIP3   OH249798   4.201   3.041   0.905  0.0333  0.1168  0.6239
 9436TIP3    H149799   4.281   3.094   0.914  1.0851 -1.3151  0.1157
 9436TIP3    H249800   4.215   2.968   0.965 -0.3763 -0.7581 -0.3289
 9437TIP3   OH249801   1.687   0.651  14.654  0.2104 -0.1344 -0.1828
 9437TIP3    H149802   1.685   0.746  14.643 -1.1591 -0.2910 -1.6087
 9437TIP3    H249803   1.595   0.626  14.663  0.2866 -1.5953 -2.6517
 9438TIP3   OH249804   6.726   6.710   2.044 -0.5085  0.4172  0.3736
 9438TIP3    H149805   6.683   6.632   2.009  2.9361 -0.4260 -2.5350
 9438TIP3    H249806   6.730   6.771   1.970  0.9492  1.4556  1.2401
 9439TIP3   OH249807   0.087   0.418  13.910 -0.6790 -0.0583  0.4044
 9439TIP3    H149808   0.002   0.378  13.929 -0.1015 -2.0008 -0.7395
 9439TIP3    H249809   0.151   0.352  13.939  0.3709  0.6313 -0.2719
 9440TIP3   OH249810   3.686   6.431   1.594 -0.0756  0.3233  0.3860
 9440TIP3    H149811   3.763   6.487   1.586  0.0295  0.0244 -0.9842
 9440TIP3    H249812   3.715   6.346   1.562 -0.6917 -0.0878  0.8872
 9441TIP3   OH249813   2.498   1.810  16.551 -0.1771  0.7013  0.2053
 9441TIP3    H149814   2.442   1.740  16.583  0.7618 -0.8718 -1.4269
 9441TIP3    H249815   2.448   1.890  16.567 -1.1784 -0.2627  2.3402
 9442TIP3   OH249816   1.455   2.685  15.659 -0.1709 -0.3397  0.0547
 9442TIP3    H149817   1.380   2.742  15.676 -0.7344 -0.9869 -0.2425
 9442TIP3    H249818   1.442   2.610  15.717  0.2036 -0.4932 -0.0562
 9443TIP3   OH249819   5.896   4.854   4.374  0.0505 -0.5016  0.3547
 9443TIP3    H149820   5.910   4.762   4.396  0.5477 -0.6133 -0.3869
 9443TIP3    H249821   5.801   4.864   4.371 -0.0054 -1.0835  0.0648
 9444TIP3   OH249822   4.634   6.761   5.612  0.4708 -0.0257  0.3163
 9444TIP3    H149823   4.547   6.722   5.613 -0.0117  0.9960 -0.1513
 9444TIP3    H249824   4.646   6.795   5.701  0.4712 -0.3265  0.4324
 9445TIP3   OH249825   3.777   5.793  16.090  0.5769  0.4474  0.2816
 9445TIP3    H149826   3.849   5.816  16.032  0.3202  0.4125 -0.0521
 9445TIP3    H249827   3.800   5.705  16.123  0.4573  0.2359 -0.1929
 9446TIP3   OH249828   6.527   3.173  12.054  1.2598  0.7800  0.2958
 9446TIP3    H149829   6.560   3.087  12.078  1.2626  0.7718  0.2611
 9446TIP3    H249830   6.497   3.164  11.964 -0.4550  0.3008  0.8593
 9447TIP3   OH249831   0.848   2.449  11.634 -0.1168  0.1662  0.0420
 9447TIP3    H149832   0.769   2.396  11.635 -1.2097  1.6744  2.2513
 9447TIP3    H249833   0.918   2.387  11.656 -0.5761 -1.2031 -2.0214
 9448TIP3   OH249834   3.978   6.629  11.470  0.1279 -0.0330 -0.0484
 9448TIP3    H149835   4.005   6.709  11.425 -0.4510 -1.0792 -2.4281
 9448TIP3    H249836   4.048   6.611  11.531  1.3575  1.1118 -1.0636
 9449TIP3   OH249837   1.431   6.511  14.106  0.5662  0.4374  0.6109
 9449TIP3    H149838   1.377   6.446  14.150 -0.8663  0.9226 -0.3506
 9449TIP3    H249839   1.521   6.481  14.119  0.0165 -0.9276  1.4245
 9450TIP3   OH249840   2.645   2.751   2.939 -0.4540 -0.5778  0.4287
 9450TIP3    H149841   2.608   2.717   3.020 -0.9400 -0.9610  0.0476
 9450TIP3    H249842   2.628   2.845   2.943 -1.1751 -0.7013  0.4189
 9451TIP3   OH249843   4.425   4.941  13.592 -0.3078  0.2557 -0.4139
 9451TIP3    H149844   4.434   4.897  13.508  1.8192  2.3127 -1.3475
 9451TIP3    H249845   4.458   4.877  13.656 -3.3482 -1.9229 -0.7922
 9452TIP3   OH249846   2.114   2.797   5.443 -0.3427  0.9845 -0.1183
 9452TIP3    H149847   2.193   2.766   5.398 -0.3087 -0.1069  0.6427
 9452TIP3    H249848   2.138   2.883   5.478  0.6430  0.5140  0.4078
 9453TIP3   OH249849   1.400   3.137  13.687 -0.3705 -0.3674  0.3836
 9453TIP3    H149850   1.360   3.224  13.686  0.9187  0.2481 -1.0587
 9453TIP3    H249851   1.377   3.099  13.602  1.8042 -0.0886 -0.4009
 9454TIP3   OH249852   4.593   4.766  14.751 -0.2367 -0.1969 -0.1435
 9454TIP3    H149853   4.614   4.774  14.658 -0.4890  0.2014 -0.1682
 9454TIP3    H249854   4.677   4.776  14.796 -0.4132  1.9178 -0.2079
 9455TIP3   OH249855   4.599   6.169  11.573 -0.1386 -0.1484  0.1523
 9455TIP3    H149856   4.599   6.176  11.477  0.7773  2.3832  0.2653
 9455TIP3    H249857   4.607   6.075  11.590 -0.2952 -0.6637 -2.2396
 9456TIP3   OH249858   3.898   0.197   0.012 -0.2037  0.3830  0.5188
 9456TIP3    H149859   3.819   0.151   0.038 -0.0037 -0.9082 -0.9698
 9456TIP3    H249860   3.876   0.237  -0.073  0.5426  0.5296  0.3821
 9457TIP3   OH249861   5.026   2.527  12.837 -0.0213 -0.1936  0.2636
 9457TIP3    H149862   5.060   2.445  12.872 -0.3010 -0.8780 -0.9998
 9457TIP3    H249863   5.074   2.540  12.755 -1.0395  0.1078 -0.3064
 9458TIP3   OH249864   0.061   6.826  13.842  0.1088  0.3886  0.1765
 9458TIP3    H149865  -0.014   6.775  13.811  1.1550 -1.0964  0.0105
 9458TIP3    H249866   0.098   6.774  13.913  2.9073 -0.6194 -1.8609
 9459TIP3   OH249867   2.483   4.567  10.534 -1.0397 -0.1790 -0.7654
 9459TIP3    H149868   2.404   4.528  10.496 -1.2594 -0.8843  0.3744
 9459TIP3    H249869   2.524   4.495  10.582 -0.5400  0.5800 -0.0360
 9460TIP3   OH249870   1.441   6.171   3.576 -0.3993 -0.3591  0.1722
 9460TIP3    H149871   1.491   6.105   3.527 -0.4199 -0.9051  0.8728
 9460TIP3    H249872   1.392   6.121   3.641 -2.0354  0.1378 -0.6184
 9461TIP3   OH249873   3.196   1.016   3.934 -0.0065  0.1691  0.2919
 9461TIP3    H149874   3.111   1.021   3.980 -0.1773  0.8602 -0.0828
 9461TIP3    H249875   3.238   1.100   3.954 -0.6911  1.1114 -1.9621
 9462TIP3   OH249876   3.151   5.747   4.414 -0.0262  0.1627 -0.2733
 9462TIP3    H149877   3.234   5.700   4.407  0.6392  1.1155  0.8007
 9462TIP3    H249878   3.167   5.814   4.481 -2.5975 -1.6866  2.4847
 9463TIP3   OH249879   3.860   3.809   1.318 -0.1911  0.7843 -0.7711
 9463TIP3    H149880   3.925   3.872   1.288 -1.0973  2.7436  1.0527
 9463TIP3    H249881   3.893   3.779   1.403 -0.8696  0.5599 -0.5815
 9464TIP3   OH249882   5.674   6.642  12.616  0.8421 -0.2664 -0.4779
 9464TIP3    H149883   5.748   6.700  12.632  0.5747 -0.5933  2.4125
 9464TIP3    H249884   5.599   6.700  12.605  0.8327  0.0185  0.9188
 9465TIP3   OH249885   2.627   4.587  16.706 -0.3176 -0.8109  0.4831
 9465TIP3    H149886   2.681   4.509  16.700  0.0233 -0.8042  2.7533
 9465TIP3    H249887   2.555   4.563  16.765 -0.3743  0.4859  0.9899
 9466TIP3   OH249888   6.052   3.771   5.418  0.7531 -0.2053  0.3340
 9466TIP3    H149889   5.977   3.747   5.473 -1.1982  2.0737 -1.1592
 9466TIP3    H249890   6.032   3.736   5.332  1.4439  0.3910 -0.0867
 9467TIP3   OH249891   0.718   0.158  11.213 -0.5304  0.4285 -0.1487
 9467TIP3    H149892   0.751   0.243  11.243  0.8047 -0.4987  1.1784
 9467TIP3    H249893   0.762   0.144  11.129  1.1143  0.0625  0.7185
 9468TIP3   OH249894   0.610   2.035   5.584  0.4130  0.1185 -0.1967
 9468TIP3    H149895   0.678   2.012   5.648  0.9455  1.0171 -0.4191
 9468TIP3    H249896   0.577   2.120   5.613  0.7255  0.5850 -1.1570
 9469TIP3   OH249897   4.215   1.970  15.524  0.2636 -0.0130 -0.4235
 9469TIP3    H149898   4.284   1.904  15.539  0.2921  0.1400  0.1448
 9469TIP3    H249899   4.134   1.920  15.528  0.3505 -0.2633 -1.4939
 9470TIP3   OH249900   1.179   3.431   4.197 -0.6000 -0.1372  0.4164
 9470TIP3    H149901   1.261   3.415   4.244 -0.6087  1.2333  0.9638
 9470TIP3    H249902   1.166   3.353   4.143 -0.1878 -1.4427  2.1180
 9471TIP3   OH249903   4.335   2.458   4.843 -0.2027 -0.3547 -0.4572
 9471TIP3    H149904   4.317   2.551   4.830 -0.2572 -0.4349 -0.9811
 9471TIP3    H249905   4.275   2.413   4.783 -0.0908 -0.7213 -0.2986
 9472TIP3   OH249906   6.694   2.222  16.853 -0.0469 -0.5746 -0.0093
 9472TIP3    H149907   6.609   2.231  16.810 -1.2000 -1.4522  1.9209
 9472TIP3    H249908   6.673   2.192  16.942  2.2475 -0.0897  0.7845
 9473TIP3   OH249909   6.013   5.383   2.117 -0.1786 -0.1692 -0.1917
 9473TIP3    H149910   6.057   5.354   2.196 -0.4847  0.5889  0.2677
 9473TIP3    H249911   5.994   5.302   2.069 -0.5087 -0.6800  0.7773
 9474TIP3   OH249912   5.623   0.627   1.090 -0.6946  0.0215  0.5550
 9474TIP3    H149913   5.703   0.678   1.085 -0.5630 -0.2585 -0.6731
 9474TIP3    H249914   5.596   0.617   0.998 -1.3712 -1.0626  0.8554
 9475TIP3   OH249915   5.553   1.165   4.649 -0.9047  0.2635 -0.2347
 9475TIP3    H149916   5.498   1.214   4.587 -3.1719  0.0861  1.4979
 9475TIP3    H249917   5.547   1.214   4.731  2.8190  1.0408 -0.2511
 9476TIP3   OH249918   5.994   5.249  12.708  0.0697  0.0315  0.3503
 9476TIP3    H149919   6.022   5.340  12.719 -1.3387  0.7154 -1.2864
 9476TIP3    H249920   5.929   5.252  12.637  0.1164 -2.2789  0.1341
 9477TIP3   OH249921   3.449   2.384  11.560  0.2680  0.0107  0.0076
 9477TIP3    H149922   3.385   2.453  11.577 -0.7670 -0.8579 -0.2760
 9477TIP3    H249923   3.462   2.341  11.644  0.7412  0.3757  0.1330
 9478TIP3   OH249924   5.537   4.653  11.319  0.3880  0.4184  0.2967
 9478TIP3    H149925   5.501   4.578  11.271  0.8334  1.2938 -1.4678
 9478TIP3    H249926   5.474   4.669  11.390 -1.3740  0.3331 -1.1889
 9479TIP3   OH249927   6.578   5.132   1.813 -0.0496  0.2023 -0.0150
 9479TIP3    H149928   6.666   5.123   1.776 -0.7448  0.1234 -1.7702
 9479TIP3    H249929   6.586   5.103   1.903  1.6685 -0.0366 -0.2137
 9480TIP3   OH249930   5.138   6.028   3.084  0.3268 -0.2842  0.4114
 9480TIP3    H149931   5.165   6.082   3.010 -1.2068  1.3243  0.9576
 9480TIP3    H249932   5.160   6.081   3.161 -1.4101 -0.3200  0.9635
 9481TIP3   OH249933   4.142   4.451   4.311 -0.6774  0.2494 -0.0459
 9481TIP3    H149934   4.148   4.442   4.406  0.6232  0.4104 -0.1013
 9481TIP3    H249935   4.133   4.361   4.279 -3.4231  0.3133  0.3306
 9482TIP3   OH249936   0.758   3.901  13.359 -0.2183 -0.4695 -1.0551
 9482TIP3    H149937   0.684   3.953  13.391 -0.9115 -2.1867  0.2586
 9482TIP3    H249938   0.722   3.813  13.345  1.5438 -1.3524 -0.4131
 9483TIP3   OH249939   5.048   3.128  15.329  0.1275 -0.4510  0.3029
 9483TIP3    H149940   5.066   3.048  15.378  0.6312 -0.8421 -0.5068
 9483TIP3    H249941   5.031   3.194  15.397  0.4425 -1.0668  0.9947
 9484TIP3   OH249942   4.580   2.458   2.822  0.4826  0.0914  0.7476
 9484TIP3    H149943   4.578   2.426   2.913 -2.1602 -1.0125  0.3867
 9484TIP3    H249944   4.666   2.431   2.789  0.1776 -2.6029  1.9153
 9485TIP3   OH249945   4.755   0.246  14.374 -0.1768  0.4741  0.2056
 9485TIP3    H149946   4.809   0.258  14.452 -0.2066  3.0590 -0.1090
 9485TIP3    H249947   4.671   0.288  14.395 -0.5598  0.2769 -0.8429
 9486TIP3   OH249948   0.475   0.085  12.979  0.3064 -0.4759  0.0741
 9486TIP3    H149949   0.475   0.037  13.061  0.3192  0.9068  0.9134
 9486TIP3    H249950   0.400   0.050  12.930 -0.0310 -0.9293  0.9071
 9487TIP3   OH249951   0.621   4.848  13.444  0.1331 -0.0156 -0.3260
 9487TIP3    H149952   0.587   4.822  13.359 -1.3664 -0.6094  0.4288
 9487TIP3    H249953   0.693   4.787  13.461 -0.4802 -0.8228 -0.5506
 9488TIP3   OH249954   2.514   2.892   0.209 -0.3015  0.0485 -0.1133
 9488TIP3    H149955   2.532   2.932   0.294 -0.5842  0.7024 -0.3533
 9488TIP3    H249956   2.586   2.831   0.195  0.6414  1.1565 -0.1623
 9489TIP3   OH249957   6.435   0.198   3.512  0.0869 -0.1117 -0.8548
 9489TIP3    H149958   6.434   0.221   3.605  1.4937  0.6511 -1.0043
 9489TIP3    H249959   6.345   0.214   3.482  0.0678  1.4491 -0.0533
 9490TIP3   OH249960   0.199   0.518  13.392 -0.0788  0.7073 -0.0632
 9490TIP3    H149961   0.138   0.581  13.429  1.2161  1.6920  0.4533
 9490TIP3    H249962   0.145   0.465  13.332 -1.3183  1.8679 -0.0229
 9491TIP3   OH249963   2.052   2.408   3.846  0.3039  0.0515  0.2949
 9491TIP3    H149964   2.127   2.466   3.827 -0.3151  1.1948  1.1693
 9491TIP3    H249965   1.975   2.460   3.822 -0.2756 -0.3136  1.2971
 9492TIP3   OH249966   4.055   5.127  13.552 -0.4718 -0.0651  0.2326
 9492TIP3    H149967   4.018   5.068  13.618 -0.1771  0.8181  1.2262
 9492TIP3    H249968   4.072   5.071  13.476 -0.3071 -1.2312  1.0983
 9493TIP3   OH249969   5.560   3.871   0.968  0.3112 -0.0055  0.2943
 9493TIP3    H149970   5.554   3.791   0.917  1.4813 -0.5510  0.9840
 9493TIP3    H249971   5.634   3.919   0.931  1.6502 -0.7535  1.9053
 9494TIP3   OH249972   6.315   0.132  10.881 -0.8363 -0.6461  0.2035
 9494TIP3    H149973   6.367   0.201  10.841 -0.5695 -0.7675  0.3381
 9494TIP3    H249974   6.341   0.052  10.835 -0.8823 -0.7114  0.2887
 9495TIP3   OH249975   1.704   2.010  12.872 -0.2103 -0.0720  0.0336
 9495TIP3    H149976   1.650   1.999  12.950 -0.3378  2.2723  0.3397
 9495TIP3    H249977   1.651   2.063  12.813  0.7821  0.1360 -0.7007
 9496TIP3   OH249978   0.590   5.460  14.044  0.4807  0.2778  0.4770
 9496TIP3    H149979   0.685   5.459  14.059  0.4347 -1.3451  0.7428
 9496TIP3    H249980   0.566   5.369  14.030 -1.1130  0.6234  0.7493
 9497TIP3   OH249981   5.442   4.528  12.994  0.8884  0.5024 -0.2264
 9497TIP3    H149982   5.426   4.449  13.045  0.7225  0.8734  0.3087
 9497TIP3    H249983   5.537   4.529  12.980  0.8887  0.2025 -0.2430
 9498TIP3   OH249984   4.297   1.475  15.457  0.2222 -0.0336 -0.5976
 9498TIP3    H149985   4.216   1.430  15.480  1.7225 -2.7792 -0.3112
 9498TIP3    H249986   4.281   1.508  15.369 -1.2024 -0.5156 -0.5532
 9499TIP3   OH249987   4.208   1.581  11.516  0.3202  0.0232  0.0320
 9499TIP3    H149988   4.228   1.504  11.568 -0.7678  2.0801  3.9059
 9499TIP3    H249989   4.116   1.600  11.535 -0.0758  1.1381 -2.5061
 9500TIP3   OH249990   2.091   5.724  11.616  0.1734  0.3301 -0.6106
 9500TIP3    H149991   2.106   5.693  11.527 -2.1870 -0.2205 -0.8866
 9500TIP3    H249992   2.116   5.650  11.672  0.5738  0.2516 -0.8944
 9501TIP3   OH249993   0.689   0.630  16.046 -0.0667 -0.2644  0.1598
 9501TIP3    H149994   0.765   0.575  16.028  1.1830  0.8643  1.8153
 9501TIP3    H249995   0.614   0.570  16.036  1.1179 -1.7903  0.0758
 9502TIP3   OH249996   1.115   5.710   4.477 -0.1151 -0.0787  0.6953
 9502TIP3    H149997   1.065   5.649   4.531 -2.0574  0.0348 -0.8919
 9502TIP3    H249998   1.052   5.776   4.450  1.0667  0.5242 -0.7287
 9503TIP3   OH249999   1.579   6.327   6.403  0.6418  0.4160  0.9415
 9503TIP3    H150000   1.510   6.267   6.374  2.3199 -1.4740  0.6799
 9503TIP3    H250001   1.543   6.369   6.481 -0.7822 -0.5591  0.8475
 9504TIP3   OH250002   3.130   1.335  16.738 -0.4588 -0.0720  0.5742
 9504TIP3    H150003   3.212   1.292  16.713  0.1357  1.6926 -0.6673
 9504TIP3    H250004   3.148   1.429  16.730 -2.8339  0.3642 -0.5605
 9505TIP3   OH250005   2.317   3.552   0.408 -0.0104  0.0356 -0.0975
 9505TIP3    H150006   2.231   3.591   0.424 -0.1293 -0.1821 -0.2024
 9505TIP3    H250007   2.357   3.610   0.343 -0.9055 -1.0028 -1.6407
 9506TIP3   OH250008   1.089   3.717  12.632  0.7551  0.1882  1.0002
 9506TIP3    H150009   1.013   3.700  12.688 -0.7951  0.8727 -0.7746
 9506TIP3    H250010   1.092   3.641  12.573  0.5325  0.8297  0.1358
 9507TIP3   OH250011   4.605   2.731   3.449  0.2479 -0.0019  0.6000
 9507TIP3    H150012   4.629   2.640   3.432 -0.4814 -0.3629  1.4376
 9507TIP3    H250013   4.586   2.767   3.362  1.8658 -0.2318  0.0983
 9508TIP3   OH250014   6.247   5.010  14.475 -0.1680 -0.4293 -0.1189
 9508TIP3    H150015   6.270   4.944  14.410 -0.0093 -0.3874 -0.1068
 9508TIP3    H250016   6.329   5.057  14.492  0.4684 -2.1174  2.0256
 9509TIP3   OH250017   5.785   4.831  15.033  0.5161 -0.2370 -0.3073
 9509TIP3    H150018   5.819   4.772  14.965 -0.9707 -2.8001  1.0249
 9509TIP3    H250019   5.758   4.773  15.104 -1.5245  2.0293  0.9182
 9510TIP3   OH250020   0.756   3.760  16.795  0.5030  0.6856  0.0311
 9510TIP3    H150021   0.761   3.856  16.796  1.3763  0.6809 -1.0142
 9510TIP3    H250022   0.847   3.732  16.788  0.1990 -0.1810 -0.7445
 9511TIP3   OH250023   4.272   4.087   2.414 -0.0295  0.3381  0.4043
 9511TIP3    H150024   4.185   4.052   2.438  0.4140 -1.6720 -0.6851
 9511TIP3    H250025   4.326   4.009   2.403  1.1923  1.4025 -1.7122
 9512TIP3   OH250026   5.257   2.043  12.173  0.3160 -0.0013 -0.1818
 9512TIP3    H150027   5.314   2.052  12.249  1.2375  1.0116 -0.9602
 9512TIP3    H250028   5.238   1.949  12.168  0.6320 -0.1419  0.9993
 9513TIP3   OH250029   4.898   0.762   1.593 -0.0204 -0.1445  0.6047
 9513TIP3    H150030   4.818   0.807   1.565 -0.5179 -1.2158  0.2382
 9513TIP3    H250031   4.968   0.823   1.573 -0.5173 -0.1890 -1.4489
 9514TIP3   OH250032   5.673   1.643   3.637 -0.2002  0.4687  0.0342
 9514TIP3    H150033   5.617   1.610   3.567 -0.8620 -1.5814  1.4148
 9514TIP3    H250034   5.678   1.570   3.700  0.1814  2.2556  2.2145
 9515TIP3   OH250035   6.401   5.143  12.385 -0.4526  0.6565 -0.4100
 9515TIP3    H150036   6.341   5.124  12.313 -2.3355  1.2661  0.9222
 9515TIP3    H250037   6.487   5.149  12.343 -1.0303 -1.7196 -2.1876
 9516TIP3   OH250038   4.115   4.391  14.438 -0.2735  0.3440 -0.0175
 9516TIP3    H150039   4.165   4.470  14.421  0.7885 -0.2830  0.0621
 9516TIP3    H250040   4.066   4.410  14.518  1.3343  0.3213  1.0056
 9517TIP3   OH250041   4.198   4.280  11.445 -0.4286 -0.1033 -0.1421
 9517TIP3    H150042   4.178   4.354  11.502 -0.3414 -1.0745  1.1873
 9517TIP3    H250043   4.176   4.311  11.357 -1.2707  1.1757  0.4922
 9518TIP3   OH250044   6.652   0.026   5.160 -0.9969  0.0439 -0.3207
 9518TIP3    H150045   6.694   0.089   5.102  0.0794 -1.4857 -1.2514
 9518TIP3    H250046   6.605   0.080   5.224  0.1867  1.7728 -0.8585
 9519TIP3   OH250047   1.193   1.370  13.587  0.4795  0.6695  0.2567
 9519TIP3    H150048   1.123   1.435  13.579  0.0050  0.0777 -0.5018
 9519TIP3    H250049   1.165   1.313  13.659  1.2842  1.7447  1.4774
 9520TIP3   OH250050   3.014   1.867   1.407  0.3158  0.1961  0.0285
 9520TIP3    H150051   3.017   1.882   1.312 -0.8632 -1.0015 -0.2246
 9520TIP3    H250052   2.997   1.773   1.416 -1.3753  0.5884  1.3936
 9521TIP3   OH250053   6.428   6.737  11.914 -0.0152 -0.4545 -0.7779
 9521TIP3    H150054   6.454   6.686  11.837  0.1741 -0.5435 -0.6535
 9521TIP3    H250055   6.385   6.814  11.877 -2.2691 -1.7083 -0.9616
 9522TIP3   OH250056   2.343   0.854  16.643  0.4850 -0.1874  0.2243
 9522TIP3    H150057   2.349   0.943  16.677  1.4988 -0.9720  2.2088
 9522TIP3    H250058   2.433   0.829  16.622  0.2245 -0.7861 -0.2244
 9523TIP3   OH250059   1.908   1.823  14.006 -0.8640  0.2553 -0.1428
 9523TIP3    H150060   1.966   1.748  14.011 -1.8009 -0.5500 -0.8469
 9523TIP3    H250061   1.864   1.814  13.921 -0.9100  1.6699 -0.2983
 9524TIP3   OH250062   6.747   5.682  12.368 -0.2160 -0.2142 -0.4371
 9524TIP3    H150063   6.764   5.636  12.286  0.2923 -1.3819  0.2838
 9524TIP3    H250064   6.709   5.615  12.425 -2.1742  0.9890 -0.2325
 9525TIP3   OH250065   3.909   6.138   2.533 -0.1611 -0.2416  0.2427
 9525TIP3    H150066   3.993   6.153   2.489 -0.6649  0.1607 -0.6162
 9525TIP3    H250067   3.925   6.164   2.624  0.3889  0.7567 -0.1211
 9526TIP3   OH250068   6.173   0.967  11.311  0.3969  0.4576 -0.7055
 9526TIP3    H150069   6.122   0.886  11.320 -1.6291  1.5972 -1.3116
 9526TIP3    H250070   6.222   0.973  11.394 -0.3894 -0.7136 -0.1176
 9527TIP3   OH250071   0.544   4.693  15.884  0.2746 -0.8364 -0.3289
 9527TIP3    H150072   0.580   4.626  15.826  0.1409 -2.3727  1.2569
 9527TIP3    H250073   0.548   4.653  15.971 -1.3457  0.6121  0.4625
 9528TIP3   OH250074   6.546   4.551   5.887 -0.4035 -0.5969  0.1287
 9528TIP3    H150075   6.455   4.536   5.861 -0.0058  1.3042 -2.9198
 9528TIP3    H250076   6.597   4.512   5.816  1.0709  0.3223  0.6403
 9529TIP3   OH250077   1.972   1.621  16.287  0.4089 -0.0132 -0.1490
 9529TIP3    H150078   1.895   1.593  16.338  1.0744 -3.1242 -0.6552
 9529TIP3    H250079   2.040   1.637  16.353  0.0148  0.4200  0.1599
 9530TIP3   OH250080   3.884   3.067  13.820  0.9781 -0.5868  0.3076
 9530TIP3    H150081   3.888   3.099  13.910  2.1741 -1.8814  0.7541
 9530TIP3    H250082   3.792   3.077  13.795  1.1721  2.8967  0.4425
 9531TIP3   OH250083   5.602   3.934   3.371 -0.3357  0.9275  0.0185
 9531TIP3    H150084   5.530   3.983   3.332 -0.6686  2.8002  2.7478
 9531TIP3    H250085   5.680   3.984   3.347 -0.1643  0.2451 -0.9073
 9532TIP3   OH250086   4.364   3.821  16.203 -0.0011  0.4421 -0.6595
 9532TIP3    H150087   4.396   3.770  16.278 -1.1723 -0.6864 -0.8960
 9532TIP3    H250088   4.375   3.763  16.128 -0.0844  1.0592 -1.1592
 9533TIP3   OH250089   5.431   0.451   4.361  0.4175  0.2098 -0.1631
 9533TIP3    H150090   5.436   0.366   4.405 -0.6385  0.0512 -0.3208
 9533TIP3    H250091   5.510   0.455   4.308  1.6120  0.2918  1.5271
 9534TIP3   OH250092   6.145   0.048   1.605 -0.5244 -0.2857  0.2176
 9534TIP3    H150093   6.144  -0.047   1.603 -1.1825 -0.3150  1.3205
 9534TIP3    H250094   6.212   0.073   1.542 -0.0186 -1.4871  0.2666
 9535TIP3   OH250095   4.185   4.572  14.900  0.0519 -0.0879  0.3290
 9535TIP3    H150096   4.127   4.620  14.841  1.5313  0.4059 -0.7668
 9535TIP3    H250097   4.142   4.578  14.985 -1.3460  0.5179 -0.3921
 9536TIP3   OH250098   2.133   4.067   0.104 -0.3869  0.4383 -0.1587
 9536TIP3    H150099   2.072   4.002   0.137 -0.3288  0.4602 -0.0074
 9536TIP3    H250100   2.130   4.057   0.009  0.0994 -0.2188 -0.1121
 9537TIP3   OH250101   5.455   6.287  17.061  0.3598  0.2824 -0.0382
 9537TIP3    H150102   5.523   6.354  17.074  0.4017  0.1885  0.2204
 9537TIP3    H250103   5.411   6.314  16.980  1.6639 -0.4718 -1.0363
 9538TIP3   OH250104   3.095   0.900  15.150 -0.5883 -0.0736  0.3667
 9538TIP3    H150105   3.063   0.845  15.221 -2.6507  1.7271  0.9391
 9538TIP3    H250106   3.185   0.923  15.176 -1.4653  1.0000  2.7197
 9539TIP3   OH250107   2.219   4.550  13.318  0.1380 -0.0523  0.0586
 9539TIP3    H150108   2.130   4.526  13.292  0.1420  1.2932 -1.2995
 9539TIP3    H250109   2.231   4.506  13.402 -0.8063 -2.5125 -0.9913
 9540TIP3   OH250110   6.145   5.434   5.685  0.8488  0.2055 -0.2237
 9540TIP3    H150111   6.119   5.382   5.609  3.3449  0.9280 -1.7047
 9540TIP3    H250112   6.080   5.504   5.689 -1.4164 -1.8232  0.6117
 9541TIP3   OH250113   5.300   3.874  13.929  0.0942  0.4935  0.4143
 9541TIP3    H150114   5.281   3.917  13.846 -1.5425  3.0844  2.0069
 9541TIP3    H250115   5.363   3.930  13.972  0.3906 -0.4331  1.2355
 9542TIP3   OH250116   0.341   2.348   4.117  0.2682  0.5949 -0.5477
 9542TIP3    H150117   0.388   2.273   4.080 -1.9173  0.1829 -2.7444
 9542TIP3    H250118   0.350   2.416   4.051 -2.7915  0.2327 -1.4720
 9543TIP3   OH250119   1.374   1.587  15.566 -0.2919 -0.0897  0.2333
 9543TIP3    H150120   1.372   1.666  15.511 -2.6481 -0.1085  0.2129
 9543TIP3    H250121   1.400   1.619  15.652 -0.7036  0.6305  0.0995
 9544TIP3   OH250122   6.783   1.609   0.408  0.0530  0.2573  0.8883
 9544TIP3    H150123   6.810   1.544   0.343  0.5280 -1.4090  2.6807
 9544TIP3    H250124   6.707   1.571   0.450 -0.9059  1.8096  0.6255
 9545TIP3   OH250125   4.509   4.843   2.926 -0.4567  0.3139 -0.4857
 9545TIP3    H150126   4.480   4.813   2.840 -0.3683  1.8017 -1.0654
 9545TIP3    H250127   4.604   4.828   2.926 -0.4936  0.0748 -0.5398
 9546TIP3   OH250128   3.987   5.411   1.242 -0.0833  0.1915  0.8972
 9546TIP3    H150129   3.995   5.315   1.248  1.5579  0.2559  0.2897
 9546TIP3    H250130   3.936   5.426   1.163  0.6056 -0.1817  0.3716
 9547TIP3   OH250131   3.671   1.546   1.837  0.6993 -0.1099  0.3511
 9547TIP3    H150132   3.671   1.625   1.891  0.0549  0.2575 -0.1725
 9547TIP3    H250133   3.730   1.567   1.764  0.3576 -0.0302  0.0965
 9548TIP3   OH250134   2.622   6.102  14.657 -0.3036  1.2529  0.0942
 9548TIP3    H150135   2.567   6.172  14.624 -1.8558  0.2766  0.5172
 9548TIP3    H250136   2.574   6.066  14.732  0.0381 -0.8051 -0.6048
 9549TIP3   OH250137   4.748   5.215   5.680 -0.6529  0.5406 -0.8573
 9549TIP3    H150138   4.733   5.148   5.747 -1.2604  0.8201 -0.7059
 9549TIP3    H250139   4.717   5.296   5.720  0.1265  0.9238 -1.0198
 9550TIP3   OH250140   0.655   2.075   2.576 -0.1218 -0.1865 -0.0561
 9550TIP3    H150141   0.621   2.165   2.579  0.5059  0.0495  2.0255
 9550TIP3    H250142   0.659   2.053   2.483  0.5171  2.2443 -0.6635
 9551TIP3   OH250143   4.116   2.547  13.150  0.1353 -0.1643 -0.0119
 9551TIP3    H150144   4.181   2.610  13.116 -0.5798  0.7447  0.2564
 9551TIP3    H250145   4.153   2.461  13.128  1.0388  0.3430 -0.5852
 9552TIP3   OH250146   0.287   1.764  15.910  0.3916 -0.2017  0.0400
 9552TIP3    H150147   0.233   1.790  15.836 -1.2349  2.2097  1.8922
 9552TIP3    H250148   0.283   1.669  15.912 -1.0786 -0.2255 -1.8076
 9553TIP3   OH250149   1.594   4.277   1.659 -0.3696 -0.1385 -0.1278
 9553TIP3    H150150   1.567   4.185   1.666  2.9478 -1.1391  1.7269
 9553TIP3    H250151   1.616   4.288   1.566 -0.8010 -1.1924 -0.3727
 9554TIP3   OH250152   6.151   0.269  16.321 -0.1321 -0.1027 -0.3932
 9554TIP3    H150153   6.246   0.280  16.331 -0.3285  0.3512  1.1547
 9554TIP3    H250154   6.142   0.208  16.247  1.3828 -0.8026 -0.0437
 9555TIP3   OH250155   1.908   5.084  11.811 -0.7357  0.1641 -0.0488
 9555TIP3    H150156   1.942   5.104  11.724  0.2753 -0.2412  0.2399
 9555TIP3    H250157   1.985   5.081  11.868 -1.4824  1.6027  1.1129
 9556TIP3   OH250158   6.353   6.800  16.054  0.0491 -0.7430  0.1205
 9556TIP3    H150159   6.327   6.889  16.029  0.7998 -0.3261  0.7817
 9556TIP3    H250160   6.280   6.745  16.026 -0.9745  0.2311  0.8042
 9557TIP3   OH250161   0.779   1.415   1.121  0.3708  1.0580  0.5729
 9557TIP3    H150162   0.737   1.413   1.035  0.8007  1.0167  0.3616
 9557TIP3    H250163   0.713   1.454   1.179 -0.3562  0.0275  0.4702
 9558TIP3   OH250164   0.297   2.568  15.751  0.3214  0.2294 -0.3959
 9558TIP3    H150165   0.385   2.571  15.786  0.1692 -0.4030  0.0650
 9558TIP3    H250166   0.291   2.644  15.693  0.2952  1.8545  1.6151
 9559TIP3   OH250167   5.803   4.408   3.249  0.1189  0.2677  0.3774
 9559TIP3    H150168   5.709   4.428   3.252  0.5439  2.6985 -0.1572
 9559TIP3    H250169   5.807   4.315   3.228 -2.1998  0.6039 -2.1772
 9560TIP3   OH250170   3.353   5.368  14.507 -0.4740  0.0335  0.4645
 9560TIP3    H150171   3.376   5.281  14.539  0.3409 -0.5990 -1.6784
 9560TIP3    H250172   3.318   5.353  14.420 -2.2321  1.7032  0.8212
 9561TIP3   OH250173   0.544   2.798   3.473 -0.1842  0.4103  0.4933
 9561TIP3    H150174   0.470   2.742   3.495  0.4520 -0.2261  1.0407
 9561TIP3    H250175   0.525   2.829   3.385 -0.6553 -0.4882  0.2694
 9562TIP3   OH250176   0.553   1.946  11.566  0.1770 -0.3054  0.7479
 9562TIP3    H150177   0.486   1.959  11.498  0.8500  0.6367  0.2513
 9562TIP3    H250178   0.631   1.919  11.517  0.7179  0.5669  1.1300
 9563TIP3   OH250179   5.774   4.904   0.969 -0.0047  0.1065 -0.2002
 9563TIP3    H150180   5.799   4.990   1.002 -1.0035  0.1250  0.5282
 9563TIP3    H250181   5.694   4.919   0.919 -0.6154 -0.5161  0.5726
 9564TIP3   OH250182   4.004   1.628   1.976 -0.7933 -0.2534 -0.3377
 9564TIP3    H150183   3.931   1.691   1.977  1.5033  2.7481  2.2815
 9564TIP3    H250184   3.988   1.573   2.052 -0.3380  0.5134  0.3363
 9565TIP3   OH250185   5.351   6.429  14.095 -0.6282  0.4504 -0.4875
 9565TIP3    H150186   5.313   6.409  14.180 -3.4998 -0.7996 -1.8965
 9565TIP3    H250187   5.324   6.519  14.076  0.7469  1.0298  0.2547
 9566TIP3   OH250188   2.884   0.354   4.444  0.0011  0.6013  0.5302
 9566TIP3    H150189   2.901   0.348   4.538 -1.2610  1.0284  0.8118
 9566TIP3    H250190   2.951   0.300   4.403  0.9885  0.9683  1.6291
 9567TIP3   OH250191   1.949   0.392   3.845  0.1148 -0.6195 -0.3358
 9567TIP3    H150192   2.016   0.326   3.863  1.3736  0.6144 -0.2248
 9567TIP3    H250193   1.963   0.415   3.753  0.0445 -0.1492 -0.2324
 9568TIP3   OH250194   2.768   5.836   5.356  0.5499 -0.2841  0.2502
 9568TIP3    H150195   2.802   5.925   5.363 -1.4026  0.4578  0.8220
 9568TIP3    H250196   2.834   5.789   5.305  1.2057  1.7027 -0.8119
 9569TIP3   OH250197   3.340   5.454  12.562 -0.1424 -0.7099  0.0261
 9569TIP3    H150198   3.265   5.395  12.557 -0.4111 -0.4021  0.4370
 9569TIP3    H250199   3.408   5.403  12.606 -0.6162 -0.4664  1.0654
 9570TIP3   OH250200   3.941   2.709  13.385  0.6279 -0.8773  0.2285
 9570TIP3    H150201   3.930   2.706  13.290  1.5742  0.3835  0.0459
 9570TIP3    H250202   4.017   2.766  13.399  1.9276 -2.8413  1.6670
 9571TIP3   OH250203   0.466   3.919  15.191 -0.3987 -0.1334 -0.1563
 9571TIP3    H150204   0.473   3.900  15.097 -0.3045 -1.9555  0.1751
 9571TIP3    H250205   0.378   3.890  15.214 -0.0098 -0.8139  0.5257
 9572TIP3   OH250206   0.469   6.520  12.475 -0.9443  0.1039  0.0940
 9572TIP3    H150207   0.427   6.506  12.560  1.1374  1.1628  1.3810
 9572TIP3    H250208   0.545   6.462  12.476 -0.0700  1.2117 -0.4038
 9573TIP3   OH250209   1.196   2.493   3.653  0.0580 -0.1872 -0.0049
 9573TIP3    H150210   1.279   2.447   3.643 -0.6254 -1.0042 -3.2516
 9573TIP3    H250211   1.138   2.450   3.590 -1.5526  3.1121 -0.9788
 9574TIP3   OH250212   1.509   1.918   2.025  0.3119  0.5526  0.3187
 9574TIP3    H150213   1.597   1.939   2.056  1.3008 -1.6626 -0.7331
 9574TIP3    H250214   1.512   1.937   1.931  0.2454 -1.0571 -0.0414
 9575TIP3   OH250215   2.095   5.525  13.874  0.1769 -0.1360 -0.7703
 9575TIP3    H150216   2.105   5.463  13.947 -1.4924  1.8447  1.2842
 9575TIP3    H250217   2.176   5.517  13.825  1.0214 -2.1973  0.7958
 9576TIP3   OH250218   1.618   4.722   6.894  0.4273  0.5988  0.2455
 9576TIP3    H150219   1.557   4.759   6.957  1.2665  0.1023  1.3932
 9576TIP3    H250220   1.635   4.633   6.926  0.2565  0.0529 -1.1358
 9577TIP3   OH250221   1.469   3.395  11.139  0.5946  0.4902  0.5873
 9577TIP3    H150222   1.426   3.479  11.154  1.2638  0.8731  0.3942
 9577TIP3    H250223   1.459   3.379  11.046  2.7556  1.6706  0.0787
 9578TIP3   OH250224   0.507   5.839   3.821 -0.0257 -0.2774 -1.2256
 9578TIP3    H150225   0.598   5.821   3.846 -0.4709 -0.1817  0.6079
 9578TIP3    H250226   0.511   5.924   3.778  1.0028 -1.1732 -2.9909
 9579TIP3   OH250227   3.489   3.743   4.731  0.2605  0.3824 -0.3076
 9579TIP3    H150228   3.441   3.682   4.786 -1.6139  1.4386 -0.6712
 9579TIP3    H250229   3.524   3.689   4.660  0.2268 -0.5293  0.3465
 9580TIP3   OH250230   3.694   1.436  16.593  0.4474 -0.2046  0.1089
 9580TIP3    H150231   3.710   1.492  16.669  0.2254 -0.9451  0.7078
 9580TIP3    H250232   3.701   1.347  16.627 -0.2565 -0.5452 -0.6108
 9581TIP3   OH250233   2.169   2.554   4.413  0.1546 -0.0360 -0.2906
 9581TIP3    H150234   2.259   2.555   4.381 -0.0974 -2.1644 -1.2704
 9581TIP3    H250235   2.160   2.469   4.456 -1.2350  0.3754  0.2965
 9582TIP3   OH250236   3.840   0.274   1.701 -0.0310 -0.0376 -0.2529
 9582TIP3    H150237   3.935   0.283   1.700  0.2295 -2.0881  1.0262
 9582TIP3    H250238   3.816   0.282   1.793 -0.8876 -1.3021 -0.3465
 9583TIP3   OH250239   1.059   0.011   2.438 -0.0767  0.1425  0.0537
 9583TIP3    H150240   1.117   0.086   2.452  1.2725 -0.9904  0.8164
 9583TIP3    H250241   1.115  -0.065   2.452 -1.4677 -1.0188 -0.4583
 9584TIP3   OH250242   2.486   5.017  14.288  0.1698  0.0559 -0.7069
 9584TIP3    H150243   2.472   5.061  14.372 -1.6707 -2.2230  0.2918
 9584TIP3    H250244   2.400   5.016  14.247  0.1785 -2.3671 -0.7606
 9585TIP3   OH250245   2.701   1.790  14.321  0.1768  0.3641  0.1006
 9585TIP3    H150246   2.605   1.785  14.317 -0.0546  2.6496  1.0017
 9585TIP3    H250247   2.718   1.840  14.401  2.2267 -1.4544  0.8827
 9586TIP3   OH250248   6.099   5.077   5.602 -0.2538 -0.3312  1.0269
 9586TIP3    H150249   6.017   5.028   5.606  1.0288 -3.1578 -1.9198
 9586TIP3    H250250   6.161   5.024   5.650  0.9143 -1.1020 -1.2005
 9587TIP3   OH250251   4.989   0.994  15.989  0.2430  0.2140 -0.9490
 9587TIP3    H150252   5.018   0.950  15.909 -1.6751  1.6524 -2.5321
 9587TIP3    H250253   4.998   1.087  15.969 -0.8331  0.6027  0.2868
 9588TIP3   OH250254   3.027   5.529   3.835  0.2059 -0.7516  0.3658
 9588TIP3    H150255   3.061   5.439   3.835  0.1514 -0.7833 -0.6174
 9588TIP3    H250256   3.097   5.581   3.797  0.1059 -0.4234  0.6258
 9589TIP3   OH250257   4.234   4.940   5.995  0.0993 -1.3130 -0.0200
 9589TIP3    H150258   4.146   4.965   6.021  1.2537  0.4819  2.6207
 9589TIP3    H250259   4.223   4.856   5.949 -3.2219  0.3114 -2.6454
 9590TIP3   OH250260   6.573   6.040  10.602  0.3802 -0.3145  0.2367
 9590TIP3    H150261   6.642   6.020  10.666  1.1780  0.3976 -0.3739
 9590TIP3    H250262   6.557   6.134  10.613  0.6640 -0.1472 -0.7434
 9591TIP3   OH250263   2.122   3.520  14.088 -1.0230 -0.2533  0.2379
 9591TIP3    H150264   2.119   3.606  14.045  0.8844  0.1113  0.7187
 9591TIP3    H250265   2.171   3.464  14.027 -1.0195 -0.5949  0.5473
 9592TIP3   OH250266   0.624   2.297  11.584 -0.2531 -0.3569  0.0079
 9592TIP3    H150267   0.615   2.210  11.545 -0.3123 -0.2789 -0.1556
 9592TIP3    H250268   0.538   2.315  11.622  0.0843 -0.8294  1.0131
 9593TIP3   OH250269   4.004   6.426   3.277 -0.2665 -0.3700  0.8093
 9593TIP3    H150270   4.056   6.498   3.243 -0.2387 -0.8040 -0.0927
 9593TIP3    H250271   3.923   6.467   3.308 -0.8227 -0.0923 -0.9363
 9594TIP3   OH250272   0.365   3.298  14.399  0.1891  0.1737 -0.1715
 9594TIP3    H150273   0.375   3.301  14.304 -0.7074 -0.0377 -0.2853
 9594TIP3    H250274   0.423   3.228  14.428  1.2377  0.9003 -0.4371
 9595TIP3   OH250275   0.544   2.849  17.139  0.3175  0.2938 -0.2849
 9595TIP3    H150276   0.618   2.901  17.110 -0.8058  1.7098 -0.7478
 9595TIP3    H250277   0.579   2.791  17.206  1.2738  3.1330  1.8583
 9596TIP3   OH250278   3.970   0.378   4.561 -0.5100 -0.2651  0.2063
 9596TIP3    H150279   4.053   0.361   4.516  0.3531  3.6095 -0.0180
 9596TIP3    H250280   3.906   0.328   4.511  1.1839 -0.3141 -2.0876
 9597TIP3   OH250281   0.406   6.188  11.848 -0.3112 -0.1056  0.2994
 9597TIP3    H150282   0.311   6.195  11.863 -0.1787 -0.3876  1.3613
 9597TIP3    H250283   0.422   6.094  11.838  0.0714 -0.2296  1.8211
 9598TIP3   OH250284   6.228   0.627  16.410 -0.3973 -0.1346 -0.1961
 9598TIP3    H150285   6.224   0.597  16.319 -1.7569  1.3608 -0.6709
 9598TIP3    H250286   6.156   0.690  16.418 -0.8317 -0.8193  2.1520
 9599TIP3   OH250287   5.599   4.098   4.672  0.4439 -0.1677 -0.1084
 9599TIP3    H150288   5.524   4.132   4.719  1.5618 -0.9335  2.4082
 9599TIP3    H250289   5.576   4.007   4.653  0.1185  0.0533 -0.8084
 9600TIP3   OH250290   3.766   0.136  13.552 -0.6554  0.8056  0.6495
 9600TIP3    H150291   3.830   0.168  13.615  1.3863  0.8685 -1.3641
 9600TIP3    H250292   3.765   0.201  13.483 -1.2166 -0.3116 -0.4351
 9601TIP3   OH250293   2.830   1.561  14.381 -0.3601 -0.1856 -0.1740
 9601TIP3    H150294   2.923   1.539  14.383 -0.5061 -0.7688  0.7161
 9601TIP3    H250295   2.829   1.655  14.360  0.4272 -0.1660 -0.1819
 9602TIP3   OH250296   6.234   1.612  15.105  0.0641  0.0225  0.3040
 9602TIP3    H150297   6.274   1.690  15.066 -0.0613 -0.7223 -1.3768
 9602TIP3    H250298   6.195   1.644  15.186 -1.5233  2.1052 -1.1688
 9603TIP3   OH250299   4.666   0.157  12.260  0.9840  0.1409  0.4397
 9603TIP3    H150300   4.725   0.224  12.225  0.6215 -1.1075 -2.9213
 9603TIP3    H250301   4.578   0.191  12.240  0.6803  0.0519  1.5649
 9604TIP3   OH250302   3.159   1.076   1.826  0.5437 -0.1280  0.2400
 9604TIP3    H150303   3.232   1.052   1.769 -0.4165  0.7310 -1.4268
 9604TIP3    H250304   3.085   1.088   1.767 -1.0188 -1.1146  1.8952
 9605TIP3   OH250305   2.555   0.872   3.491  0.4053  0.1663 -0.0359
 9605TIP3    H150306   2.552   0.864   3.586  2.1104  1.7102  0.2227
 9605TIP3    H250307   2.553   0.782   3.458 -0.7468 -0.3635  1.4145
 9606TIP3   OH250308   2.123   5.816  14.622  0.4481  0.2232 -0.2551
 9606TIP3    H150309   2.069   5.886  14.586  0.8740  1.3194  1.1800
 9606TIP3    H250310   2.193   5.803  14.558  0.8621  1.7302 -0.1310
 9607TIP3   OH250311   4.240   2.198  15.737  0.7170 -0.2836  0.0207
 9607TIP3    H150312   4.236   2.147  15.818  1.7021 -0.3727  0.0251
 9607TIP3    H250313   4.230   2.134  15.667  1.7577 -0.4608  0.0315
 9608TIP3   OH250314   1.162   3.231  11.001  0.1070 -0.2599  0.0860
 9608TIP3    H150315   1.258   3.223  10.995 -0.0726 -1.8048 -1.5806
 9608TIP3    H250316   1.133   3.145  11.032 -0.7424  0.2714  0.8047
 9609TIP3   OH250317   1.691   5.572   4.530  0.4631  0.4607  0.3573
 9609TIP3    H150318   1.743   5.652   4.516  1.2415 -0.0666  0.1329
 9609TIP3    H250319   1.757   5.504   4.544 -0.1343 -0.4650 -1.1328
 9610TIP3   OH250320   1.723   0.918  16.064 -0.0077 -0.1841 -0.0784
 9610TIP3    H150321   1.673   0.943  15.986  1.3225 -0.0832 -0.9315
 9610TIP3    H250322   1.698   0.828  16.082 -2.5073  0.6492  1.1585
 9611TIP3   OH250323   0.490   1.479   5.849 -0.2468 -0.4877 -0.0754
 9611TIP3    H150324   0.557   1.546   5.865 -0.6254 -0.0794 -0.1943
 9611TIP3    H250325   0.501   1.417   5.922 -0.6881  0.3364  0.7137
 9612TIP3   OH250326   0.177   4.234  13.542 -0.8201 -0.2680 -0.3159
 9612TIP3    H150327   0.131   4.177  13.603 -0.3505 -1.7989 -1.3546
 9612TIP3    H250328   0.230   4.291  13.598 -1.9499 -0.2414  0.7725
 9613TIP3   OH250329   5.245   2.528  11.825  0.2324 -0.5122  1.0082
 9613TIP3    H150330   5.200   2.443  11.817 -1.3663  0.2928  1.0199
 9613TIP3    H250331   5.282   2.527  11.913 -1.1073 -0.5951  1.5872
 9614TIP3   OH250332   4.969   3.594  10.393 -0.2770  0.6190 -0.5549
 9614TIP3    H150333   5.056   3.582  10.356 -0.3411  0.8690 -0.7843
 9614TIP3    H250334   4.945   3.684  10.371 -1.2155  0.1008 -1.8033
 9615TIP3   OH250335   3.827   5.691  11.429 -0.6208 -0.2955 -0.5427
 9615TIP3    H150336   3.793   5.612  11.387 -3.0813  0.1505  0.4433
 9615TIP3    H250337   3.856   5.662  11.515  1.3938 -0.6184 -1.2733
 9616TIP3   OH250338   0.438   2.318  13.984  0.8275 -0.1582 -0.1891
 9616TIP3    H150339   0.344   2.306  13.995  0.9683 -0.8854  0.3433
 9616TIP3    H250340   0.465   2.250  13.923  0.9240  0.4027 -0.7777
 9617TIP3   OH250341   1.704   3.923  11.505 -0.3391 -0.6457  0.2234
 9617TIP3    H150342   1.761   3.881  11.569 -0.9558  0.8023  1.8045
 9617TIP3    H250343   1.621   3.876  11.513 -0.6585  0.0404  1.1044
 9618TIP3   OH250344   5.613   4.414  14.200  0.2047  0.0416  0.1059
 9618TIP3    H150345   5.607   4.468  14.121  3.1049  2.3417  1.2463
 9618TIP3    H250346   5.540   4.442  14.255  0.2468  1.0311 -0.3293
 9619TIP3   OH250347   2.021   3.427   4.340 -0.0494  0.0030 -0.2690
 9619TIP3    H150348   1.982   3.511   4.364 -1.9132 -0.9599  0.2654
 9619TIP3    H250349   2.030   3.380   4.423 -0.8193 -1.0253 -0.7443
 9620TIP3   OH250350   1.962   1.182   3.699  0.5867 -0.0047  0.2790
 9620TIP3    H150351   1.982   1.120   3.769  0.6074 -1.3536 -0.8796
 9620TIP3    H250352   1.902   1.135   3.641 -0.5223  1.5591  0.0802
 9621TIP3   OH250353   5.074   0.527  12.960 -1.1086  0.1825  0.8755
 9621TIP3    H150354   5.068   0.511  12.866  0.9359 -0.3787  0.7899
 9621TIP3    H250355   5.021   0.458  13.000 -0.9355 -0.3745  0.1681
 9622TIP3   OH250356   1.036   5.128  13.050  0.5472  0.9606  0.3988
 9622TIP3    H150357   1.056   5.168  12.965 -0.0369 -0.5501 -0.4933
 9622TIP3    H250358   1.053   5.197  13.113 -0.7379  2.7311 -1.0661
 9623TIP3   OH250359   5.122   3.893   2.725  0.0439  0.0919  0.1179
 9623TIP3    H150360   5.058   3.963   2.708  0.2352  0.2800  0.1778
 9623TIP3    H250361   5.200   3.939   2.756 -0.4781 -0.2618  2.0967
 9624TIP3   OH250362   6.734   6.390   4.967 -0.7324 -0.2922 -0.0001
 9624TIP3    H150363   6.676   6.319   4.941 -2.1141 -0.2102  2.5587
 9624TIP3    H250364   6.674   6.460   4.995  0.5760  1.8527 -2.1835
 9625TIP3   OH250365   2.471   3.240  12.423  0.6541  0.2443  0.2736
 9625TIP3    H150366   2.537   3.292  12.468  0.2127  1.6190 -0.5825
 9625TIP3    H250367   2.388   3.274  12.456  0.3535  0.3343 -0.5485
 9626TIP3   OH250368   5.148   2.202   5.077 -0.2213 -0.0389  0.1498
 9626TIP3    H150369   5.227   2.219   5.026 -0.1352 -0.0895  0.2670
 9626TIP3    H250370   5.076   2.211   5.014 -0.1830  0.8485  0.2343
 9627TIP3   OH250371   4.683   4.112   2.992  0.1096 -0.2744  0.1634
 9627TIP3    H150372   4.721   4.082   3.075  0.0015 -1.5995 -0.2289
 9627TIP3    H250373   4.757   4.112   2.930  0.1441  0.4830  0.1959
 9628TIP3   OH250374   0.686   1.209  16.079  0.6833 -0.0351  0.9587
 9628TIP3    H150375   0.685   1.128  16.132  1.1260 -3.2153 -3.3525
 9628TIP3    H250376   0.774   1.212  16.043 -0.0690  0.9314 -0.9123
 9629TIP3   OH250377   5.090   6.121   1.988  0.3222  0.2644  0.5482
 9629TIP3    H150378   5.092   6.208   1.949  0.4169  1.7655  3.6579
 9629TIP3    H250379   5.031   6.071   1.931  1.0108  1.9981 -1.8657
 9630TIP3   OH250380   0.927   3.589   1.585  0.1011 -0.1394 -0.1716
 9630TIP3    H150381   0.832   3.591   1.593  0.1451  0.8268  0.1374
 9630TIP3    H250382   0.959   3.622   1.669  0.6746  1.8050 -1.1135
 9631TIP3   OH250383   6.124   2.068  12.317 -0.5287  0.2872  0.6931
 9631TIP3    H150384   6.089   2.088  12.230  0.2293 -2.0200 -0.2201
 9631TIP3    H250385   6.077   2.128  12.376  2.1068  5.3373 -1.6385
 9632TIP3   OH250386   0.472   4.636   5.262 -0.3109 -0.0680 -0.2803
 9632TIP3    H150387   0.514   4.716   5.294  0.4103 -0.6475  0.2858
 9632TIP3    H250388   0.393   4.627   5.316 -0.3664  0.2367 -0.3112
 9633TIP3   OH250389   4.502   0.683   4.822  0.0832  0.1778 -0.3538
 9633TIP3    H150390   4.497   0.761   4.877  2.1171  0.5542 -0.6486
 9633TIP3    H250391   4.455   0.707   4.742  0.6281  1.0777 -0.4122
 9634TIP3   OH250392   0.040   0.570   5.320 -0.4200 -0.2162 -0.5224
 9634TIP3    H150393   0.132   0.573   5.347 -0.0038 -0.7366 -1.8292
 9634TIP3    H250394   0.017   0.477   5.322 -0.1917 -0.3560 -2.4490
 9635TIP3   OH250395   0.906   2.558  11.916  0.0462  0.0746 -0.0163
 9635TIP3    H150396   0.834   2.546  11.854 -0.8080  3.1193  0.2512
 9635TIP3    H250397   0.985   2.550  11.863 -0.5534 -0.7058 -0.8248
 9636TIP3   OH250398   4.320   2.718   4.782 -0.7955  0.0555 -0.6717
 9636TIP3    H150399   4.339   2.759   4.867 -0.9132 -1.1989 -0.0186
 9636TIP3    H250400   4.323   2.791   4.719 -2.7348  1.3956  0.6623
 9637TIP3   OH250401   0.672   5.900   0.228 -0.0015 -0.2012  0.4335
 9637TIP3    H150402   0.727   5.943   0.163 -2.0407 -0.1504 -1.4072
 9637TIP3    H250403   0.687   5.806   0.215 -0.2884 -0.1859 -0.0305
 9638TIP3   OH250404   5.537   5.740   5.676 -0.2514  0.3843 -0.0946
 9638TIP3    H150405   5.466   5.740   5.611 -1.0704  1.4932  0.7534
 9638TIP3    H250406   5.506   5.679   5.744 -0.2316  0.5982  0.1058
 9639TIP3   OH250407   4.078   0.824  15.063  0.1838 -0.2303  0.2155
 9639TIP3    H150408   4.150   0.778  15.018  0.1233 -0.3310  0.2232
 9639TIP3    H250409   3.999   0.787  15.025  0.1212  1.4663 -1.4510
 9640TIP3   OH250410   5.091   2.243   1.227  0.3715  0.1466  0.3863
 9640TIP3    H150411   5.064   2.335   1.227  1.7016  0.5677  0.8066
 9640TIP3    H250412   5.039   2.203   1.158 -1.3283  0.8592  1.1831
 9641TIP3   OH250413   6.423   6.299   1.905 -0.1437 -0.2405 -0.6946
 9641TIP3    H150414   6.350   6.237   1.898 -0.5075  0.0204  0.4475
 9641TIP3    H250415   6.494   6.258   1.856 -0.2512 -1.7896  0.3463
 9642TIP3   OH250416   5.227   2.642   5.284 -0.1688  0.1816  0.5561
 9642TIP3    H150417   5.153   2.621   5.340 -0.3617 -1.0774 -0.1453
 9642TIP3    H250418   5.280   2.563   5.283 -0.7617 -0.2702 -1.9367
 9643TIP3   OH250419   4.934   4.202  14.335  0.0848 -0.7219  0.1054
 9643TIP3    H150420   4.882   4.123  14.349 -0.5886 -0.1914  0.6751
 9643TIP3    H250421   4.936   4.245  14.420 -1.6653  1.1317 -0.6965
 9644TIP3   OH250422   6.599   6.400   1.655 -0.0859  0.0161  0.3861
 9644TIP3    H150423   6.664   6.400   1.584 -1.4410 -1.2030 -0.9249
 9644TIP3    H250424   6.622   6.324   1.708  0.7556  0.7658  1.1395
 9645TIP3   OH250425   2.701   0.489   1.960 -0.0325 -0.5565  0.2657
 9645TIP3    H150426   2.720   0.474   2.052 -4.5113 -1.8903  1.2312
 9645TIP3    H250427   2.648   0.569   1.959 -2.4756 -2.0751 -0.6200
 9646TIP3   OH250428   0.402   6.801  13.875 -0.0460 -0.1834  0.0830
 9646TIP3    H150429   0.411   6.849  13.793  0.9513 -1.9101 -0.8626
 9646TIP3    H250430   0.473   6.833  13.930 -0.6131  0.8514  0.2444
 9647TIP3   OH250431   2.591   5.980   1.444  0.2605  0.7024  0.1390
 9647TIP3    H150432   2.605   6.070   1.416  1.5094  0.5379  0.1836
 9647TIP3    H250433   2.617   5.927   1.369  2.1254  0.3101  1.0162
 9648TIP3   OH250434   3.008   0.722  11.948  0.4666  0.5171 -0.4111
 9648TIP3    H150435   3.100   0.712  11.972  0.1564  1.3003  1.2417
 9648TIP3    H250436   2.964   0.747  12.029 -1.3731 -0.6994 -0.9548
 9649TIP3   OH250437   4.312   0.688  16.900 -0.3328 -0.4055  0.4732
 9649TIP3    H150438   4.271   0.653  16.979 -1.4662 -0.7152 -0.2256
 9649TIP3    H250439   4.366   0.761  16.931 -0.8110 -0.4812  1.5227
 9650TIP3   OH250440   1.554   4.824   2.147 -0.1131  0.2593  0.6889
 9650TIP3    H150441   1.469   4.796   2.112  0.3392  0.6367 -0.7741
 9650TIP3    H250442   1.591   4.746   2.186  0.2583 -0.7676 -1.5522
 9651TIP3   OH250443   2.892   5.453  17.056  0.2982  0.2076  0.0086
 9651TIP3    H150444   2.819   5.445  17.117  1.2163 -1.8565  0.9069
 9651TIP3    H250445   2.909   5.548  17.052 -1.4032  0.5975  0.9388
 9652TIP3   OH250446   0.110   1.945  12.195  0.2340 -0.3096  0.3758
 9652TIP3    H150447   0.156   1.907  12.270 -0.2770 -1.0651  0.3081
 9652TIP3    H250448   0.114   2.039  12.210 -1.2051 -0.4915  2.1699
 9653TIP3   OH250449   1.145   1.343  10.583 -0.1948 -0.5046  0.3996
 9653TIP3    H150450   1.149   1.258  10.628  0.8700 -0.7439 -0.1173
 9653TIP3    H250451   1.174   1.324  10.494 -0.0538  0.3869  0.2469
 9654TIP3   OH250452   4.505   1.604  13.011 -0.3195 -0.0513  0.0108
 9654TIP3    H150453   4.474   1.538  12.949  0.7556 -1.4538  0.9242
 9654TIP3    H250454   4.425   1.648  13.040 -1.0899 -1.0909 -0.4685
 9655TIP3   OH250455   4.464   1.202   0.411 -0.1817 -0.0670  0.2326
 9655TIP3    H150456   4.428   1.256   0.341  1.0752  0.7472  0.1781
 9655TIP3    H250457   4.390   1.185   0.469 -0.8005  0.9677 -0.2269
 9656TIP3   OH250458   3.245   0.105  12.605 -0.1721 -0.0807 -0.0033
 9656TIP3    H150459   3.304   0.159  12.659 -0.3901 -0.0342  0.1890
 9656TIP3    H250460   3.251   0.018  12.644 -0.6341  0.0399  0.3456
 9657TIP3   OH250461   3.980   3.558   1.033  0.0333  0.0112 -0.0418
 9657TIP3    H150462   3.945   3.640   1.066 -0.9732  0.1403 -1.3529
 9657TIP3    H250463   3.940   3.490   1.088 -2.0971  0.1763 -1.2993
 9658TIP3   OH250464   2.649   1.221   5.763  0.1789 -0.1935 -0.3521
 9658TIP3    H150465   2.616   1.295   5.813  0.9783  0.8177 -1.2945
 9658TIP3    H250466   2.699   1.170   5.827  0.7689  0.8155  0.0171
 9659TIP3   OH250467   3.895   6.703  15.977 -0.2015  0.4187  0.1083
 9659TIP3    H150468   3.890   6.791  15.941  0.9954  0.9515  1.1563
 9659TIP3    H250469   3.988   6.679  15.971 -0.8497 -2.0091 -2.8502
 9660TIP3   OH250470   1.474   2.607  12.460 -0.3903 -0.2657  0.0489
 9660TIP3    H150471   1.439   2.679  12.408  0.4849 -0.5973 -1.0329
 9660TIP3    H250472   1.408   2.592  12.528 -0.8761  1.1320 -0.0840
 9661TIP3   OH250473   3.554   6.514  11.443 -0.8067  0.0515  0.0973
 9661TIP3    H150474   3.638   6.469  11.452  0.3287  1.8020 -1.1819
 9661TIP3    H250475   3.569   6.601  11.480 -2.0099  0.4438 -0.2949
 9662TIP3   OH250476   4.237   6.552   4.053  0.0722  0.8487 -0.1669
 9662TIP3    H150477   4.211   6.525   4.141 -0.5631 -0.9425 -0.8548
 9662TIP3    H250478   4.332   6.565   4.059 -0.2222  3.0551  1.2900
 9663TIP3   OH250479   1.344   4.312  15.583 -0.1892  0.0839 -0.3927
 9663TIP3    H150480   1.400   4.258  15.527 -1.3381 -0.2594 -1.2325
 9663TIP3    H250481   1.264   4.261  15.593 -0.6626  0.9196  0.1546
 9664TIP3   OH250482   0.781   5.674  16.472  0.0564  0.5147  0.3519
 9664TIP3    H150483   0.792   5.624  16.553  2.3926  1.5437  0.7456
 9664TIP3    H250484   0.867   5.673  16.431 -1.4227 -1.5285 -3.1694
 9665TIP3   OH250485   1.777   4.557   0.434 -0.0033  0.1345 -0.4436
 9665TIP3    H150486   1.699   4.582   0.484  0.7197 -1.7091  1.7977
 9665TIP3    H250487   1.848   4.605   0.475  0.4429 -0.5057 -0.4581
 9666TIP3   OH250488   2.355   1.194   0.672  0.7520  0.7448  0.3319
 9666TIP3    H150489   2.314   1.126   0.725 -0.9353  1.2297 -0.2892
 9666TIP3    H250490   2.345   1.163   0.582  0.5617  1.5151  0.0866
 9667TIP3   OH250491   4.512   6.528   4.161  0.5579  0.3191 -0.2797
 9667TIP3    H150492   4.510   6.432   4.155 -1.4842  0.3134 -0.3977
 9667TIP3    H250493   4.602   6.552   4.140  1.0927 -1.5673 -0.3262
 9668TIP3   OH250494   0.327   3.851  13.416 -0.3611  0.4332  0.1157
 9668TIP3    H150495   0.312   3.841  13.322 -0.6439 -0.0930  0.2157
 9668TIP3    H250496   0.311   3.764  13.453  0.4701  0.4520  0.5559
 9669TIP3   OH250497   2.110   0.672   0.244 -0.5074 -0.3936  0.0549
 9669TIP3    H150498   2.059   0.660   0.164 -0.5294  0.5461 -0.0879
 9669TIP3    H250499   2.044   0.687   0.312 -0.4479  0.3987 -0.0527
 9670TIP3   OH250500   4.532   3.002   1.745 -0.4434 -0.4137 -0.6012
 9670TIP3    H150501   4.490   3.087   1.762 -0.6530 -0.2987 -1.6242
 9670TIP3    H250502   4.488   2.969   1.667  1.5456 -0.1609 -1.9129
 9671TIP3   OH250503   2.361   6.836   3.806 -0.5731  0.3130  0.3469
 9671TIP3    H150504   2.311   6.823   3.887 -1.1435  1.1542  0.1397
 9671TIP3    H250505   2.435   6.776   3.814 -0.1888  0.9266  1.8477
 9672TIP3   OH250506   0.192   1.889   2.184 -0.6627 -0.2488  0.7355
 9672TIP3    H150507   0.104   1.887   2.144 -0.1027  0.4792 -0.6264
 9672TIP3    H250508   0.239   1.954   2.132  0.9561 -1.2571  0.8926
 9673TIP3   OH250509   2.784   6.098   4.388 -0.3496  0.3189 -0.3748
 9673TIP3    H150510   2.876   6.123   4.377 -0.3788  0.7278  0.2604
 9673TIP3    H250511   2.787   6.009   4.423 -0.2366 -0.4699 -2.2472
 9674TIP3   OH250512   1.680   5.989   4.940 -0.0961 -0.1366 -0.3713
 9674TIP3    H150513   1.712   5.913   4.892  0.3860  1.5293 -2.8481
 9674TIP3    H250514   1.752   6.011   5.000  0.3669 -0.7860 -0.6735
 9675TIP3   OH250515   6.053   3.188   3.704  0.9527  0.1890 -0.0911
 9675TIP3    H150516   6.049   3.106   3.754 -1.0399 -0.5368 -1.3261
 9675TIP3    H250517   6.102   3.166   3.625 -0.0132  0.0118 -0.6600
 9676TIP3   OH250518   3.227   2.351   1.721  0.2023 -0.1787  0.0480
 9676TIP3    H150519   3.261   2.264   1.702 -1.0663 -0.1759 -2.7113
 9676TIP3    H250520   3.179   2.340   1.803  1.6837 -1.5683  0.7938
 9677TIP3   OH250521   6.357   0.423  13.284 -0.7035  0.3692  0.3623
 9677TIP3    H150522   6.393   0.373  13.211 -1.3869  0.1071  0.1897
 9677TIP3    H250523   6.303   0.490  13.243 -0.9420  0.3354  0.6139
 9678TIP3   OH250524   6.173   0.955  16.851  0.1937 -0.4813  0.3190
 9678TIP3    H150525   6.119   1.015  16.902  0.4454  0.5986 -0.6446
 9678TIP3    H250526   6.121   0.938  16.772  0.9499  0.0160 -0.2938
 9679TIP3   OH250527   6.065   1.771  12.317  0.9872 -0.3486  0.1488
 9679TIP3    H150528   6.096   1.861  12.303  0.6537  0.1746  2.4582
 9679TIP3    H250529   6.113   1.741  12.394 -1.3155 -0.9010  1.4567
 9680TIP3   OH250530   5.836   6.674  15.897 -0.1753 -0.6173 -0.2591
 9680TIP3    H150531   5.787   6.617  15.956 -0.8539  0.2785  0.0623
 9680TIP3    H250532   5.816   6.641  15.810 -1.6649 -0.0381 -0.1594
 9681TIP3   OH250533   1.787   5.402  16.543 -0.3070  0.3174 -0.1667
 9681TIP3    H150534   1.873   5.383  16.504 -0.7234 -1.1820 -0.4279
 9681TIP3    H250535   1.800   5.389  16.637 -0.5091 -1.0795 -0.3152
 9682TIP3   OH250536   2.454   3.689  14.516 -0.0096 -0.0812  0.0325
 9682TIP3    H150537   2.385   3.724  14.460  0.4506  1.1702  0.1910
 9682TIP3    H250538   2.534   3.729  14.482  0.8547 -2.5280 -0.9962
 9683TIP3   OH250539   2.111   3.462  17.081  0.1095 -0.3822 -0.3332
 9683TIP3    H150540   2.140   3.524  17.148 -0.6293  0.2120 -0.5484
 9683TIP3    H250541   2.107   3.514  17.000 -1.0180 -0.5736 -0.4096
 9684TIP3   OH250542   4.396   2.278   5.354  0.3326  0.0239 -0.1680
 9684TIP3    H150543   4.402   2.287   5.259 -1.6378 -1.3083 -0.4800
 9684TIP3    H250544   4.326   2.337   5.380  1.8327  1.4977  0.7134
 9685TIP3   OH250545   5.141   5.024   0.569  0.5736 -0.5765 -0.2243
 9685TIP3    H150546   5.138   5.092   0.635 -1.1589 -1.3612  0.5566
 9685TIP3    H250547   5.166   5.069   0.488  1.9687  0.5135  0.7707
 9686TIP3   OH250548   3.448   4.639  15.512  0.0585 -0.1155 -0.1692
 9686TIP3    H150549   3.365   4.684  15.530  0.5302  0.1919  1.4400
 9686TIP3    H250550   3.500   4.702  15.464 -0.3569 -0.0239 -0.5011
 9687TIP3   OH250551   4.814   2.443   2.689  0.0653  0.4315  0.4932
 9687TIP3    H150552   4.888   2.400   2.646  0.3232  0.9353  0.4208
 9687TIP3    H250553   4.771   2.493   2.620 -0.9523 -0.6431  0.3168
 9688TIP3   OH250554   4.759   6.510   1.986  0.0115 -0.1512  0.4168
 9688TIP3    H150555   4.762   6.425   1.943 -2.2783  0.0807 -0.3243
 9688TIP3    H250556   4.690   6.501   2.052 -1.5775  1.6231 -0.9156
 9689TIP3   OH250557   4.665   4.978  15.710  0.4213 -0.2040  0.3857
 9689TIP3    H150558   4.697   5.057  15.665  1.2601 -0.7725 -0.0228
 9689TIP3    H250559   4.668   5.000  15.803  2.1509 -0.2853  0.3763
 9690TIP3   OH250560   2.408   2.406  12.082  0.5738 -0.5078  0.3428
 9690TIP3    H150561   2.490   2.453  12.070  0.8067 -0.8027  0.7492
 9690TIP3    H250562   2.386   2.421  12.174 -0.2246  0.2079  0.0473
 9691TIP3   OH250563   1.446   2.970  16.734  0.0383 -0.7840  0.4662
 9691TIP3    H150564   1.418   3.029  16.665  0.5962  0.9251  1.6525
 9691TIP3    H250565   1.380   2.901  16.735  0.0950 -0.9563 -1.8471
 9692TIP3   OH250566   0.821   4.021   3.259 -0.0778  0.3962 -0.1712
 9692TIP3    H150567   0.831   4.107   3.217 -0.1891  0.3268 -0.3399
 9692TIP3    H250568   0.866   3.960   3.201 -0.6220  0.2324 -0.4196
 9693TIP3   OH250569   3.484   1.348  15.015 -0.1942 -0.5683  0.2707
 9693TIP3    H150570   3.576   1.366  15.037 -0.3117  1.6660 -0.7943
 9693TIP3    H250571   3.487   1.313  14.926 -0.3625 -0.8655  0.3810
 9694TIP3   OH250572   2.593   4.088   3.107 -0.5985 -0.1439 -0.8011
 9694TIP3    H150573   2.554   4.026   3.045  1.2182 -2.6949  0.4367
 9694TIP3    H250574   2.685   4.094   3.081 -0.3960  0.8752  0.0564
 9695TIP3   OH250575   3.617   1.185  14.383  0.2161 -0.5929  0.2344
 9695TIP3    H150576   3.705   1.174  14.420  0.7198  0.0577 -0.6892
 9695TIP3    H250577   3.598   1.278  14.394 -1.0222 -1.0063  1.7892
 9696TIP3   OH250578   6.335   0.303  15.241 -0.2487 -0.2228 -0.5794
 9696TIP3    H150579   6.254   0.346  15.214 -0.3458  0.5651  0.9093
 9696TIP3    H250580   6.396   0.374  15.259  0.3560 -0.7778 -0.3928
 9697TIP3   OH250581   4.828   0.860  13.558  0.0981 -0.2284  0.1709
 9697TIP3    H150582   4.909   0.910  13.553  0.6481 -0.9746  1.3315
 9697TIP3    H250583   4.831   0.817  13.644 -2.1007  0.7035  0.7735
 9698TIP3   OH250584   6.272   4.416  13.781  0.3867  0.6811 -0.1823
 9698TIP3    H150585   6.211   4.416  13.855  0.4306  0.4534 -0.1447
 9698TIP3    H250586   6.261   4.502  13.741 -0.4519  0.3956 -0.5785
 9699TIP3   OH250587   3.912   5.996  15.610 -0.1157  0.1509 -0.6562
 9699TIP3    H150588   3.850   5.991  15.682  0.5552  2.3741  0.1648
 9699TIP3    H250589   3.948   5.907  15.602 -1.1601 -0.4377  0.8567
 9700TIP3   OH250590   3.741   2.654   4.386 -0.0835  0.2253 -0.0238
 9700TIP3    H150591   3.759   2.562   4.407  1.5182 -0.0746 -2.3240
 9700TIP3    H250592   3.807   2.703   4.435 -0.8596  0.1664  1.1089
 9701TIP3   OH250593   4.377   4.531  14.527 -0.4992  0.8604 -0.4221
 9701TIP3    H150594   4.467   4.539  14.495 -0.0857 -1.5184  0.0110
 9701TIP3    H250595   4.386   4.523  14.622 -1.4507  3.7462  0.0158
 9702TIP3   OH250596   0.395   0.433  15.139  0.2291 -0.1108  0.1005
 9702TIP3    H150597   0.470   0.374  15.152  0.8030  0.3632 -0.9427
 9702TIP3    H250598   0.433   0.521  15.141  0.1116  0.0803 -2.6522
 9703TIP3   OH250599   1.102   0.662  14.917 -0.6735 -0.0936  0.1310
 9703TIP3    H150600   1.126   0.585  14.866  3.0981  0.7281  0.3901
 9703TIP3    H250601   1.123   0.736  14.861 -1.3918  0.7850  0.9920
 9704TIP3   OH250602   4.700   1.384   5.247  0.2744 -0.5748 -0.5756
 9704TIP3    H150603   4.696   1.478   5.263  1.2939 -0.6920  0.5864
 9704TIP3    H250604   4.759   1.374   5.173 -1.4303 -0.2180 -2.0347
 9705TIP3   OH250605   1.955   4.466  10.372 -0.2621  0.1327 -0.3049
 9705TIP3    H150606   1.867   4.441  10.345 -0.1443  0.3276 -0.8852
 9705TIP3    H250607   1.997   4.383  10.397 -0.3808 -0.0487 -0.7067
 9706TIP3   OH250608   1.155   3.542   2.495  0.3662  0.3373  0.4141
 9706TIP3    H150609   1.134   3.537   2.402  1.6260 -0.2235  0.1297
 9706TIP3    H250610   1.236   3.491   2.504 -0.5390 -0.9179  2.0728
 9707TIP3   OH250611   2.807   1.655   5.644 -0.0021 -0.3760 -0.0605
 9707TIP3    H150612   2.837   1.565   5.655 -1.0500 -0.6048  1.1467
 9707TIP3    H250613   2.801   1.690   5.733 -2.4673 -0.1057 -0.2701
 9708TIP3   OH250614   6.140   1.581   3.834 -0.1849 -0.2952  0.2629
 9708TIP3    H150615   6.132   1.676   3.830 -1.6895 -0.3553  1.2747
 9708TIP3    H250616   6.150   1.555   3.742 -1.0576  0.7346 -0.1489
 9709TIP3   OH250617   0.527   2.608   5.116  0.1471 -0.2798 -0.7060
 9709TIP3    H150618   0.435   2.598   5.140  0.3432 -2.4487 -0.5994
 9709TIP3    H250619   0.574   2.547   5.173  1.5648  0.2066 -1.2870
 9710TIP3   OH250620   5.031   5.883  16.097  0.9455 -0.4464 -0.2851
 9710TIP3    H150621   5.010   5.914  16.009  0.3196 -0.7587 -0.2542
 9710TIP3    H250622   5.074   5.798  16.082 -1.4260 -1.7429 -0.2411
 9711TIP3   OH250623   5.081   2.502  14.098 -0.1998  0.5693  0.5699
 9711TIP3    H150624   5.134   2.522  14.176  0.3701 -0.1107  0.3738
 9711TIP3    H250625   5.095   2.408  14.084 -0.4418  0.6519 -0.2525
 9712TIP3   OH250626   3.447   5.198   5.585  0.5184  0.0155  0.7830
 9712TIP3    H150627   3.511   5.130   5.604  0.6539 -0.2783 -0.6175
 9712TIP3    H250628   3.440   5.248   5.666  2.5171  0.0549  0.9786
 9713TIP3   OH250629   6.705   1.098  16.738  0.3733  0.4100 -0.3701
 9713TIP3    H150630   6.777   1.117  16.679 -0.3198  0.6245 -1.1668
 9713TIP3    H250631   6.726   1.146  16.818  0.7236  1.1057 -0.8741
 9714TIP3   OH250632   2.569   2.802   4.990  0.0816  0.2512  0.1979
 9714TIP3    H150633   2.587   2.842   5.075  2.0927  0.7319 -0.4117
 9714TIP3    H250634   2.649   2.755   4.968 -0.6466 -0.4150 -1.1392
 9715TIP3   OH250635   3.397   3.279  13.389  0.2053  0.3535 -0.0530
 9715TIP3    H150636   3.474   3.269  13.445  0.6545  0.1138 -0.6956
 9715TIP3    H250637   3.433   3.281  13.300 -0.5623 -0.1936 -0.3848
 9716TIP3   OH250638   1.314   1.218  11.891  0.2096  0.2449 -0.0318
 9716TIP3    H150639   1.293   1.125  11.887  0.2473  0.2112  0.4914
 9716TIP3    H250640   1.398   1.226  11.845 -1.2685  0.5063 -2.9033
 9717TIP3   OH250641   2.644   4.567   4.387 -0.9535 -0.4705 -0.2438
 9717TIP3    H150642   2.552   4.575   4.363 -0.7137  0.3209 -0.9941
 9717TIP3    H250643   2.662   4.473   4.385 -1.3005 -0.5323 -1.9137
 9718TIP3   OH250644   4.427   5.789  16.908  0.6228 -0.0420 -0.4334
 9718TIP3    H150645   4.405   5.749  16.824  1.0544  0.3659 -0.7392
 9718TIP3    H250646   4.435   5.882  16.890  0.7706  0.0430  0.0480
 9719TIP3   OH250647   3.558   0.759  12.584 -0.4058 -0.0796  0.9471
 9719TIP3    H150648   3.562   0.792  12.674  1.3252 -1.6371  1.4955
 9719TIP3    H250649   3.647   0.768  12.551  0.1155 -3.7933  1.0254
 9720TIP3   OH250650   2.774   0.294  12.668  0.1515  0.2330 -0.0113
 9720TIP3    H150651   2.788   0.202  12.646 -1.4746  0.1682 -0.9279
 9720TIP3    H250652   2.849   0.317  12.723  0.6348 -1.6106  0.1770
 9721TIP3   OH250653   3.829   5.171   4.897  0.1239 -0.3385  0.5972
 9721TIP3    H150654   3.849   5.088   4.853  1.4455  0.7994 -1.1102
 9721TIP3    H250655   3.858   5.158   4.987  3.8643 -0.6280 -0.4569
 9722TIP3   OH250656   1.876   2.528  11.124  0.8372  0.3269  0.6274
 9722TIP3    H150657   1.933   2.587  11.075 -0.3246  0.7793 -0.2172
 9722TIP3    H250658   1.857   2.575  11.205  1.5239  0.2370  0.8498
 9723TIP3   OH250659   3.928   5.833  14.566  0.1827 -0.3985 -0.5803
 9723TIP3    H150660   3.914   5.787  14.648  2.0343  1.8931  1.1934
 9723TIP3    H250661   3.958   5.766  14.505  0.8521 -1.8457  1.2609
 9724TIP3   OH250662   5.311   4.353   0.655  0.3888 -0.2420  0.6634
 9724TIP3    H150663   5.240   4.398   0.701 -0.4299 -0.2292 -0.5506
 9724TIP3    H250664   5.325   4.406   0.576 -0.9241 -2.2837 -1.0586
 9725TIP3   OH250665   2.676   2.245  14.398  0.1056  0.5383  0.1160
 9725TIP3    H150666   2.732   2.224  14.473  1.5258  2.5911 -0.2777
 9725TIP3    H250667   2.735   2.240  14.322 -1.0273 -0.3378 -0.7406
 9726TIP3   OH250668   6.184   5.865   2.482  0.3192  0.2902  0.2518
 9726TIP3    H150669   6.209   5.854   2.574  0.9682 -0.8557 -0.0418
 9726TIP3    H250670   6.111   5.927   2.484  1.6700  1.9538  1.3468
 9727TIP3   OH250671   4.493   0.245   5.841  0.0234 -0.1401  0.4331
 9727TIP3    H150672   4.467   0.280   5.756  0.0156 -0.5251  0.2757
 9727TIP3    H250673   4.481   0.151   5.833  1.5043 -0.3432  0.3248
 9728TIP3   OH250674   3.412   1.107  16.692  0.0605 -0.2527  0.0290
 9728TIP3    H150675   3.373   1.113  16.605 -1.2849  1.2768  0.6786
 9728TIP3    H250676   3.505   1.126  16.678 -0.0729 -0.3867 -1.1196
 9729TIP3   OH250677   1.847   4.564  12.773  0.1691 -0.0400 -0.3143
 9729TIP3    H150678   1.856   4.507  12.849  0.3374  0.1677 -0.1778
 9729TIP3    H250679   1.817   4.648  12.808 -1.9208 -0.5585 -0.7047
 9730TIP3   OH250680   2.432   6.269  17.102  0.4490 -0.3273  0.3782
 9730TIP3    H150681   2.466   6.180  17.100 -0.9947 -0.8931 -0.2142
 9730TIP3    H250682   2.404   6.287  17.013 -2.9398 -0.8160  1.2132
 9731TIP3   OH250683   5.092   2.602   2.347 -0.2823 -0.2733  0.2958
 9731TIP3    H150684   5.108   2.604   2.252 -0.0990 -1.2832  0.2910
 9731TIP3    H250685   5.010   2.553   2.356 -0.6140  0.3352  0.6287
 9732TIP3   OH250686   4.297   3.385   1.091  0.4320  0.1176  0.0206
 9732TIP3    H150687   4.338   3.383   1.005 -0.8882  0.8054 -0.6347
 9732TIP3    H250688   4.203   3.388   1.074  0.1694  1.3849  1.4565
 9733TIP3   OH250689   4.115   0.549   4.302  0.2234 -0.1538 -0.6865
 9733TIP3    H150690   4.064   0.587   4.374  0.5386 -0.1546 -0.4634
 9733TIP3    H250691   4.202   0.535   4.339  0.7681  1.0622 -1.4463
 9734TIP3   OH250692   4.086   1.353   5.826 -0.4910 -0.0710 -0.0976
 9734TIP3    H150693   4.033   1.400   5.762 -1.1767 -1.3084 -0.4727
 9734TIP3    H250694   4.171   1.396   5.822 -1.4173  1.9619  0.5160
 9735TIP3   OH250695   5.094   4.094  15.175  0.3200  0.2240 -0.2153
 9735TIP3    H150696   5.117   4.112  15.266 -0.4737 -2.5236  0.6210
 9735TIP3    H250697   5.055   4.175  15.143 -0.2674  0.9666  2.1965
 9736TIP3   OH250698   0.851   0.092  14.195  0.4438 -0.0948 -0.0067
 9736TIP3    H150699   0.917   0.031  14.228  1.1985 -0.0189 -1.3156
 9736TIP3    H250700   0.900   0.151  14.137 -0.7687  0.0027 -0.9587
 9737TIP3   OH250701   0.530   4.420   5.087 -0.3330 -0.1235 -0.0961
 9737TIP3    H150702   0.525   4.511   5.116  0.6971  0.4133 -1.5092
 9737TIP3    H250703   0.594   4.380   5.146  1.4235  0.8502 -1.2261
 9738TIP3   OH250704   6.491   1.192  15.254 -0.0986 -0.2723 -0.3099
 9738TIP3    H150705   6.561   1.248  15.219  0.2975 -0.5034  0.0964
 9738TIP3    H250706   6.416   1.208  15.196  0.5020 -0.5573 -1.1915
 9739TIP3   OH250707   3.466   3.279  13.972  0.0368 -0.3816  0.4039
 9739TIP3    H150708   3.400   3.221  14.009 -0.5165  0.7454  1.2569
 9739TIP3    H250709   3.541   3.272  14.031  0.2166 -0.7063  0.1417
 9740TIP3   OH250710   2.561   2.093   2.923 -0.0247 -0.4662 -0.1462
 9740TIP3    H150711   2.488   2.065   2.867  0.3425  0.3069 -1.0289
 9740TIP3    H250712   2.623   2.133   2.863  0.0710  1.0269  0.8985
 9741TIP3   OH250713   4.963   3.702  15.964 -0.3073  0.5226  1.0424
 9741TIP3    H150714   4.882   3.745  15.990  0.1439  0.7967  2.0556
 9741TIP3    H250715   4.976   3.633  16.028  1.0470  1.4803  1.8638
 9742TIP3   OH250716   0.646   5.600   5.156  0.0099  0.6417 -0.2377
 9742TIP3    H150717   0.617   5.585   5.065  0.4122  0.9591 -0.4197
 9742TIP3    H250718   0.719   5.660   5.148  0.8487 -0.2932  0.2047
 9743TIP3   OH250719   1.171   5.061  11.729 -0.5896 -1.3407  1.1257
 9743TIP3    H150720   1.245   5.016  11.687 -0.7553  1.0159 -2.0393
 9743TIP3    H250721   1.117   4.991  11.764  2.3092 -3.2236  2.1818
 9744TIP3   OH250722   2.701   2.439  16.820 -0.5140  0.2025 -0.2172
 9744TIP3    H150723   2.633   2.470  16.761  0.9783  0.7657 -1.7343
 9744TIP3    H250724   2.705   2.503  16.890  0.4173  1.8425 -1.6863
 9745TIP3   OH250725   1.022   6.493  12.673  0.1774 -0.0389 -0.0568
 9745TIP3    H150726   1.005   6.585  12.653  2.3740  0.1780 -1.2139
 9745TIP3    H250727   0.977   6.477  12.756 -0.0455  2.1297  0.2788
 9746TIP3   OH250728   1.160   4.202   0.277 -0.1916 -1.1525 -0.0060
 9746TIP3    H150729   1.147   4.282   0.226 -1.5397 -0.7148  0.9780
 9746TIP3    H250730   1.255   4.197   0.291 -0.1498  0.7512  0.6649
 9747TIP3   OH250731   0.519   1.626  12.366 -0.0104  0.0015 -0.3680
 9747TIP3    H150732   0.580   1.581  12.308  2.9247 -0.4541  2.7840
 9747TIP3    H250733   0.539   1.719  12.354  1.0331 -0.1238  0.3362
 9748TIP3   OH250734   2.340   1.546  15.701 -0.3388  0.0217  0.5199
 9748TIP3    H150735   2.382   1.629  15.676 -0.0912 -0.1356  0.4156
 9748TIP3    H250736   2.381   1.523  15.785  0.1443 -0.3821  0.1827
 9749TIP3   OH250737   5.574   4.722  11.043  0.1982  0.2392 -0.1425
 9749TIP3    H150738   5.664   4.752  11.056  0.0542  0.4158  0.4393
 9749TIP3    H250739   5.533   4.728  11.129  0.1968 -1.7385  0.0428
 9750TIP3   OH250740   2.440   0.599  14.060  0.4365 -0.1306  0.1853
 9750TIP3    H150741   2.503   0.531  14.034  1.6719  0.5861  1.2107
 9750TIP3    H250742   2.374   0.551  14.109 -1.0265 -1.2332 -2.6343
 9751TIP3   OH250743   3.449   0.821   3.385  0.5978 -0.1773 -0.1553
 9751TIP3    H150744   3.381   0.777   3.438 -0.3948 -1.0546 -2.0530
 9751TIP3    H250745   3.503   0.867   3.449 -0.3063 -1.4988  1.6533
 9752TIP3   OH250746   5.645   5.900  14.459  0.1628 -0.3883  0.0656
 9752TIP3    H150747   5.605   5.900  14.546  0.8455 -0.5230  0.3874
 9752TIP3    H250748   5.731   5.939  14.472 -1.0375  3.0313 -1.1934
 9753TIP3   OH250749   3.390   1.541  13.753  0.8640 -0.7226 -0.6281
 9753TIP3    H150750   3.423   1.451  13.746 -0.1010 -1.2266  0.7648
 9753TIP3    H250751   3.456   1.586  13.806 -0.4984 -1.7299  2.1564
 9754TIP3   OH250752   3.051   0.762   1.005  0.0780 -0.0505  0.4025
 9754TIP3    H150753   2.970   0.723   0.972 -0.7193  1.5546  0.3431
 9754TIP3    H250754   3.021   0.826   1.070  1.3810 -0.2195  1.1992
 9755TIP3   OH250755   5.621   1.566   2.659 -0.2826 -0.4036 -0.5378
 9755TIP3    H150756   5.629   1.621   2.581  0.4192  0.8725  0.4015
 9755TIP3    H250757   5.625   1.627   2.732  0.2475 -1.6832  0.5433
 9756TIP3   OH250758   0.489   1.418  14.902 -0.2871  0.1113 -0.2040
 9756TIP3    H150759   0.544   1.480  14.853  0.2890  0.3265  0.6783
 9756TIP3    H250760   0.400   1.446  14.883 -0.0352  1.3847  0.3479
 9757TIP3   OH250761   0.029   1.806  12.851 -0.0726 -0.3729  0.1397
 9757TIP3    H150762   0.100   1.748  12.878  1.5073  0.4014 -2.0960
 9757TIP3    H250763  -0.048   1.748  12.845  0.2740 -1.2205  2.5835
 9758TIP3   OH250764   2.962   3.100   2.424  0.4613 -0.0848  0.5381
 9758TIP3    H150765   2.980   3.026   2.482 -0.4664  0.0491  1.0069
 9758TIP3    H250766   3.043   3.151   2.424  1.6483 -1.8254 -0.9123
 9759TIP3   OH250767   6.526   1.953  16.396  0.4688 -0.0459 -0.8637
 9759TIP3    H150768   6.519   1.929  16.488  0.4387  0.0898 -0.8301
 9759TIP3    H250769   6.554   2.045  16.398  0.7194 -0.1164 -0.9894
 9760TIP3   OH250770   6.437   4.835  12.520 -0.1372  0.0987 -0.0592
 9760TIP3    H150771   6.524   4.798  12.533  0.4830  0.2647 -2.9887
 9760TIP3    H250772   6.451   4.930  12.522 -0.4011  0.1307  0.2686
 9761TIP3   OH250773   6.629   3.627  12.645 -0.3768  0.2238  0.3785
 9761TIP3    H150774   6.705   3.636  12.588 -1.4339 -0.4483 -1.1927
 9761TIP3    H250775   6.666   3.602  12.730  1.1193 -0.6846 -0.4891
 9762TIP3   OH250776   6.155   5.420  12.910  0.6946  0.0607  0.3415
 9762TIP3    H150777   6.096   5.494  12.890  0.8493 -0.6260 -3.3956
 9762TIP3    H250778   6.098   5.357  12.954 -1.3031 -0.1933 -2.3052
 9763TIP3   OH250779   0.056   1.284  13.762  0.0508  0.2566  0.5767
 9763TIP3    H150780  -0.021   1.321  13.719  0.3436 -0.8654 -1.0346
 9763TIP3    H250781   0.021   1.218  13.822 -0.2830 -1.9619 -1.8496
 9764TIP3   OH250782   0.079   1.392  17.146  0.0742  0.2960  0.0517
 9764TIP3    H150783   0.136   1.343  17.205  1.1840 -0.0046 -1.2145
 9764TIP3    H250784   0.135   1.463  17.113  0.1293 -0.6596 -2.0823
 9765TIP3   OH250785   0.256   6.606   0.308 -0.4316  0.2928 -0.5403
 9765TIP3    H150786   0.329   6.660   0.338 -0.2011 -0.3734  0.1217
 9765TIP3    H250787   0.265   6.604   0.212  1.5781 -1.3613 -0.3893
 9766TIP3   OH250788   2.108   5.752   0.410  0.0693  0.4876 -0.5856
 9766TIP3    H150789   2.036   5.732   0.471  0.5775  1.5517  0.3849
 9766TIP3    H250790   2.132   5.842   0.429  2.1283 -0.0453 -0.4125
 9767TIP3   OH250791   2.652   0.734   4.009  0.6804 -0.2881 -0.8172
 9767TIP3    H150792   2.644   0.643   4.037  0.4322 -0.4582 -1.4183
 9767TIP3    H250793   2.720   0.771   4.066  1.2436 -1.0258 -0.9928
 9768TIP3   OH250794   4.573   6.499   2.181 -0.4359 -0.8750 -1.0244
 9768TIP3    H150795   4.503   6.564   2.174 -0.1918 -0.2420  1.5997
 9768TIP3    H250796   4.576   6.476   2.273  2.1444 -1.6560 -1.2280
 9769TIP3   OH250797   5.028   4.256  11.057 -0.2032 -0.3453 -1.3963
 9769TIP3    H150798   4.975   4.328  11.022  0.4491  0.8318 -0.0943
 9769TIP3    H250799   4.966   4.197  11.098 -0.5400  1.4316  0.8457
 9770TIP3   OH250800   1.548   0.610   4.871  0.5143 -0.3427  0.3990
 9770TIP3    H150801   1.604   0.533   4.882 -1.4639 -2.0131 -0.4478
 9770TIP3    H250802   1.517   0.630   4.959  0.0686 -1.3218  0.4781
 9771TIP3   OH250803   1.910   3.660   2.710  0.5677 -0.0190 -0.1467
 9771TIP3    H150804   1.818   3.645   2.729  0.6366  0.1859  0.3679
 9771TIP3    H250805   1.910   3.724   2.639  0.3116 -0.2351 -0.3402
 9772TIP3   OH250806   4.246   1.889  12.089  0.8152 -0.3128 -0.7085
 9772TIP3    H150807   4.236   1.977  12.125 -0.7876  0.2025 -2.2394
 9772TIP3    H250808   4.340   1.878  12.076  1.2733  0.2056  1.6939
 9773TIP3   OH250809   1.195   4.600  14.908 -0.3671 -0.0870  0.6717
 9773TIP3    H150810   1.271   4.542  14.911  0.2263  0.6181 -0.1341
 9773TIP3    H250811   1.160   4.599  14.997  0.4633 -0.5873  1.0021
 9774TIP3   OH250812   1.546   0.774   0.113  0.3737  0.3931  0.1435
 9774TIP3    H150813   1.467   0.822   0.087 -0.4037 -0.9404 -0.0347
 9774TIP3    H250814   1.559   0.796   0.205 -0.6461  0.0293  0.3774
 9775TIP3   OH250815   1.002   4.456  13.674  0.0835  0.4614 -1.1046
 9775TIP3    H150816   0.940   4.519  13.637  0.2924  0.2381 -1.8384
 9775TIP3    H250817   1.078   4.459  13.616  1.1873  1.4442  0.3116
 9776TIP3   OH250818   3.801   5.704   0.636  0.3129  0.3614 -0.3210
 9776TIP3    H150819   3.807   5.712   0.731 -0.0274  2.5298 -0.4355
 9776TIP3    H250820   3.749   5.625   0.622  0.5717 -0.1275  1.2739
 9777TIP3   OH250821   4.549   2.555   5.023 -0.0862  0.5714 -0.2125
 9777TIP3    H150822   4.487   2.524   4.957  0.5877  0.1253 -0.6470
 9777TIP3    H250823   4.629   2.503   5.008  0.1888  0.6976  0.7348
 9778TIP3   OH250824   2.885   0.315   2.721 -0.1689 -0.0676  0.5192
 9778TIP3    H150825   2.886   0.282   2.811  0.2299 -0.6429  0.3073
 9778TIP3    H250826   2.954   0.266   2.676 -0.0424  0.5568  0.0165
 9779TIP3   OH250827   6.307   2.548   2.045  0.1703  0.1805 -0.1226
 9779TIP3    H150828   6.340   2.604   1.975  1.9837 -0.7979 -0.1121
 9779TIP3    H250829   6.327   2.596   2.126  1.6217 -0.3661 -0.1196
 9780TIP3   OH250830   6.156   2.522  13.735  0.1476  0.2457 -0.0708
 9780TIP3    H150831   6.235   2.483  13.697  0.5691  1.5411 -0.5970
 9780TIP3    H250832   6.188   2.582  13.802 -0.4909 -0.4137  0.8406
 9781TIP3   OH250833   1.929   0.540  15.892 -0.3333  0.5867  0.1735
 9781TIP3    H150834   1.878   0.557  15.971 -2.2618 -0.5469 -0.7612
 9781TIP3    H250835   1.976   0.622  15.876 -2.0480  1.7897  0.9764
 9782TIP3   OH250836   0.869   0.042   1.031  0.4354 -0.2424  0.4974
 9782TIP3    H150837   0.796   0.085   1.075  0.0254 -1.2731  0.8324
 9782TIP3    H250838   0.895   0.104   0.963  0.5563  1.0274  1.6444
 9783TIP3   OH250839   1.589   0.839   0.376  0.2618  0.2899 -0.3001
 9783TIP3    H150840   1.621   0.829   0.466  1.4445 -0.2250 -0.7628
 9783TIP3    H250841   1.655   0.893   0.333  1.0389 -1.5403 -1.5229
 9784TIP3   OH250842   0.541   0.871  16.127  0.0634 -0.0320  0.5047
 9784TIP3    H150843   0.494   0.897  16.206 -0.0293  0.9250  0.1490
 9784TIP3    H250844   0.595   0.796  16.154  0.7175  0.8465  1.7158
 9785TIP3   OH250845   2.274   4.338   2.602  0.0166  0.0482 -0.3407
 9785TIP3    H150846   2.338   4.310   2.537  0.9614 -0.9600  0.9564
 9785TIP3    H250847   2.243   4.257   2.642 -0.0551  0.6603  0.8963
 9786TIP3   OH250848   4.737   6.056   3.241  0.1688 -0.4541  0.4051
 9786TIP3    H150849   4.643   6.058   3.221  0.1693 -0.9656  0.3560
 9786TIP3    H250850   4.749   5.975   3.290  0.9945 -1.6537 -1.6607
 9787TIP3   OH250851   0.439   0.792  15.775 -0.1571 -0.5464  0.1514
 9787TIP3    H150852   0.487   0.875  15.772 -0.7103 -0.1909  0.8163
 9787TIP3    H250853   0.393   0.794  15.859 -2.5203 -0.2098 -1.0690
 9788TIP3   OH250854   4.645   4.465   3.666  0.4027 -0.2401 -0.6900
 9788TIP3    H150855   4.600   4.527   3.722  3.5689  2.3094 -0.6887
 9788TIP3    H250856   4.614   4.379   3.695 -3.3487  1.1973  0.0593
 9789TIP3   OH250857   3.856   5.341  12.619  0.5565  0.8262 -0.0472
 9789TIP3    H150858   3.877   5.300  12.703  0.2621  1.1115  0.1722
 9789TIP3    H250859   3.876   5.275  12.553 -0.1069  0.2476  0.3142
 9790TIP3   OH250860   2.460   5.618  10.621  0.2232 -0.2728  0.2284
 9790TIP3    H150861   2.444   5.679  10.548 -0.4607 -0.9066 -0.1646
 9790TIP3    H250862   2.520   5.553  10.584 -0.7534 -1.0474 -0.0351
 9791TIP3   OH250863   2.892   0.169  15.766  0.0619  0.3346  0.5738
 9791TIP3    H150864   2.935   0.101  15.816 -1.8949 -1.1898  0.2904
 9791TIP3    H250865   2.945   0.177  15.686  0.4938 -0.6231  0.7538
 9792TIP3   OH250866   6.471   2.886   3.249  0.3928  0.1726 -0.0517
 9792TIP3    H150867   6.544   2.840   3.291  0.5047  1.8716  1.7889
 9792TIP3    H250868   6.514   2.944   3.185  0.9692  2.4011  2.1718
 9793TIP3   OH250869   4.822   0.268   2.289 -0.5547  0.3277 -0.7495
 9793TIP3    H150870   4.842   0.204   2.357 -0.8817 -0.9161 -1.7948
 9793TIP3    H250871   4.903   0.317   2.277  0.6219 -1.7706 -1.8819
 9794TIP3   OH250872   2.748   4.086   1.909  0.2616  0.4085  0.5246
 9794TIP3    H150873   2.695   4.051   1.980  0.4461 -1.7936 -0.3321
 9794TIP3    H250874   2.692   4.079   1.831  1.7396 -2.2223 -0.4503
 9795TIP3   OH250875   5.813   0.356  14.269 -0.4945  0.2928 -0.0123
 9795TIP3    H150876   5.902   0.325  14.252 -1.6297 -3.3847  0.0325
 9795TIP3    H250877   5.801   0.342  14.363 -1.3964 -0.0950 -0.1821
 9796TIP3   OH250878   3.361   0.372  13.948 -0.1954 -0.2037 -0.2107
 9796TIP3    H150879   3.446   0.401  13.982 -0.2887 -0.3130  0.1183
 9796TIP3    H250880   3.335   0.441  13.887 -1.8201  2.0211  2.7286
 9797TIP3   OH250881   1.961   4.947   1.225  0.2862 -0.2691 -0.1910
 9797TIP3    H150882   2.043   4.958   1.177  0.8936 -0.9548  0.6440
 9797TIP3    H250883   1.947   5.031   1.269 -0.5822  0.5620 -1.9765
 9798TIP3   OH250884   4.047   3.593  16.028  0.1084  0.5275 -0.0186
 9798TIP3    H150885   4.002   3.651  15.966 -1.3565 -0.3089  0.2181
 9798TIP3    H250886   4.140   3.615  16.018 -0.2397  1.5547 -1.3123
 9799TIP3   OH250887   6.029   1.191  15.169 -0.1275  0.4929  0.1167
 9799TIP3    H150888   6.010   1.165  15.079 -1.3421  0.6124  0.3184
 9799TIP3    H250889   6.109   1.243  15.162 -0.3295  0.6962 -0.9355
 9800TIP3   OH250890   4.887   3.724  16.513  0.5561  0.6524  0.0513
 9800TIP3    H150891   4.824   3.680  16.570  2.0975  0.1392  1.4316
 9800TIP3    H250892   4.836   3.792  16.468 -1.2469 -0.6172  0.0742
 9801TIP3   OH250893   6.579   3.273   1.398  0.5732  0.5239  0.6060
 9801TIP3    H150894   6.542   3.221   1.326 -0.1776  1.2577  0.4366
 9801TIP3    H250895   6.672   3.252   1.397  0.6649  0.8687 -0.8906
 9802TIP3   OH250896   5.091   1.563  11.886 -0.1824 -0.0780 -0.1400
 9802TIP3    H150897   5.118   1.535  11.798  0.8034  0.9311 -0.1836
 9802TIP3    H250898   5.167   1.544  11.941 -0.5264 -0.0330  0.3489
 9803TIP3   OH250899   2.061   1.471   4.071  0.2850  0.3382 -0.4006
 9803TIP3    H150900   2.041   1.563   4.059 -1.6440  0.4290  2.5848
 9803TIP3    H250901   1.989   1.424   4.029  1.2617  0.0917 -1.9153
 9804TIP3   OH250902   2.315   5.624  12.653 -0.3444  0.9356 -0.1359
 9804TIP3    H150903   2.336   5.683  12.726 -2.7621 -0.6988  2.0753
 9804TIP3    H250904   2.399   5.589  12.625  0.8509  3.0536  0.5263
 9805TIP3   OH250905   2.570   2.957  15.843  0.0094  0.0955  0.6746
 9805TIP3    H150906   2.543   2.995  15.759  0.8883 -0.1338  0.2809
 9805TIP3    H250907   2.662   2.983  15.852  0.7788 -2.2108  0.2127
 9806TIP3   OH250908   6.749   0.625   5.704 -0.8128 -0.0677 -0.5145
 9806TIP3    H150909   6.724   0.700   5.759 -0.4176 -2.2316  2.9283
 9806TIP3    H250910   6.844   0.616   5.718 -1.2252 -2.6650  1.3813
 9807TIP3   OH250911   6.155   3.581  13.006  0.1099 -0.4530 -0.2289
 9807TIP3    H150912   6.066   3.593  12.972 -0.8283 -1.1712  1.7916
 9807TIP3    H250913   6.212   3.599  12.931 -1.7066  0.4670 -1.4730
 9808TIP3   OH250914   5.450   0.467   1.262  0.1963 -0.0932  0.3042
 9808TIP3    H150915   5.510   0.520   1.209  1.2104 -0.1360  1.3749
 9808TIP3    H250916   5.506   0.426   1.328 -0.4362 -2.8645 -0.7178
 9809TIP3   OH250917   6.343   4.908   0.831 -0.1890 -0.0578 -0.5270
 9809TIP3    H150918   6.424   4.925   0.880 -0.7764  0.9191  0.1410
 9809TIP3    H250919   6.284   4.979   0.858 -1.2668 -0.7616 -1.0033
 9810TIP3   OH250920   4.414   6.682   2.995  0.4201 -0.2681 -0.0009
 9810TIP3    H150921   4.494   6.633   3.012  1.2643  1.0700 -0.0045
 9810TIP3    H250922   4.442   6.773   2.987 -1.0069  0.1501 -0.6803
 9811TIP3   OH250923   4.517   1.916   5.223 -0.1666  0.1608 -0.1558
 9811TIP3    H150924   4.522   2.006   5.189 -0.1250  0.1741 -0.1135
 9811TIP3    H250925   4.466   1.924   5.304 -0.6029  0.0755 -0.4139
 9812TIP3   OH250926   1.746   5.261   4.750 -0.0394  0.1637 -0.0610
 9812TIP3    H150927   1.744   5.196   4.821  0.0956  0.2662  0.0349
 9812TIP3    H250928   1.664   5.309   4.760 -0.1648 -0.0252 -0.1635
 9813TIP3   OH250929   4.924   0.560   2.620  0.1195 -0.5923 -0.1644
 9813TIP3    H150930   4.869   0.534   2.693 -0.4822 -0.7209 -0.6515
 9813TIP3    H250931   4.889   0.512   2.545 -1.6781  2.2623 -1.3148
 9814TIP3   OH250932   3.584   1.103   5.397 -0.0269 -0.1260  0.1190
 9814TIP3    H150933   3.617   1.037   5.336  0.8129  0.9026 -0.5821
 9814TIP3    H250934   3.572   1.056   5.480  0.4892 -1.1613 -0.3812
 9815TIP3   OH250935   5.973   1.119  16.966  0.2083  0.4993 -0.6038
 9815TIP3    H150936   5.959   1.067  17.046 -1.4605  1.8211  0.0363
 9815TIP3    H250937   5.885   1.130  16.930  0.8269  0.8537 -2.0509
 9816TIP3   OH250938   1.265   2.916   4.641  0.5257 -0.0928 -0.1036
 9816TIP3    H150939   1.241   2.979   4.574  1.1297 -0.3476 -0.5720
 9816TIP3    H250940   1.199   2.927   4.710 -0.3326 -0.1089 -0.9119
 9817TIP3   OH250941   5.221   2.667   1.181  0.2722 -0.0091  0.9597
 9817TIP3    H150942   5.272   2.632   1.254  1.8499 -0.0890 -0.1310
 9817TIP3    H250943   5.241   2.608   1.108 -0.7680  0.4380  0.2961
 9818TIP3   OH250944   0.460   0.270   1.433  0.7448  0.0688 -0.0867
 9818TIP3    H150945   0.453   0.181   1.397 -0.3365 -0.0198  0.3155
 9818TIP3    H250946   0.421   0.264   1.520 -1.4103  1.4201 -0.9050
 9819TIP3   OH250947   0.435   3.852   3.299  0.0345 -0.1397  1.1264
 9819TIP3    H150948   0.458   3.909   3.372  0.1968  0.8602  0.3224
 9819TIP3    H250949   0.501   3.871   3.232 -0.6092 -0.4008  0.4060
 9820TIP3   OH250950   6.039   6.774  15.705  0.1159 -0.0951 -0.9624
 9820TIP3    H150951   6.015   6.729  15.786  6.3412  1.4112  2.3704
 9820TIP3    H250952   6.088   6.710  15.655  1.7731  0.6011 -0.2931
 9821TIP3   OH250953   0.517   0.401   2.950  0.0871 -0.2970 -0.0822
 9821TIP3    H150954   0.483   0.429   2.865  0.4596  0.0710 -0.1083
 9821TIP3    H250955   0.569   0.323   2.930  0.6880  0.1506 -0.2771
 9822TIP3   OH250956   0.045   4.519   4.521  0.0493 -0.1629  0.1682
 9822TIP3    H150957   0.016   4.518   4.430 -0.3643 -0.8768  0.3026
 9822TIP3    H250958   0.020   4.606   4.553 -2.4593 -0.8847  0.4267
 9823TIP3   OH250959   2.419   1.057   3.748 -0.0702 -0.0487 -0.3197
 9823TIP3    H150960   2.353   0.998   3.710 -0.1649 -0.6875  0.7728
 9823TIP3    H250961   2.486   0.998   3.782  0.2771  0.5263  0.0004
 9824TIP3   OH250962   1.783   5.724  16.036 -0.3807  0.0106 -0.5358
 9824TIP3    H150963   1.866   5.682  16.011  0.2552 -0.1949  1.6611
 9824TIP3    H250964   1.792   5.739  16.131 -3.1401 -0.6901 -0.0796
 9825TIP3   OH250965   3.966   2.897   6.557  0.3539 -0.6230 -0.1304
 9825TIP3    H150966   3.965   2.914   6.463 -2.3445 -1.2429 -0.3031
 9825TIP3    H250967   4.009   2.812   6.566 -1.2088 -1.5808 -1.1026
 9826TIP3   OH250968   4.577   3.726  15.133  0.1873  0.6013 -0.1604
 9826TIP3    H150969   4.575   3.701  15.225  2.3965  0.7898 -0.0110
 9826TIP3    H250970   4.525   3.660  15.089 -1.1587  0.6700  1.2377
 9827TIP3   OH250971   1.913   1.131  15.651  0.0352  0.2534 -0.4756
 9827TIP3    H150972   1.904   1.141  15.746 -0.6686  1.3837 -0.6512
 9827TIP3    H250973   1.864   1.203  15.614 -0.9723 -1.0329 -1.7570
 9828TIP3   OH250974   2.709   4.768   0.847  0.3817  0.0712  0.1792
 9828TIP3    H150975   2.632   4.753   0.901 -0.1176 -0.8014 -0.7468
 9828TIP3    H250976   2.675   4.780   0.759  1.4404 -4.5242 -1.0989
 9829TIP3   OH250977   1.357   4.640   2.079 -0.0625  0.2815 -0.0479
 9829TIP3    H150978   1.309   4.623   1.998  0.5505 -0.7196 -0.2177
 9829TIP3    H250979   1.357   4.556   2.125 -0.9054  0.9723  1.2822
 9830TIP3   OH250980   1.251   3.613  15.144 -0.8643 -0.1304 -0.2447
 9830TIP3    H150981   1.332   3.569  15.117 -0.2235  0.2940  0.9070
 9830TIP3    H250982   1.225   3.567  15.224 -1.2732  0.3070 -0.1221
 9831TIP3   OH250983   2.748   5.877  17.136 -0.1005 -0.2435 -0.0462
 9831TIP3    H150984   2.723   5.856  17.226 -0.7923  0.5410 -0.0488
 9831TIP3    H250985   2.807   5.806  17.111 -1.0841 -1.2966  0.5052
 9832TIP3   OH250986   4.525   3.276  15.334  0.1842 -1.2928 -0.4423
 9832TIP3    H150987   4.489   3.235  15.412 -1.9189 -0.7863 -1.0716
 9832TIP3    H250988   4.619   3.277  15.348 -0.1107 -1.5406  1.9114
 9833TIP3   OH250989   1.121   0.895   0.916 -0.1639 -0.2069  0.2713
 9833TIP3    H150990   1.159   0.923   1.000 -1.4704 -0.5807  1.0171
 9833TIP3    H250991   1.034   0.863   0.939 -0.3566 -0.7894 -1.1760
 9834TIP3   OH250992   6.707   4.722   2.159 -0.0288 -0.0105 -0.2725
 9834TIP3    H150993   6.655   4.648   2.128 -0.1856 -0.5546  1.2131
 9834TIP3    H250994   6.798   4.694   2.152 -0.0564 -0.0472 -0.4610
 9835TIP3   OH250995   5.938   2.165  12.142 -0.7018  0.1528  0.3889
 9835TIP3    H150996   5.868   2.231  12.147 -1.5253 -0.6693  0.0616
 9835TIP3    H250997   5.893   2.085  12.115  0.6574  0.0186 -1.6970
 9836TIP3   OH250998   5.764   5.413  14.721 -0.6529 -0.2930  0.3956
 9836TIP3    H150999   5.794   5.357  14.793  0.1432 -1.6661 -0.9470
 9836TIP3    H251000   5.802   5.499  14.742  0.7653 -1.0003  0.9080
 9837TIP3   OH251001   0.295   4.168  16.364  0.1179  0.4855 -0.1098
 9837TIP3    H151002   0.387   4.193  16.370  0.2676  0.7278 -2.5110
 9837TIP3    H251003   0.275   4.174  16.271 -2.4032  0.6505  0.3849
 9838TIP3   OH251004   1.293   4.708   4.556  0.3887  0.0744  0.2864
 9838TIP3    H151005   1.211   4.718   4.507  1.2885  1.2289 -1.0569
 9838TIP3    H251006   1.344   4.644   4.507  0.9698  0.6229  0.1642
 9839TIP3   OH251007   5.409   4.788   5.788 -0.5845  0.4083 -0.1782
 9839TIP3    H151008   5.406   4.874   5.830 -0.3104 -0.8079  2.5458
 9839TIP3    H251009   5.346   4.735   5.837  0.4143 -1.3662 -0.7099
 9840TIP3   OH251010   1.952   1.602  12.792 -0.5224 -0.1363  0.4701
 9840TIP3    H151011   1.869   1.648  12.780  0.1849  1.0611 -0.1306
 9840TIP3    H251012   1.971   1.565  12.705 -1.4351 -2.2630  1.1170
 9841TIP3   OH251013   6.459   2.611  13.472  0.2380 -0.0814  0.0988
 9841TIP3    H151014   6.458   2.701  13.505 -0.0793  0.4028 -1.1809
 9841TIP3    H251015   6.369   2.594  13.446  0.3097 -0.7583  0.2815
 9842TIP3   OH251016   6.649   2.518   0.391  0.0124 -0.3512 -0.0308
 9842TIP3    H151017   6.735   2.536   0.353 -0.6176  2.5627 -0.2555
 9842TIP3    H251018   6.587   2.537   0.321 -0.9756  1.4145  1.2658
 9843TIP3   OH251019   6.769   4.848   5.935  0.2306  0.2333  0.3386
 9843TIP3    H151020   6.736   4.816   6.019  1.0671 -1.2030  0.1606
 9843TIP3    H251021   6.721   4.796   5.869  1.2696 -0.3481  0.0208
 9844TIP3   OH251022   6.254   4.500  11.511  0.5529  0.3756  0.3486
 9844TIP3    H151023   6.169   4.524  11.473  0.2400 -0.1855  0.6665
 9844TIP3    H251024   6.233   4.429  11.571  1.2529  0.2514  0.4514
 9845TIP3   OH251025   0.538   2.294   5.641 -0.8485  0.5416 -0.9524
 9845TIP3    H151026   0.515   2.346   5.564 -1.3970  0.4786 -0.8376
 9845TIP3    H251027   0.512   2.349   5.715 -4.3842 -1.0542 -0.7862
 9846TIP3   OH251028   3.386   4.647  14.793  0.1561  0.0447  0.0474
 9846TIP3    H151029   3.330   4.592  14.848 -0.9872  0.7317 -0.3756
 9846TIP3    H251030   3.376   4.735  14.830  0.4948  0.2760 -0.4001
 9847TIP3   OH251031   6.244   0.679   3.335 -0.2687  0.2409 -0.0445
 9847TIP3    H151032   6.252   0.600   3.387  0.5935  0.5441  0.3081
 9847TIP3    H251033   6.212   0.649   3.250  0.8104 -0.6121 -0.1788
 9848TIP3   OH251034   2.321   1.533   4.337 -0.1770  0.1604 -0.5183
 9848TIP3    H151035   2.331   1.457   4.279 -1.0369 -1.9910  1.9579
 9848TIP3    H251036   2.356   1.504   4.421 -0.0345  2.7468  0.4071
 9849TIP3   OH251037   5.722   0.806   2.542 -0.8792  0.0751  0.2122
 9849TIP3    H151038   5.690   0.721   2.572  2.2181 -1.2785  0.1081
 9849TIP3    H251039   5.707   0.805   2.448 -1.8945  0.1644  0.3622
 9850TIP3   OH251040   4.814   2.866   1.102 -0.3536  0.2099  0.6586
 9850TIP3    H151041   4.909   2.878   1.100 -0.1602 -0.8902  1.7390
 9850TIP3    H251042   4.801   2.785   1.152 -1.8863  0.5597  0.8874
 9851TIP3   OH251043   2.065   6.228  12.601  0.0049 -0.0163 -0.5321
 9851TIP3    H151044   2.145   6.281  12.604  0.1772 -0.2368 -1.1255
 9851TIP3    H251045   2.096   6.137  12.601 -0.3149 -0.2287  2.2827
 9852TIP3   OH251046   4.207   5.508  16.508  0.7674 -0.4095 -0.2843
 9852TIP3    H151047   4.225   5.587  16.558 -0.7436  0.1271 -0.5281
 9852TIP3    H251048   4.117   5.484  16.531  0.5197 -0.9396 -1.6747
 9853TIP3   OH251049   6.401   5.997   6.030 -0.4915  0.6088 -0.0360
 9853TIP3    H151050   6.340   5.928   6.004 -2.2069  1.3861  1.7347
 9853TIP3    H251051   6.353   6.078   6.018  0.1749  1.2542  1.3806
 9854TIP3   OH251052   6.352   2.734   1.572 -0.0275  0.5152  0.0615
 9854TIP3    H151053   6.267   2.709   1.537  0.2673  0.2042 -0.4502
 9854TIP3    H251054   6.415   2.684   1.519  0.5201  1.4934 -0.2415
 9855TIP3   OH251055   2.246   3.582   5.821 -0.0967 -0.0119  0.5032
 9855TIP3    H151056   2.287   3.518   5.877  3.5851 -0.4928 -2.3310
 9855TIP3    H251057   2.261   3.666   5.865  0.2917 -0.5710  1.4620
 9856TIP3   OH251058   2.743   3.965   3.970  0.0033  0.6460  0.0065
 9856TIP3    H151059   2.650   3.940   3.972 -0.2359  1.4117 -0.9778
 9856TIP3    H251060   2.744   4.052   3.930  1.2744 -0.0564 -1.6286
 9857TIP3   OH251061   1.429   4.719  14.243  0.3900  0.0930 -0.0756
 9857TIP3    H151062   1.417   4.770  14.323  0.0157  2.8857 -1.8051
 9857TIP3    H251063   1.345   4.726  14.197  0.4084 -1.9423 -0.5258
 9858TIP3   OH251064   2.649   0.946   1.065 -0.9561 -0.2282  0.3569
 9858TIP3    H151065   2.680   0.875   1.009 -0.1674  0.6361 -0.3292
 9858TIP3    H251066   2.719   0.958   1.129 -1.4400 -0.5899  0.9612
 9859TIP3   OH251067   4.722   5.622  12.992  0.1480  0.2906  0.4904
 9859TIP3    H151068   4.791   5.605  12.928  0.6648  1.7003  0.6253
 9859TIP3    H251069   4.641   5.596  12.948  0.5920  0.3103 -0.3581
 9860TIP3   OH251070   0.739   2.637   1.588 -0.3535 -0.2763 -0.1124
 9860TIP3    H151071   0.669   2.578   1.619 -0.0737  0.2002  1.5564
 9860TIP3    H251072   0.811   2.621   1.649  0.5937  0.0700 -1.1268
 9861TIP3   OH251073   3.451   1.662  17.095  0.4857  0.1394  0.1493
 9861TIP3    H151074   3.406   1.580  17.073  0.1569 -0.2095  1.9574
 9861TIP3    H251075   3.413   1.727  17.036 -0.4696 -0.6865 -0.1792
 9862TIP3   OH251076   4.864   1.672  12.332 -0.0419  0.1740  0.0267
 9862TIP3    H151077   4.768   1.683  12.335 -0.1665 -0.9292  0.2520
 9862TIP3    H251078   4.881   1.597  12.387  1.0675  0.9266  0.7431
 9863TIP3   OH251079   1.451   5.521   2.271  0.5736  0.2550 -0.2036
 9863TIP3    H151080   1.465   5.593   2.209  1.4718 -0.5960 -1.0223
 9863TIP3    H251081   1.534   5.510   2.315  0.9096 -1.1868 -1.1110
 9864TIP3   OH251082   1.780   4.063   2.296  0.5533 -0.5568  0.5021
 9864TIP3    H151083   1.782   4.118   2.217  0.4606  1.3463  1.7472
 9864TIP3    H251084   1.712   3.998   2.278 -0.6893  0.9019 -0.3268
 9865TIP3   OH251085   1.812   1.339   3.946  0.0482 -0.3025 -0.3370
 9865TIP3    H151086   1.776   1.273   3.886 -0.3469  0.3612 -0.8454
 9865TIP3    H251087   1.744   1.349   4.013  0.0259 -0.2863 -0.3616
 9866TIP3   OH251088   6.192   1.008  10.463  0.1221  0.1293 -0.0291
 9866TIP3    H151089   6.286   1.001  10.482  0.1318  0.1591 -0.0645
 9866TIP3    H251090   6.150   1.010  10.549  0.1715  0.3390 -0.0099
 9867TIP3   OH251091   4.790   3.116   1.248  0.1136  1.1445  0.0257
 9867TIP3    H151092   4.815   3.040   1.195  2.0257 -0.1611  2.5714
 9867TIP3    H251093   4.696   3.126   1.232 -0.3059 -1.9871 -0.1888
 9868TIP3   OH251094   3.151   0.822   2.946  0.3552  0.0478  0.3862
 9868TIP3    H151095   3.235   0.838   2.987  1.4972 -1.7677 -1.1053
 9868TIP3    H251096   3.134   0.901   2.894  2.2304 -0.4060 -1.0096
 9869TIP3   OH251097   3.417   3.767   1.854  0.4283 -0.6226  0.0932
 9869TIP3    H151098   3.436   3.735   1.942 -1.8045 -1.0442  0.4920
 9869TIP3    H251099   3.424   3.689   1.799 -0.3230 -0.8409  0.2873
 9870TIP3   OH251100   2.944   1.233  14.204  0.1141 -0.1559 -0.1964
 9870TIP3    H151101   2.915   1.142  14.195 -0.8199 -0.0832  1.5208
 9870TIP3    H251102   3.030   1.226  14.244  0.5576 -0.2976 -1.1636
 9871TIP3   OH251103   1.290   0.831  13.740  0.3189 -0.8412  0.2802
 9871TIP3    H151104   1.272   0.750  13.788  0.2304 -1.0965 -0.1808
 9871TIP3    H251105   1.227   0.831  13.668  0.8767 -0.7826 -0.2140
 9872TIP3   OH251106   5.959   1.392  14.650  0.5021  0.0192 -0.0338
 9872TIP3    H151107   5.967   1.478  14.691  1.2821  1.3348 -2.6631
 9872TIP3    H251108   6.049   1.370  14.624  0.4849 -2.1490  1.5471
 9873TIP3   OH251109   2.367   0.508   4.122  0.1099  0.6961  0.8544
 9873TIP3    H151110   2.297   0.443   4.129  0.9934 -0.7255 -1.8408
 9873TIP3    H251111   2.403   0.515   4.210 -0.8165 -1.6044  1.4773
 9874TIP3   OH251112   0.436   1.008   3.009  0.1879  0.1807 -0.5958
 9874TIP3    H151113   0.438   0.918   2.977  0.9990 -1.2645  3.0629
 9874TIP3    H251114   0.355   1.014   3.060  1.5248  0.4983  1.6125
 9875TIP3   OH251115   2.362   5.848   0.659  0.3339  0.7147  0.5330
 9875TIP3    H151116   2.391   5.786   0.725  0.2965  0.1378  0.0185
 9875TIP3    H251117   2.270   5.865   0.680  0.2763  0.4063  0.5329
 9876TIP3   OH251118   1.490   4.798   0.143  0.4554  0.1403 -0.3774
 9876TIP3    H151119   1.442   4.818   0.223 -0.8982  1.6130 -1.5072
 9876TIP3    H251120   1.575   4.767   0.174  0.4122  1.8049  1.6369
 9877TIP3   OH251121   3.100   6.605  16.996  0.2563  0.2909 -0.0438
 9877TIP3    H151122   3.145   6.529  16.960 -1.8726 -1.5298  0.9642
 9877TIP3    H251123   3.052   6.643  16.922  0.1678 -0.2218 -0.2487
 9878TIP3   OH251124   3.703   4.450  16.794 -0.1910 -0.0045 -0.3566
 9878TIP3    H151125   3.740   4.368  16.827 -2.5603 -1.4238 -0.9036
 9878TIP3    H251126   3.663   4.425  16.710  0.8201  2.2378 -1.5795
 9879TIP3   OH251127   2.281   5.556   2.546 -0.5816 -0.3045 -0.3033
 9879TIP3    H151128   2.343   5.582   2.614 -1.4664  0.1635  0.3474
 9879TIP3    H251129   2.244   5.474   2.577 -1.7654  0.4447  0.3260
 9880TIP3   OH251130   6.706   4.811  12.559 -0.2762 -0.4001  0.0420
 9880TIP3    H151131   6.736   4.871  12.628 -2.0460 -0.9144  1.3244
 9880TIP3    H251132   6.759   4.835  12.483  0.5371  1.3643  1.0812
 9881TIP3   OH251133   0.132   5.287  13.727 -0.0383  0.1268  0.5017
 9881TIP3    H151134   0.144   5.319  13.637  0.0151  0.7883  0.7398
 9881TIP3    H251135   0.049   5.326  13.755  0.5128  0.8543  1.1402
 9882TIP3   OH251136   4.136   5.222   3.602  0.2558  0.5463 -0.3089
 9882TIP3    H151137   4.131   5.148   3.662  3.8666  0.4283  0.0971
 9882TIP3    H251138   4.052   5.266   3.611 -0.5693 -1.3053  2.3755
 9883TIP3   OH251139   5.383   0.920   6.344 -0.4012 -0.4500 -0.0359
 9883TIP3    H151140   5.335   0.863   6.284 -0.3295 -1.0959  0.5137
 9883TIP3    H251141   5.359   0.889   6.431  1.1334 -0.9070  0.2559
 9884TIP3   OH251142   6.051   5.946   2.131 -0.0219  0.2992  0.1415
 9884TIP3    H151143   6.085   5.857   2.136  0.7543  0.6682  2.7558
 9884TIP3    H251144   5.996   5.956   2.208 -0.0959  2.0865 -0.0850
 9885TIP3   OH251145   1.195   5.203  13.696 -0.5508  0.2389  0.2228
 9885TIP3    H151146   1.205   5.158  13.781 -1.5583  0.5204  0.4976
 9885TIP3    H251147   1.172   5.133  13.635 -1.3506  0.2538  0.4967
 9886TIP3   OH251148   1.133   4.112   1.627  0.2968  0.5422 -0.2944
 9886TIP3    H151149   1.169   4.201   1.627 -0.4072  0.9601  3.1544
 9886TIP3    H251150   1.039   4.124   1.620  0.2110  0.0515 -0.0397
 9887TIP3   OH251151   0.176   5.722  14.234 -0.2292 -0.4522 -0.4819
 9887TIP3    H151152   0.159   5.664  14.309  1.9331  0.4215  0.7902
 9887TIP3    H251153   0.227   5.667  14.174  1.6777 -0.0084  0.6493
 9888TIP3   OH251154   4.255   6.633  14.062  0.0871  0.1135 -0.2692
 9888TIP3    H151155   4.233   6.721  14.092 -0.0940 -0.7439  2.3885
 9888TIP3    H251156   4.199   6.575  14.114  0.0845 -1.5928 -2.0685
 9889TIP3   OH251157   2.813   6.199   0.647 -0.2015 -0.2201 -0.5161
 9889TIP3    H151158   2.817   6.133   0.578  0.6108 -0.5056 -0.2102
 9889TIP3    H251159   2.861   6.160   0.720 -1.1726  0.0106  0.2747
 9890TIP3   OH251160   2.219   2.445  13.012 -0.2456  0.4440  0.1695
 9890TIP3    H151161   2.186   2.363  12.976  0.5886 -1.4150  3.3623
 9890TIP3    H251162   2.142   2.486  13.052  0.0658 -1.0458  2.4657
 9891TIP3   OH251163   2.878   2.520  14.915  0.1473  0.1803 -0.1761
 9891TIP3    H151164   2.895   2.608  14.949 -0.6509  0.5807 -0.7824
 9891TIP3    H251165   2.815   2.483  14.977 -1.2243  0.8704 -1.1246
 9892TIP3   OH251166   0.272   4.079  16.801 -0.2826  0.6893  0.2513
 9892TIP3    H151167   0.333   4.094  16.728 -0.5542 -1.3492 -0.4803
 9892TIP3    H251168   0.302   3.997  16.840 -2.7204 -0.6021 -0.3844
 9893TIP3   OH251169   4.573   3.550  15.774  0.2319  0.4409 -0.5039
 9893TIP3    H151170   4.606   3.584  15.691  1.1858 -1.8282 -1.1340
 9893TIP3    H251171   4.499   3.494  15.749  0.1142  0.2459  0.2497
 9894TIP3   OH251172   4.036   5.014  11.755  0.1278 -0.0443  0.1541
 9894TIP3    H151173   4.068   5.068  11.682 -0.2711 -0.4297 -0.3109
 9894TIP3    H251174   3.951   5.053  11.779 -0.3633 -0.7063 -0.4623
 9895TIP3   OH251175   0.691   2.898  16.555 -0.4543 -0.4704 -0.1165
 9895TIP3    H151176   0.648   2.976  16.518  0.7265  0.2412 -0.0561
 9895TIP3    H251177   0.622   2.833  16.561 -1.7024  0.8489  0.6317
 9896TIP3   OH251178   5.317   4.737  13.694  0.3558 -0.5434  0.2464
 9896TIP3    H151179   5.285   4.737  13.784  0.2058  0.4818  0.2113
 9896TIP3    H251180   5.407   4.767  13.700 -0.2758  1.5892 -0.1022
 9897TIP3   OH251181   1.061   6.584   0.017  0.4769  0.2909 -0.1636
 9897TIP3    H151182   1.043   6.675   0.042 -0.1076 -0.2809  1.6554
 9897TIP3    H251183   0.978   6.554  -0.022 -0.0871 -0.1054  1.2958
 9898TIP3   OH251184   5.820   1.332   1.725 -0.4702  0.4581 -0.4975
 9898TIP3    H151185   5.864   1.256   1.764  0.5378  1.8707  1.2878
 9898TIP3    H251186   5.827   1.318   1.630  0.2380 -1.3449 -0.2187
 9899TIP3   OH251187   2.894   0.265  16.829 -0.3995 -0.5225  0.0915
 9899TIP3    H151188   2.833   0.231  16.763  1.0860 -0.1182 -1.5755
 9899TIP3    H251189   2.937   0.339  16.786  1.4011 -0.9067  1.1180
 9900TIP3   OH251190   1.001   1.799   3.561 -0.5156  0.5981  0.4165
 9900TIP3    H151191   0.995   1.847   3.478 -1.2080 -1.7723 -1.0115
 9900TIP3    H251192   1.071   1.735   3.547 -1.1962 -0.3853  1.3546
 9901TIP3   OH251193   2.286   6.782  13.010  0.3167  0.6518 -0.2118
 9901TIP3    H151194   2.380   6.765  13.019  0.5036  1.0641 -1.1840
 9901TIP3    H251195   2.270   6.858  13.065  0.3648  0.0367  0.6665
 9902TIP3   OH251196   2.485   2.559   1.415  0.0956  0.4638  0.6713
 9902TIP3    H151197   2.426   2.607   1.473  0.8615  1.7146  0.4432
 9902TIP3    H251198   2.516   2.624   1.353 -1.9206 -1.1107 -2.2505
 9903TIP3   OH251199   2.867   2.509   2.759 -0.1739  0.1991 -0.0670
 9903TIP3    H151200   2.882   2.518   2.665  1.3500  0.0966  0.1377
 9903TIP3    H251201   2.903   2.423   2.781 -3.5618 -1.3325  0.0884
 9904TIP3   OH251202   0.677   6.110   3.395 -0.0547 -0.2892 -0.0222
 9904TIP3    H151203   0.702   6.029   3.349  0.1067  0.2591 -0.9158
 9904TIP3    H251204   0.584   6.121   3.376 -0.0596 -0.2215  0.0392
 9905TIP3   OH251205   0.958   3.247   0.181  0.0738 -0.1660  0.1234
 9905TIP3    H151206   0.973   3.195   0.101  1.7551  0.5852 -0.1004
 9905TIP3    H251207   0.992   3.192   0.252 -1.1080 -0.6923  0.2913
 9906TIP3   OH251208   2.923   5.426  15.779  0.3320 -0.7329  0.7612
 9906TIP3    H151209   2.922   5.406  15.873 -1.2931  1.3779  1.2829
 9906TIP3    H251210   2.896   5.518  15.774  0.8773 -0.6420 -1.7591
 9907TIP3   OH251211   6.019   3.171  16.223 -0.6360  0.9884 -0.0624
 9907TIP3    H151212   5.997   3.174  16.130 -0.7725  1.4856 -0.0153
 9907TIP3    H251213   5.983   3.088  16.254 -2.0566  1.5802 -0.0817
 9908TIP3   OH251214   1.133   6.002   5.052 -0.0389  1.1294 -0.4172
 9908TIP3    H151215   1.217   5.960   5.073 -1.1858 -1.6536 -0.9477
 9908TIP3    H251216   1.099   6.030   5.137  0.2756 -0.0946  0.1341
 9909TIP3   OH251217   3.283   5.550   2.443 -0.3591 -0.3613 -0.1458
 9909TIP3    H151218   3.199   5.511   2.419 -0.4556 -0.3635  0.1935
 9909TIP3    H251219   3.270   5.583   2.532 -0.5186  1.1458 -0.7066
 9910TIP3   OH251220   0.735   2.697  12.747 -0.0543 -0.2760  0.2001
 9910TIP3    H151221   0.735   2.607  12.780 -2.9607 -0.8400 -1.0225
 9910TIP3    H251222   0.705   2.690  12.657  2.0419  1.7631 -0.7792
 9911TIP3   OH251223   3.026   2.736   4.386 -0.0756 -0.1559 -0.1147
 9911TIP3    H151224   3.100   2.737   4.447 -1.5135  0.0212  1.7369
 9911TIP3    H251225   3.004   2.643   4.376 -0.0220 -0.1679 -0.1219
 9912TIP3   OH251226   3.740   2.756   1.482  0.0997  0.1068 -0.2717
 9912TIP3    H151227   3.727   2.801   1.398  1.9757 -0.1484 -0.7351
 9912TIP3    H251228   3.778   2.671   1.459 -0.8791 -0.6477  0.7649
 9913TIP3   OH251229   3.097   3.932  13.383 -0.5675  0.4906 -0.0926
 9913TIP3    H151230   3.050   3.913  13.464  0.2635 -0.6219  0.1548
 9913TIP3    H251231   3.061   3.872  13.319  0.5929 -0.5044  0.1463
 9914TIP3   OH251232   0.162   4.038   0.479  0.5308  0.8409  0.2638
 9914TIP3    H151233   0.070   4.062   0.486  0.2100  0.0493 -0.7996
 9914TIP3    H251234   0.210   4.112   0.516 -0.5625  0.5419  2.4199
 9915TIP3   OH251235   0.175   4.332   3.689  0.5998  0.3600  0.1569
 9915TIP3    H151236   0.182   4.296   3.600  2.1832 -0.7613  0.6901
 9915TIP3    H251237   0.102   4.394   3.684 -0.2040 -0.6479 -1.5865
 9916TIP3   OH251238   1.400   2.146  10.898 -0.1174  0.4021  0.7688
 9916TIP3    H151239   1.328   2.196  10.936  0.2134 -0.6105  2.9389
 9916TIP3    H251240   1.468   2.211  10.881 -0.8602  1.1137  0.4671
 9917TIP3   OH251241   1.875   4.477   4.190 -0.1921 -0.3319  0.1869
 9917TIP3    H151242   1.933   4.500   4.117  0.4190 -0.7951  0.5149
 9917TIP3    H251243   1.793   4.521   4.170 -0.3985 -1.3228 -1.3569
 9918TIP3   OH251244   4.652   5.025  10.342  0.0866  0.1464 -0.3903
 9918TIP3    H151245   4.653   5.083  10.266  2.3420 -2.0483 -2.2329
 9918TIP3    H251246   4.687   5.077  10.413  2.3934  1.0641 -2.0584
 9919TIP3   OH251247   6.756   2.048  12.906 -0.5723 -0.5006  0.0195
 9919TIP3    H151248   6.773   2.034  12.999  1.2866  2.6497  0.3043
 9919TIP3    H251249   6.818   1.991  12.861  0.5949  0.0984  0.8224
 9920TIP3   OH251250   6.279   1.320  13.695  0.5128 -0.4292  0.3665
 9920TIP3    H151251   6.340   1.323  13.622 -0.7547 -0.1840 -0.7366
 9920TIP3    H251252   6.314   1.253  13.754  1.8936 -0.1812 -0.1489
 9921TIP3   OH251253   0.770   2.848   5.724  0.2013 -0.7924 -0.4149
 9921TIP3    H151254   0.748   2.910   5.654  0.2289 -0.5845 -0.2382
 9921TIP3    H251255   0.816   2.900   5.789 -0.9214 -0.7104  0.3456
 9922TIP3   OH251256   4.477   6.019  16.358  0.0278 -0.1172 -0.1843
 9922TIP3    H151257   4.457   6.102  16.400  0.6923 -0.1065  0.1164
 9922TIP3    H251258   4.423   6.018  16.279 -0.2230  0.4522 -0.0185
 9923TIP3   OH251259   2.517   5.830   3.343 -0.1104  0.0516 -0.4377
 9923TIP3    H151260   2.507   5.904   3.402  0.5074  1.4319 -1.9763
 9923TIP3    H251261   2.526   5.754   3.400 -0.4539  1.1908  1.1950
 9924TIP3   OH251262   5.842   0.733   3.887 -0.2267 -0.7511 -0.6294
 9924TIP3    H151263   5.905   0.805   3.886 -0.1054 -0.8302 -2.3999
 9924TIP3    H251264   5.817   0.724   3.979 -0.8400  2.0624 -0.4278
 9925TIP3   OH251265   5.001   3.271  16.246 -0.4159  0.2279  0.4721
 9925TIP3    H151266   5.032   3.297  16.159  1.7506  2.3095  1.7495
 9925TIP3    H251267   5.048   3.328  16.306 -0.8093 -2.0395  3.1396
 9926TIP3   OH251268   0.844   3.256  16.289 -0.5347 -0.1604 -0.3543
 9926TIP3    H151269   0.755   3.248  16.324 -0.7495  0.3546 -0.7701
 9926TIP3    H251270   0.843   3.203  16.209 -0.4839 -0.1012 -0.3935
 9927TIP3   OH251271   3.500   1.577   0.467 -0.0926 -0.1006 -0.4385
 9927TIP3    H151272   3.593   1.591   0.452 -0.1060  0.8537  0.2518
 9927TIP3    H251273   3.457   1.611   0.388  0.0323  1.6122  0.1878
 9928TIP3   OH251274   1.729   2.638  14.051 -0.2681  0.4363 -0.0639
 9928TIP3    H151275   1.634   2.638  14.055 -0.2455  0.9905  0.7995
 9928TIP3    H251276   1.752   2.723  14.014 -0.1259 -0.0733 -1.1721
 9929TIP3   OH251277   6.631   0.295   2.951 -0.1853  0.5166 -0.3943
 9929TIP3    H151278   6.706   0.281   2.893 -0.8267  1.7001 -1.5628
 9929TIP3    H251279   6.558   0.252   2.907 -0.5654  0.9404 -0.1906
 9930TIP3   OH251280   3.383   6.040  14.519  0.2940  0.6467 -0.6424
 9930TIP3    H151281   3.299   6.041  14.474 -0.6904 -1.5315  0.9567
 9930TIP3    H251282   3.430   5.967  14.480 -0.9107 -1.8523  2.1688
 9931TIP3   OH251283   4.584   0.645  12.097 -0.2859 -0.1851 -0.0321
 9931TIP3    H151284   4.574   0.739  12.113 -1.2609 -0.1486 -0.7570
 9931TIP3    H251285   4.537   0.603  12.169 -1.5360 -0.0713 -0.7490
 9932TIP3   OH251286   0.547   6.691  16.936 -0.2088 -0.6005 -0.0876
 9932TIP3    H151287   0.583   6.675  17.023 -0.8173 -2.8210 -0.1904
 9932TIP3    H251288   0.570   6.612  16.886 -2.1751 -0.5458 -1.1551
 9933TIP3   OH251289   2.326   0.023  14.215  0.4813  0.8935 -0.7119
 9933TIP3    H151290   2.331   0.031  14.120  1.6721  1.6851 -0.6065
 9933TIP3    H251291   2.415   0.040  14.246  0.4623 -0.8708  0.4621
 9934TIP3   OH251292   3.265   4.562  13.868  0.0630 -0.0958  0.0003
 9934TIP3    H151293   3.196   4.573  13.802  1.0091  1.5969 -0.7730
 9934TIP3    H251294   3.225   4.509  13.936 -1.6033 -0.1875 -0.9965
 9935TIP3   OH251295   4.095   4.320  13.227 -0.3567 -0.3688 -0.1437
 9935TIP3    H151296   4.008   4.361  13.224 -0.6239 -0.9262 -0.1952
 9935TIP3    H251297   4.112   4.308  13.321 -0.1903  0.0271 -0.1183
 9936TIP3   OH251298   4.075   1.639   4.562  0.0484  0.4294  0.8061
 9936TIP3    H151299   4.020   1.717   4.552  0.1041  0.3417 -0.3062
 9936TIP3    H251300   4.163   1.669   4.538  0.3659  0.3826  1.8499
 9937TIP3   OH251301   3.413   4.314  15.108 -0.4657  0.4067  0.7217
 9937TIP3    H151302   3.426   4.325  15.202 -0.5295 -0.3094  0.8172
 9937TIP3    H251303   3.496   4.343  15.069 -1.1152  2.5927  0.8441
 9938TIP3   OH251304   3.984   0.725  15.749  0.6329  0.2785  0.4454
 9938TIP3    H151305   4.038   0.802  15.767  1.5046 -0.1892 -0.1176
 9938TIP3    H251306   4.007   0.700  15.660 -1.1524  0.5764 -0.1421
 9939TIP3   OH251307   3.241   3.110   3.688  0.4171 -0.5418  0.1948
 9939TIP3    H151308   3.149   3.123   3.713 -0.3970 -3.0427 -1.1481
 9939TIP3    H251309   3.285   3.087   3.769 -0.2754  0.0009  0.7429
 9940TIP3   OH251310   4.047   4.444   3.528  0.4886  0.0823  0.5862
 9940TIP3    H151311   4.126   4.497   3.536  0.8926 -0.3650 -0.3278
 9940TIP3    H251312   4.046   4.416   3.437 -0.1103 -0.8741  0.8726
 9941TIP3   OH251313   3.623   3.130  13.758  0.8405  0.1666 -0.4208
 9941TIP3    H151314   3.558   3.094  13.697  0.0157 -0.5065  0.8118
 9941TIP3    H251315   3.574   3.147  13.838  1.5639  2.6005 -0.4356
 9942TIP3   OH251316   5.756   6.733   3.152  0.0309  0.0140  0.2573
 9942TIP3    H151317   5.839   6.777   3.171  1.0992 -1.2941 -1.1266
 9942TIP3    H251318   5.766   6.700   3.063 -1.4251 -1.4067  0.5681
 9943TIP3   OH251319   4.288   2.655  11.103 -0.1581 -0.0570  0.5608
 9943TIP3    H151320   4.274   2.736  11.054  2.9893  0.8486  0.9584
 9943TIP3    H251321   4.264   2.677  11.193 -0.6778 -0.0544  0.4294
 9944TIP3   OH251322   6.015   4.450  12.422  0.5005 -0.6389  0.5282
 9944TIP3    H151323   6.067   4.376  12.392 -1.3143 -1.1355 -1.5841
 9944TIP3    H251324   5.926   4.417  12.427  0.0919  0.5829  2.6823
 9945TIP3   OH251325   1.904   5.191   5.190  0.2360 -0.5328 -0.1952
 9945TIP3    H151326   1.912   5.256   5.259  1.8487  1.0176 -1.7204
 9945TIP3    H251327   1.953   5.116   5.222  0.0992 -0.2357  0.7428
 9946TIP3   OH251328   4.349   1.434   5.887  0.7490 -0.7921 -0.4079
 9946TIP3    H151329   4.412   1.388   5.942  1.3864  1.1919  0.6236
 9946TIP3    H251330   4.333   1.517   5.933 -0.0720  0.1783 -2.3265
 9947TIP3   OH251331   1.789   3.225  10.535 -0.5541 -0.2584 -0.4750
 9947TIP3    H151332   1.732   3.202  10.608 -1.7582 -2.0950 -1.9142
 9947TIP3    H251333   1.733   3.216  10.457  1.3013 -0.6818 -1.8202
 9948TIP3   OH251334   2.040   5.714   4.672 -0.4337  0.0253 -0.2715
 9948TIP3    H151335   2.083   5.748   4.751 -1.2449 -1.5728  0.9144
 9948TIP3    H251336   1.998   5.633   4.700 -1.6467 -0.0517 -2.1117
 9949TIP3   OH251337   3.765   0.502   3.899 -0.3696 -0.0916 -0.2676
 9949TIP3    H151338   3.794   0.591   3.918 -1.0121 -0.1359  1.0527
 9949TIP3    H251339   3.827   0.469   3.834 -0.9009  1.7530 -1.7799
 9950TIP3   OH251340   1.487   2.747   4.694  0.3560 -0.1580  0.4965
 9950TIP3    H151341   1.422   2.796   4.645  1.0573  0.1192 -0.1864
 9950TIP3    H251342   1.560   2.737   4.633  1.3689  0.4364  1.5789
 9951TIP3   OH251343   4.659   4.336  16.665 -0.0811  0.2808  0.3624
 9951TIP3    H151344   4.692   4.285  16.739 -3.6406 -0.2607  1.7884
 9951TIP3    H251345   4.619   4.271  16.607 -0.4237  1.0205 -0.2512
 9952TIP3   OH251346   0.621   0.192   2.785 -0.5757  0.8077 -0.2905
 9952TIP3    H151347   0.621   0.110   2.833 -1.2654  1.5112  0.9614
 9952TIP3    H251348   0.678   0.176   2.709 -0.5864 -0.7549  0.0074
 9953TIP3   OH251349   6.117   3.516  15.359 -0.2697  0.1471  0.2523
 9953TIP3    H151350   6.105   3.424  15.334  0.7957  0.1863 -0.4858
 9953TIP3    H251351   6.169   3.512  15.439  1.4081  0.1006 -0.7831
 9954TIP3   OH251352   1.000   1.774  14.984 -0.0474  0.2390 -0.5311
 9954TIP3    H151353   1.036   1.795  14.898 -0.3175 -1.2414 -1.0253
 9954TIP3    H251354   0.933   1.709  14.968  1.9552 -2.4319  1.0143
 9955TIP3   OH251355   2.097   1.054  15.955 -0.5754  0.6279  0.2040
 9955TIP3    H151356   2.153   1.081  16.027  1.0428 -0.0072 -0.7465
 9955TIP3    H251357   2.021   1.112  15.960 -0.4213  0.7310  2.2624
 9956TIP3   OH251358   4.753   4.310  12.471 -0.7490  0.5400 -0.0799
 9956TIP3    H151359   4.823   4.354  12.423 -1.4946  0.4574 -1.2884
 9956TIP3    H251360   4.787   4.301  12.560  0.5136  1.0653 -0.4837
 9957TIP3   OH251361   6.677   4.060  14.130  0.1261  0.4548  0.2158
 9957TIP3    H151362   6.643   4.112  14.202  0.6931  0.7242  0.2922
 9957TIP3    H251363   6.617   4.076  14.058 -0.5334  0.0675  0.6631
 9958TIP3   OH251364   4.170   3.779  10.795 -0.0814 -0.1114  0.0386
 9958TIP3    H151365   4.180   3.744  10.706 -0.5177 -0.7041  0.2094
 9958TIP3    H251366   4.247   3.747  10.842  0.4814  0.7440 -0.2843
 9959TIP3   OH251367   1.777   6.816   5.238  0.8113 -0.4797  0.1493
 9959TIP3    H151368   1.696   6.839   5.193  1.2453  1.1243  0.1438
 9959TIP3    H251369   1.788   6.722   5.220 -0.2069 -0.3830 -1.1656
 9960TIP3   OH251370   0.118   2.877   3.537  0.5623  0.1972 -0.4788
 9960TIP3    H151371   0.163   2.795   3.515 -1.1945 -0.7319 -0.8159
 9960TIP3    H251372   0.039   2.849   3.584  0.8048  1.8134  1.0163
 9961TIP3   OH251373   3.419   4.998   0.022  0.2323  0.3832 -0.0092
 9961TIP3    H151374   3.467   4.997   0.106  1.0632 -1.0109 -0.4588
 9961TIP3    H251375   3.487   4.985  -0.044 -0.7257 -1.4679 -0.6911
 9962TIP3   OH251376   3.651   4.734  15.272  0.1300 -0.1059 -0.4739
 9962TIP3    H151377   3.647   4.829  15.286  1.3079 -0.2642  1.3376
 9962TIP3    H251378   3.563   4.710  15.243 -0.0823  1.5820 -1.3308
 9963TIP3   OH251379   6.331   0.026   5.395  0.0817 -0.6975  0.0228
 9963TIP3    H151380   6.256   0.072   5.433  0.8965 -0.2792  1.1941
 9963TIP3    H251381   6.293  -0.035   5.332 -1.0627  1.5179 -1.5739
 9964TIP3   OH251382   6.814   4.233  15.809  0.2080 -0.3212 -0.1498
 9964TIP3    H151383   6.820   4.230  15.713  0.1682  0.6372 -0.1945
 9964TIP3    H251384   6.762   4.156  15.831  1.8238 -1.6412 -0.7250
 9965TIP3   OH251385   3.460   6.298  17.046 -0.1777  0.2485 -0.1640
 9965TIP3    H151386   3.405   6.263  17.117  0.6653  1.9387  1.3972
 9965TIP3    H251387   3.498   6.378  17.082  1.1495  0.5955 -2.1729
 9966TIP3   OH251388   5.305   1.514   4.282  0.7338 -0.5064 -0.0151
 9966TIP3    H151389   5.389   1.511   4.235  0.7519  0.4998 -0.0494
 9966TIP3    H251390   5.262   1.432   4.257  1.4478 -0.7572 -0.4703
 9967TIP3   OH251391   5.638   3.364  15.787  0.0144 -0.1034 -0.4540
 9967TIP3    H151392   5.711   3.303  15.771  0.5270  0.2932  0.2989
 9967TIP3    H251393   5.673   3.426  15.851 -1.1981 -0.2717  0.4039
 9968TIP3   OH251394   6.774   4.015  15.018 -0.1279 -0.1897  0.1341
 9968TIP3    H151395   6.833   4.062  14.959  0.4299  0.1537  0.9501
 9968TIP3    H251396   6.697   3.996  14.964 -0.7627  2.4141 -0.0113
 9969TIP3   OH251397   4.782   5.424  12.632  0.0891 -0.9201 -0.1454
 9969TIP3    H151398   4.746   5.357  12.690 -0.3268 -0.6075 -0.0319
 9969TIP3    H251399   4.801   5.498  12.689 -0.8174 -0.4161 -0.4656
 9970TIP3   OH251400   6.570   4.100  16.104  0.0932  0.3757  0.2438
 9970TIP3    H151401   6.496   4.150  16.072 -1.2610 -1.4915  0.2605
 9970TIP3    H251402   6.561   4.100  16.200  1.0944  1.5229  0.3580
 9971TIP3   OH251403   6.287   4.006  13.659  0.1900 -0.4027 -0.2404
 9971TIP3    H151404   6.259   4.073  13.597  0.1969 -0.4141 -0.2559
 9971TIP3    H251405   6.222   4.008  13.729  0.6690  0.2333  0.2019
 9972TIP3   OH251406   5.160   2.804  11.798 -0.1858  0.8706  0.5512
 9972TIP3    H151407   5.150   2.710  11.813 -0.7655  1.1057  1.8130
 9972TIP3    H251408   5.254   2.820  11.807 -0.2863  0.6951  2.4857
 9973TIP3   OH251409   0.535   4.160   4.017 -0.2314  0.3875 -0.4934
 9973TIP3    H151410   0.445   4.153   3.985 -0.0603 -0.5857 -0.7860
 9973TIP3    H251411   0.567   4.070   4.019  0.7100  0.7144 -0.2979
 9974TIP3   OH251412   5.670   6.365  16.709  0.3482 -0.2522  0.1081
 9974TIP3    H151413   5.705   6.395  16.793 -0.8798 -1.4744  1.0882
 9974TIP3    H251414   5.587   6.411  16.699  0.3416 -0.3453 -0.3101
 9975TIP3   OH251415   2.672   4.033  15.831 -0.0368  0.2413 -0.4433
 9975TIP3    H151416   2.689   4.120  15.866  0.1741  0.4985 -1.1734
 9975TIP3    H251417   2.616   4.048  15.755  1.8523 -0.0227 -1.9663
 9976TIP3   OH251418   1.083   2.752   2.041  0.1638  0.7233  0.2925
 9976TIP3    H151419   1.132   2.685   1.993 -1.8156  0.7631 -2.0074
 9976TIP3    H251420   1.031   2.703   2.104 -2.5735 -0.3283 -2.4998
 9977TIP3   OH251421   2.333   6.754  13.956 -0.0350  0.1203 -0.4293
 9977TIP3    H151422   2.354   6.736  13.864  0.5290 -0.5890 -0.1642
 9977TIP3    H251423   2.359   6.675  14.003 -0.9021  0.2248  0.2660
 9978TIP3   OH251424   6.210   2.049   5.604 -0.0918  0.2159  0.1138
 9978TIP3    H151425   6.170   2.131   5.631  0.3712  0.8934 -1.1725
 9978TIP3    H251426   6.222   2.000   5.685  0.1728  1.6582  0.9795
 9979TIP3   OH251427   6.506   6.107   1.024  0.4530 -0.6035 -0.0714
 9979TIP3    H151428   6.548   6.053   0.957  2.0401  2.3891 -1.6619
 9979TIP3    H251429   6.442   6.160   0.977  0.7579  0.7394  0.9695
 9980TIP3   OH251430   1.763   2.042   3.480 -0.0117  0.0741 -0.4985
 9980TIP3    H151431   1.847   2.080   3.454  1.0657 -1.2535  0.8601
 9980TIP3    H251432   1.774   1.948   3.467 -0.9257 -0.2074  0.6138
 9981TIP3   OH251433   5.951   4.901   0.594 -0.2529  0.2621  0.1208
 9981TIP3    H151434   5.907   4.833   0.645 -0.1641 -0.5974 -0.9132
 9981TIP3    H251435   5.949   4.979   0.651 -0.3442 -0.5911  1.3328
 9982TIP3   OH251436   6.773   0.610  14.663  0.2597  0.3742 -0.4775
 9982TIP3    H151437   6.824   0.691  14.665  0.7920  0.0361  0.1832
 9982TIP3    H251438   6.682   0.639  14.665  0.4048  0.9902 -1.8104
 9983TIP3   OH251439   4.293   0.840  13.903  0.0828 -0.1885 -0.4037
 9983TIP3    H151440   4.269   0.871  13.815  0.4321 -2.0329 -1.1838
 9983TIP3    H251441   4.356   0.905  13.934 -0.3511  0.7205 -1.3277
 9984TIP3   OH251442   1.565   3.807  17.007  0.4564 -0.4867 -0.5237
 9984TIP3    H151443   1.486   3.770  17.048  0.5808 -0.8703 -0.6216
 9984TIP3    H251444   1.580   3.751  16.931  0.0504  0.4074 -1.2728
 9985TIP3   OH251445   2.593   2.102   3.184 -0.2740 -0.2622 -0.3228
 9985TIP3    H151446   2.665   2.164   3.190 -1.8468  1.5713  0.9516
 9985TIP3    H251447   2.573   2.097   3.091 -1.5261  2.9912 -0.3345
 9986TIP3   OH251448   2.024   4.376  12.627 -0.7214  0.1053  0.1019
 9986TIP3    H151449   1.953   4.431  12.660 -0.2061  0.1167  1.2112
 9986TIP3    H251450   2.102   4.431  12.634 -0.0480 -1.0114  2.0423
 9987TIP3   OH251451   5.694   4.527   6.454  0.4222  0.0127  0.0956
 9987TIP3    H151452   5.734   4.614   6.455  1.5423 -0.3673 -2.4674
 9987TIP3    H251453   5.767   4.467   6.439 -0.2368 -1.5111  2.4439
 9988TIP3   OH251454   2.873   2.534   2.486  0.2229 -0.1243 -0.2072
 9988TIP3    H151455   2.820   2.575   2.417 -0.9742  0.7761  1.1922
 9988TIP3    H251456   2.939   2.485   2.438  0.6521  2.0131 -1.9959
 9989TIP3   OH251457   0.058   4.251  16.799 -0.1825  0.2967  0.6274
 9989TIP3    H151458   0.114   4.178  16.825  0.5725  1.5106  2.6719
 9989TIP3    H251459   0.102   4.290  16.723  0.2308 -0.4373  0.4804
 9990TIP3   OH251460   1.883   2.532  13.033  0.2222 -0.6757  0.7444
 9990TIP3    H151461   1.842   2.470  13.095 -0.7452 -1.3645 -0.5284
 9990TIP3    H251462   1.850   2.504  12.948 -0.7971  2.0258  0.1697
 9991TIP3   OH251463   3.388   2.061   0.001  0.4014  0.2627 -0.4079
 9991TIP3    H151464   3.297   2.080   0.023  0.2386  0.4765 -1.2154
 9991TIP3    H251465   3.439   2.088   0.077 -0.2045  0.2408  0.0032
 9992TIP3   OH251466   3.060   6.644  15.604 -0.3826  0.3753  0.6665
 9992TIP3    H151467   3.140   6.690  15.632 -0.2956  0.6642 -0.0396
 9992TIP3    H251468   2.990   6.686  15.654 -0.2620  1.0683  0.2631
 9993TIP3   OH251469   2.225   5.458   0.205  0.4614  0.1524  0.2062
 9993TIP3    H151470   2.240   5.364   0.204 -2.9068 -0.5116  1.0644
 9993TIP3    H251471   2.214   5.480   0.297  2.3531  1.6994  0.1350
 9994TIP3   OH251472   2.080   3.009   0.370 -0.5099 -0.7141  0.3529
 9994TIP3    H151473   2.073   3.051   0.284 -1.9883  0.8399  1.1620
 9994TIP3    H251474   2.173   3.009   0.389 -0.3801  2.2392  0.2408
 9995TIP3   OH251475   4.147   4.636   4.548 -0.6185 -0.1785 -0.2081
 9995TIP3    H151476   4.229   4.586   4.549 -0.0655  0.6480 -1.3881
 9995TIP3    H251477   4.165   4.712   4.603 -0.5919 -0.0022 -0.4588
 9996TIP3   OH251478   0.841   1.391  16.995 -0.0739  0.2554  0.3071
 9996TIP3    H151479   0.768   1.332  16.978 -0.9168  0.9891  1.2832
 9996TIP3    H251480   0.813   1.444  17.070  1.7281  0.1134  1.1262
 9997TIP3   OH251481   6.736   4.903  11.588  0.1198 -0.2424  0.1696
 9997TIP3    H151482   6.826   4.879  11.566  0.8384  2.2317  0.0909
 9997TIP3    H251483   6.709   4.837  11.652  2.0947 -0.8661  0.4496
 9998TIP3   OH251484   4.922   2.971  13.640 -0.0371  0.3210  0.5321
 9998TIP3    H151485   4.927   3.063  13.614 -3.6633  0.5265  0.0284
 9998TIP3    H251486   4.978   2.966  13.718  0.6339  2.8177  0.3262
 9999TIP3   OH251487   5.543   5.379   5.638  0.2251  0.0860 -0.8586
 9999TIP3    H151488   5.631   5.369   5.600  0.5539  0.1638 -0.1436
 9999TIP3    H251489   5.484   5.346   5.571  0.9969 -3.3661 -0.0226
10000TIP3   OH251490   5.861   6.077  10.784  0.3990  0.0231  0.1851
10000TIP3    H151491   5.842   6.145  10.849  1.5224 -0.3577  0.9544
10000TIP3    H251492   5.858   5.995  10.834 -1.5644 -0.5895 -0.8609
10001TIP3   OH251493   2.025   1.963   0.020  0.3809 -0.4818 -0.3977
10001TIP3    H151494   2.014   1.972   0.115  0.6012 -0.1691 -0.4016
10001TIP3    H251495   1.938   1.981  -0.015  0.6536  1.0336 -0.3591
10002TIP3   OH251496   4.283   6.089  14.511 -0.3524 -0.0947 -0.7631
10002TIP3    H151497   4.336   6.152  14.560  0.0380  1.3361 -2.8612
10002TIP3    H251498   4.254   6.025  14.576 -0.7263  2.2159  1.4997
10003TIP3   OH251499   0.288   3.174   0.262  0.1711  0.2330 -0.3210
10003TIP3    H151500   0.312   3.118   0.188  0.0064 -0.3203  0.0473
10003TIP3    H251501   0.347   3.148   0.332  0.0897  0.5196 -0.1419
10004TIP3   OH251502   5.211   4.234  11.879 -1.0808  0.3138  0.1450
10004TIP3    H151503   5.249   4.175  11.814 -3.1417 -0.4730 -0.4380
10004TIP3    H251504   5.193   4.177  11.954 -1.3855  0.5768  0.2743
10005TIP3   OH251505   6.007   5.380  11.517  0.6502 -0.6862  0.1300
10005TIP3    H151506   6.043   5.436  11.449 -1.7581  0.1535 -0.5492
10005TIP3    H251507   6.038   5.292  11.494  2.5432 -0.0095 -0.1251
10006TIP3   OH251508   1.715   1.998  11.707  0.2508 -0.2871 -0.4647
10006TIP3    H151509   1.629   2.036  11.692  0.6331  0.4394 -0.8707
10006TIP3    H251510   1.769   2.031  11.635  0.9191 -0.5714 -0.1056
10007TIP3   OH251511   5.108   4.348  14.860 -0.0978  0.0863 -0.3225
10007TIP3    H151512   5.108   4.425  14.803  0.7587  0.1185 -0.2956
10007TIP3    H251513   5.023   4.350  14.903  0.2900  1.5760  0.4294
10008TIP3   OH251514   5.670   2.813   0.973  0.0859  0.3617 -0.2883
10008TIP3    H151515   5.672   2.884   1.036 -0.0703 -0.0275  0.1594
10008TIP3    H251516   5.681   2.734   1.025 -0.1430  0.0289 -0.7370
10009TIP3   OH251517   1.814   1.367  13.852  0.3743 -0.0055  0.3185
10009TIP3    H151518   1.781   1.366  13.763  0.6218  0.1973  0.2242
10009TIP3    H251519   1.830   1.275  13.873 -0.2347 -0.1057  0.3622
10010TIP3   OH251520   0.747   0.772  16.531  0.8410  0.1303  0.0183
10010TIP3    H151521   0.755   0.767  16.436  0.0030  0.1459 -0.0560
10010TIP3    H251522   0.805   0.845  16.556 -0.2365  1.2519 -0.6611
10011TIP3   OH251523   2.149   0.511   5.361  0.0660 -0.2011 -0.2421
10011TIP3    H151524   2.099   0.444   5.316 -0.6212  0.5114 -0.5538
10011TIP3    H251525   2.167   0.577   5.294  0.7195 -0.0528  0.0638
10012TIP3   OH251526   4.446   2.783   5.806  0.1563  0.2070  0.0943
10012TIP3    H151527   4.503   2.843   5.855 -0.5302  0.6254  0.3926
10012TIP3    H251528   4.358   2.802   5.839 -0.7599  2.4459 -3.2190
10013TIP3   OH251529   3.612   5.055  14.663  0.0223  0.1082 -0.0947
10013TIP3    H151530   3.596   5.067  14.757 -0.9831 -4.1431  0.4700
10013TIP3    H251531   3.707   5.062  14.653  0.0877  1.2489  1.0606
10014TIP3   OH251532   6.334   0.440   4.045  1.0826 -0.1803 -0.8510
10014TIP3    H151533   6.373   0.411   3.963 -1.3108 -0.8800 -1.8433
10014TIP3    H251534   6.323   0.534   4.035  1.3649 -0.1679 -1.0587
10015TIP3   OH251535   6.097   0.003   0.347  0.0449  0.0103  0.0772
10015TIP3    H151536   6.157  -0.042   0.288  1.7545  1.9136  0.2540
10015TIP3    H251537   6.096  -0.052   0.426  0.4833 -0.7658 -0.4499
10016TIP3   OH251538   5.295   6.423   5.277 -0.5748 -0.4572 -0.3837
10016TIP3    H151539   5.373   6.474   5.299 -0.6501 -0.9651  1.2311
10016TIP3    H251540   5.250   6.411   5.361 -1.5450 -1.5629 -1.0255
10017TIP3   OH251541   2.609   1.807  12.186  0.1137  0.1300  0.0248
10017TIP3    H151542   2.553   1.778  12.114  0.1688  0.1743 -0.0354
10017TIP3    H251543   2.570   1.767  12.264 -0.2317  0.4762  0.0353
10018TIP3   OH251544   3.034   1.117   2.433  0.1437  1.2079  0.3979
10018TIP3    H151545   2.959   1.111   2.373  1.1267 -1.9814 -0.6782
10018TIP3    H251546   3.013   1.057   2.504  2.7649 -2.1393 -1.3931
10019TIP3   OH251547   3.253   1.722   4.162  0.1818  0.1598  0.1767
10019TIP3    H151548   3.342   1.708   4.193  0.2634  1.5539  0.6364
10019TIP3    H251549   3.198   1.673   4.224  0.6110 -0.8353 -0.2046
10020TIP3   OH251550   1.561   2.104   1.283 -0.2721  0.4718 -0.7593
10020TIP3    H151551   1.544   2.197   1.269 -2.1921  0.4264  0.7682
10020TIP3    H251552   1.609   2.101   1.365 -1.0464  0.0905 -0.3103
10021TIP3   OH251553   5.398   3.827   2.426 -0.0333 -1.0092 -0.6349
10021TIP3    H151554   5.447   3.856   2.503  1.1507 -0.7055 -1.4796
10021TIP3    H251555   5.322   3.781   2.462 -0.4140  0.5715  0.7366
10022TIP3   OH251556   3.647   6.141  14.252 -0.1776  0.0240 -0.0580
10022TIP3    H151557   3.725   6.195  14.254  0.8902 -1.4724 -0.0009
10022TIP3    H251558   3.590   6.178  14.320  0.2404  1.4259 -0.4388
10023TIP3   OH251559   5.979   6.229  13.107 -0.4613  0.1939  0.2619
10023TIP3    H151560   5.926   6.192  13.178 -0.7656  1.2605  0.6031
10023TIP3    H251561   5.951   6.320  13.101  0.0358  0.2880 -0.7952
10024TIP3   OH251562   2.107   1.805  14.426  0.3059  0.6225 -0.4263
10024TIP3    H151563   2.200   1.796  14.448  0.1981  0.5716  0.0359
10024TIP3    H251564   2.061   1.769  14.502 -0.0990 -2.3201 -1.9396
10025TIP3   OH251565   1.384   6.034   2.395  0.2586  0.6341 -0.3134
10025TIP3    H151566   1.437   5.974   2.342 -0.0074  0.8036 -0.7855
10025TIP3    H251567   1.447   6.081   2.449  0.3051 -1.8122  1.9314
10026TIP3   OH251568   6.449   2.839  15.577  0.3548  0.0399  0.0028
10026TIP3    H151569   6.523   2.796  15.534 -0.8714 -0.9138 -1.2531
10026TIP3    H251570   6.452   2.807  15.667  1.6093  0.2231  0.0446
10027TIP3   OH251571   1.977   5.877   6.580 -0.4288  0.6162  0.3830
10027TIP3    H151572   1.898   5.930   6.592 -1.4031 -0.8628  0.7469
10027TIP3    H251573   1.970   5.843   6.490  0.2034  1.0963  0.1421
10028TIP3   OH251574   1.875   5.289  14.326 -0.2141  0.0525 -0.7330
10028TIP3    H151575   1.909   5.211  14.370  1.2003  0.6571 -0.7010
10028TIP3    H251576   1.928   5.296  14.246 -0.1712  1.0959 -0.6249
10029TIP3   OH251577   2.917   4.947  16.396 -0.2793 -0.1089  0.1434
10029TIP3    H151578   2.886   4.857  16.403  0.1389 -0.2166  0.6950
10029TIP3    H251579   2.969   4.950  16.316  0.0613 -0.4633  0.3519
10030TIP3   OH251580   6.492   1.618  13.277 -0.5622  0.2270 -0.3898
10030TIP3    H151581   6.518   1.600  13.187  1.1684  1.1411 -0.1114
10030TIP3    H251582   6.514   1.710  13.291 -0.0562 -0.0984  1.2020
10031TIP3   OH251583   2.319   6.664   3.591 -0.1283  0.1358  0.5341
10031TIP3    H151584   2.324   6.629   3.680  0.7952 -0.7395  0.1640
10031TIP3    H251585   2.407   6.697   3.573 -0.4636  0.8442  0.1482
10032TIP3   OH251586   6.229   3.277  13.129  0.6604  0.0796  0.5068
10032TIP3    H151587   6.240   3.285  13.224 -0.4682  0.0393  0.6455
10032TIP3    H251588   6.217   3.367  13.099  1.4422  0.1384  0.3282
10033TIP3   OH251589   4.568   1.354   6.078 -0.2051  0.5401  0.1874
10033TIP3    H151590   4.567   1.449   6.089 -0.3278  0.4640  0.8703
10033TIP3    H251591   4.659   1.329   6.095 -0.2168  0.5106  0.2058
10034TIP3   OH251592   1.831   6.076  16.919  0.2038  0.0062 -0.0685
10034TIP3    H151593   1.749   6.098  16.962  0.1872  0.4852 -0.3377
10034TIP3    H251594   1.898   6.118  16.974  0.0630  2.4400 -1.6082
10035TIP3   OH251595   1.383   6.776  14.158 -0.4774 -0.2552 -0.3037
10035TIP3    H151596   1.287   6.779  14.150 -0.6220 -0.5397  1.1189
10035TIP3    H251597   1.406   6.685  14.140 -0.5498 -0.3536  0.1045
10036TIP3   OH251598   0.318   6.595   4.370 -0.1196  0.0962 -0.4815
10036TIP3    H151599   0.225   6.588   4.393  0.1561  0.8359  0.9965
10036TIP3    H251600   0.318   6.618   4.277 -1.3477 -1.5253 -0.9288
10037TIP3   OH251601   2.767   0.550  14.633  0.5298 -0.0622 -0.3380
10037TIP3    H151602   2.761   0.554  14.537  0.8785 -0.6815 -0.3915
10037TIP3    H251603   2.678   0.533  14.662  0.5389 -0.5862 -0.6024
10038TIP3   OH251604   3.615   2.089  11.075  0.1607  0.5298 -0.4744
10038TIP3    H151605   3.625   2.120  10.985  0.0171 -1.5571 -1.2630
10038TIP3    H251606   3.588   2.166  11.124 -1.1054  1.4543 -2.4831
10039TIP3   OH251607   1.427   4.259   3.831 -0.6539 -0.3117  0.6676
10039TIP3    H151608   1.481   4.202   3.887  0.4441  1.0502  1.0428
10039TIP3    H251609   1.476   4.265   3.749  0.0775  1.3503  1.1913
10040TIP3   OH251610   5.329   1.471  17.126 -0.2564  0.0431 -0.8106
10040TIP3    H151611   5.351   1.379  17.109 -1.0341 -0.8363  2.2806
10040TIP3    H251612   5.255   1.466  17.186 -0.1210  2.7281 -0.3318
10041TIP3   OH251613   5.006   3.666   3.667 -0.1741  0.6128 -0.5027
10041TIP3    H151614   4.953   3.602   3.716  2.0935 -0.9218  0.1367
10041TIP3    H251615   5.041   3.616   3.593  1.1327  1.2630 -0.3494
10042TIP3   OH251616   0.305   0.615   6.548  0.2106 -0.2453 -0.7941
10042TIP3    H151617   0.272   0.684   6.606  0.0920 -0.9423  0.0017
10042TIP3    H251618   0.240   0.609   6.478  0.8657  1.2985 -1.5806
10043TIP3   OH251619   6.196   1.662  15.615  1.1143  0.3433  0.1834
10043TIP3    H151620   6.216   1.604  15.689 -0.1164 -0.1988  0.1148
10043TIP3    H251621   6.211   1.750  15.649  0.8478  0.0872  0.9944
10044TIP3   OH251622   0.848   5.438   0.197 -0.1986  0.8283 -0.0536
10044TIP3    H151623   0.803   5.366   0.153 -1.7620  0.1904  2.3365
10044TIP3    H251624   0.878   5.400   0.280  1.2868  2.2941  0.1361
10045TIP3   OH251625   5.457   0.675   3.843 -0.2488  0.3636 -0.0890
10045TIP3    H151626   5.490   0.589   3.868 -1.0134 -0.2472 -1.1037
10045TIP3    H251627   5.466   0.728   3.922  0.9055 -0.4393  0.3444
10046TIP3   OH251628   6.021   5.290   3.351 -0.2114 -0.6282 -0.1831
10046TIP3    H151629   6.039   5.380   3.378 -0.5746  0.2063 -2.5499
10046TIP3    H251630   5.942   5.265   3.400 -1.1126  0.9643 -0.7848
10047TIP3   OH251631   1.508   4.873   3.638 -0.2906 -0.7555 -0.0453
10047TIP3    H151632   1.542   4.904   3.554 -1.3084  1.1596  0.2066
10047TIP3    H251633   1.547   4.786   3.648  0.5405 -0.6865 -2.0796
10048TIP3   OH251634   3.309   5.820  16.461  0.0370  0.2104 -0.4685
10048TIP3    H151635   3.367   5.826  16.537  1.0999  0.2180 -1.2517
10048TIP3    H251636   3.314   5.728  16.434 -0.5540  0.1454 -0.3706
10049TIP3   OH251637   2.792   3.074   5.106 -0.3620  0.0765 -0.2191
10049TIP3    H151638   2.703   3.107   5.116 -0.1184  0.7776 -0.3433
10049TIP3    H251639   2.791   2.989   5.150 -1.2120 -0.1330 -0.6220
10050TIP3   OH251640   1.776   5.801  12.468  0.0210 -0.1347  0.5761
10050TIP3    H151641   1.712   5.753  12.415 -0.2223  1.2450 -0.4163
10050TIP3    H251642   1.828   5.850  12.404  2.1615 -1.2645  1.3342
10051TIP3   OH251643   5.606   2.597  12.384 -0.2910 -0.1183 -0.5656
10051TIP3    H151644   5.589   2.557  12.299  0.5161 -0.0966 -0.7482
10051TIP3    H251645   5.665   2.670  12.365 -1.8993  1.3188 -0.2666
10052TIP3   OH251646   4.115   0.964   1.281 -0.7085 -0.0536  0.9946
10052TIP3    H151647   4.096   1.057   1.271  0.3378  0.0923  0.0840
10052TIP3    H251648   4.062   0.921   1.213 -1.6580 -0.1965  1.8151
10053TIP3   OH251649   6.816   3.393  14.746  0.0160 -0.0129  0.0543
10053TIP3    H151650   6.850   3.327  14.807 -1.3565 -0.0235  0.8384
10053TIP3    H251651   6.849   3.365  14.661 -0.4149 -1.6617  0.3812
10054TIP3   OH251652   3.146   6.087  16.719  0.3090  0.3285  0.6362
10054TIP3    H151653   3.110   6.013  16.670 -1.8900 -0.2597  2.9579
10054TIP3    H251654   3.229   6.107  16.674 -0.8969 -0.9601 -2.4565
10055TIP3   OH251655   0.279   2.022  14.822 -0.5568  0.2602  0.6120
10055TIP3    H151656   0.348   2.083  14.797 -1.3355  1.1466  0.5415
10055TIP3    H251657   0.231   2.067  14.892 -1.5084 -0.0006  0.1543
10056TIP3   OH251658   5.259   1.195   2.551  0.2590  0.8099  0.7023
10056TIP3    H151659   5.264   1.119   2.492 -2.1313  1.1942 -0.1215
10056TIP3    H251660   5.347   1.234   2.547  0.7622 -0.3582 -1.0179
10057TIP3   OH251661   3.439   5.975  13.398 -0.5835 -0.1772  0.1476
10057TIP3    H151662   3.352   6.006  13.373  0.3395  2.3946 -0.2559
10057TIP3    H251663   3.434   5.965  13.493 -1.1120  0.8025  0.2449
10058TIP3   OH251664   2.746   4.403   1.273  0.2039  0.4226  0.9376
10058TIP3    H151665   2.653   4.399   1.298  0.0860  1.8975  0.7867
10058TIP3    H251666   2.753   4.481   1.218  0.9540 -1.2895 -1.5822
10059TIP3   OH251667   1.815   2.608  14.836 -0.2814  0.3707  0.0381
10059TIP3    H151668   1.729   2.648  14.836  0.0207  1.0520  0.8374
10059TIP3    H251669   1.858   2.643  14.758  0.4491  2.7064  1.4000
10060TIP3   OH251670   6.826   4.248   4.323  0.3979  0.2177  0.6327
10060TIP3    H151671   6.860   4.314   4.262  2.5816 -0.0674  1.4370
10060TIP3    H251672   6.745   4.218   4.284  1.7547 -0.0305 -2.2118
10061TIP3   OH251673   2.460   3.738   3.762  0.0636 -0.0824 -0.1067
10061TIP3    H151674   2.452   3.773   3.851  0.7847  2.7206 -1.0607
10061TIP3    H251675   2.554   3.724   3.750  0.1755  1.2721 -0.9907
10062TIP3   OH251676   2.838   1.986   2.480 -0.0489  0.5832  0.5145
10062TIP3    H151677   2.899   1.974   2.553 -1.6743  0.8438  1.9940
10062TIP3    H251678   2.800   2.073   2.495 -1.1119  0.2441 -0.1002
10063TIP3   OH251679   6.788   6.788  11.906 -0.0022  0.1018  0.3323
10063TIP3    H151680   6.810   6.829  11.990 -1.4211 -0.2008  0.8767
10063TIP3    H251681   6.854   6.822  11.846  1.3092  0.0125  1.6373
10064TIP3   OH251682   3.640   2.328   5.375  0.2733  0.6653 -0.0823
10064TIP3    H151683   3.692   2.251   5.351 -0.0444  0.9159 -1.7431
10064TIP3    H251684   3.683   2.400   5.329 -0.6004  1.1398 -0.1602
10065TIP3   OH251685   3.724   5.191   1.478  0.0328 -0.1556 -0.0049
10065TIP3    H151686   3.741   5.284   1.462 -2.0843  0.1036 -1.1760
10065TIP3    H251687   3.805   5.158   1.516  1.3435  1.8596 -0.8606
10066TIP3   OH251688   3.421   3.342  12.570 -0.1570 -0.0477  0.1325
10066TIP3    H151689   3.451   3.330  12.479 -1.6883 -0.4500 -0.3616
10066TIP3    H251690   3.364   3.419  12.566 -1.0721 -0.6800  0.5077
10067TIP3   OH251691   6.258   4.858   0.561  0.9760 -0.3365  0.6649
10067TIP3    H151692   6.296   4.869   0.648 -0.6516 -1.9594  1.6475
10067TIP3    H251693   6.165   4.875   0.572  0.7057 -0.7975 -0.6907
10068TIP3   OH251694   2.956   5.072   4.952  0.2254 -0.3602 -0.2756
10068TIP3    H151695   3.019   5.026   5.007 -1.1994 -2.9115 -0.5975
10068TIP3    H251696   2.929   5.007   4.887 -2.7073  0.5777 -0.1525
10069TIP3   OH251697   2.711   4.830  14.278 -0.1002  0.1740  0.2848
10069TIP3    H151698   2.778   4.898  14.271 -0.9379  0.8473 -2.3809
10069TIP3    H251699   2.630   4.879  14.293 -0.5166 -0.3353 -0.2752
10070TIP3   OH251700   3.787   3.918   9.998 -0.1524  0.1427  0.0653
10070TIP3    H151701   3.750   4.007   9.996 -0.1684  0.1437  0.3668
10070TIP3    H251702   3.738   3.873  10.067  0.1652  0.0357  0.2225
10071TIP3   OH251703   5.246   0.400  12.526 -0.3417  0.1505 -0.8268
10071TIP3    H151704   5.326   0.385  12.575  0.1717 -0.2470 -1.7512
10071TIP3    H251705   5.276   0.414  12.436 -1.2155  1.3422 -0.9477
10072TIP3   OH251706   4.024   2.124   1.590  0.1443  0.3672  0.1115
10072TIP3    H151707   4.014   2.048   1.647 -1.2070 -0.2479 -0.9096
10072TIP3    H251708   3.947   2.123   1.533  1.1416  1.2919 -1.3444
10073TIP3   OH251709   3.557   2.538  11.839 -0.3146 -0.5139  0.3998
10073TIP3    H151710   3.516   2.611  11.886 -0.0414  0.8045 -1.3104
10073TIP3    H251711   3.529   2.549  11.748  2.2372 -0.6753 -0.4991
10074TIP3   OH251712   6.218   6.190   5.992 -0.1648  0.3207  0.2330
10074TIP3    H151713   6.173   6.132   5.931  1.6057 -1.3998  0.4690
10074TIP3    H251714   6.231   6.271   5.942 -1.5974  0.1267 -0.5215
10075TIP3   OH251715   5.560   0.358  15.508 -0.0721  0.5567 -0.3117
10075TIP3    H151716   5.555   0.344  15.413 -0.9439  0.9025 -0.3209
10075TIP3    H251717   5.591   0.449  15.517 -0.1151  0.5672 -0.2677
10076TIP3   OH251718   3.542   3.825  15.702  0.2104  0.1021  0.1337
10076TIP3    H151719   3.450   3.798  15.710  0.2966 -0.0671  0.5725
10076TIP3    H251720   3.545   3.877  15.621 -0.4155  0.7157  0.5034
10077TIP3   OH251721   2.848   4.028  16.146 -0.1688  0.3852 -0.2280
10077TIP3    H151722   2.818   4.023  16.237  3.8997  0.1888  1.3197
10077TIP3    H251723   2.850   3.936  16.117 -0.6156  0.3680 -0.2132
10078TIP3   OH251724   6.547   5.543  14.409  0.5612  0.2753  0.1657
10078TIP3    H151725   6.469   5.568  14.359  0.3417 -1.4781 -0.4427
10078TIP3    H251726   6.571   5.622  14.456  0.3665  1.8487 -2.1876
10079TIP3   OH251727   1.308   6.444   4.881 -0.0184  0.1628  0.0696
10079TIP3    H151728   1.217   6.475   4.889 -0.8254 -1.4913 -1.6915
10079TIP3    H251729   1.328   6.455   4.788  1.2775 -0.2978  0.2782
10080TIP3   OH251730   5.240   3.676  11.082 -0.1065 -0.2270  0.3928
10080TIP3    H151731   5.296   3.752  11.096 -0.1445 -0.0313 -0.4448
10080TIP3    H251732   5.297   3.613  11.037 -0.1646 -0.5789  0.8015
10081TIP3   OH251733   2.135   3.822   0.499  0.0883  0.2701  0.4739
10081TIP3    H151734   2.074   3.883   0.540  1.1484  0.7720  1.3667
10081TIP3    H251735   2.105   3.736   0.525 -1.3690  0.3864 -0.7068
10082TIP3   OH251736   4.060   4.143  13.885  0.2594 -0.5148 -0.1584
10082TIP3    H151737   4.004   4.101  13.951  0.3621 -0.2876  0.0776
10082TIP3    H251738   4.075   4.075  13.820 -0.4252 -0.5269 -0.3072
10083TIP3   OH251739   2.935   6.346  12.033  0.1012 -0.1130  0.2446
10083TIP3    H151740   3.027   6.347  12.059  0.5769  0.4593 -1.3721
10083TIP3    H251741   2.893   6.287  12.096  1.1328  1.2875  2.3862
10084TIP3   OH251742   6.560   6.777   4.722 -0.4362  0.2592  0.7881
10084TIP3    H151743   6.536   6.721   4.796  0.0906 -0.2728  0.5747
10084TIP3    H251744   6.478   6.798   4.679 -0.6281 -0.6321  0.6890
10085TIP3   OH251745   6.746   0.056  11.444  1.0541 -0.1167 -0.2300
10085TIP3    H151746   6.819   0.038  11.503  1.3939  0.0880 -0.5848
10085TIP3    H251747   6.766   0.006  11.365 -0.1211 -1.5457  0.3484
10086TIP3   OH251748   3.975   6.182   6.576 -0.0575  0.5011  0.0703
10086TIP3    H151749   3.939   6.263   6.612 -0.2772 -0.0236  1.0590
10086TIP3    H251750   3.902   6.121   6.577 -0.0707  0.4645 -1.3045
10087TIP3   OH251751   0.766   3.983   0.082 -0.1058 -0.2982  0.8267
10087TIP3    H151752   0.773   4.040   0.159  0.2326 -0.2454  0.7555
10087TIP3    H251753   0.827   4.020   0.019 -0.0850 -0.5835  0.6783
10088TIP3   OH251754   0.125   4.823  16.037 -0.0859 -0.0531 -0.5780
10088TIP3    H151755   0.117   4.903  16.088  1.1005 -0.1085 -0.2744
10088TIP3    H251756   0.049   4.824  15.979  0.2932  1.6522 -1.0953
10089TIP3   OH251757   0.854   0.155  15.276 -0.2811  0.4619  0.4926
10089TIP3    H151758   0.827   0.230  15.329  1.1103  0.7610  0.8038
10089TIP3    H251759   0.866   0.190  15.188 -0.9989  0.2998  0.3222
10090TIP3   OH251760   4.670   2.450  14.552 -0.0355 -0.0384 -0.1980
10090TIP3    H151761   4.712   2.366  14.537 -0.0062 -0.2935  1.1678
10090TIP3    H251762   4.590   2.430  14.600 -0.5835  0.6323 -0.8029
10091TIP3   OH251763   1.624   2.733  16.062 -0.1934  0.0288  0.3073
10091TIP3    H151764   1.646   2.700  16.150 -0.6320 -0.3656  0.2708
10091TIP3    H251765   1.692   2.697  16.005 -0.4487 -0.4947  0.3315
10092TIP3   OH251766   1.798   5.887  13.691 -0.4186  0.0160  0.0021
10092TIP3    H151767   1.753   5.888  13.775 -1.1506  0.6849 -0.3891
10092TIP3    H251768   1.847   5.804  13.691 -4.0291 -2.3707 -0.8119
10093TIP3   OH251769   1.400   1.586  13.201  0.3053 -0.5151  0.3812
10093TIP3    H151770   1.436   1.510  13.155 -0.4920 -1.5009  1.3407
10093TIP3    H251771   1.405   1.562  13.293 -2.7207 -0.7100  0.5973
10094TIP3   OH251772   5.287   3.316  12.088  0.2164  0.1560 -0.1959
10094TIP3    H151773   5.195   3.314  12.063  0.8119  0.5297 -2.5815
10094TIP3    H251774   5.323   3.233  12.058  0.3914 -0.7107  2.1406
10095TIP3   OH251775   5.724   4.478  16.499  0.1283 -0.8514  0.5309
10095TIP3    H151776   5.749   4.438  16.417 -0.3557  0.2805 -0.1989
10095TIP3    H251777   5.788   4.549  16.512  0.5931 -1.4230  1.4693
10096TIP3   OH251778   5.437   4.998  14.567 -0.1245 -0.9210  0.0780
10096TIP3    H151779   5.452   5.063  14.498 -2.2810  0.3484  0.7297
10096TIP3    H251780   5.447   4.914  14.522  1.4862 -0.1741 -1.0644
10097TIP3   OH251781   5.505   3.984  12.470  0.0863  0.1508 -0.0577
10097TIP3    H151782   5.466   3.923  12.408  0.8626 -1.4052  0.9232
10097TIP3    H251783   5.435   4.000  12.534 -0.0523  0.0960 -0.1951
10098TIP3   OH251784   3.049   1.584   2.362 -0.3612 -0.0756  0.7982
10098TIP3    H151785   3.103   1.524   2.413  0.3023  0.7117  1.0393
10098TIP3    H251786   3.111   1.643   2.319 -0.8350 -1.1622 -1.5495
10099TIP3   OH251787   3.796   5.655   4.770 -0.2111 -0.2659  0.2516
10099TIP3    H151788   3.858   5.585   4.789 -0.6527 -0.9297 -0.6855
10099TIP3    H251789   3.778   5.695   4.855  0.3395 -1.0368  0.7435
10100TIP3   OH251790   0.184   6.129   4.985  0.6068  0.3595  0.3897
10100TIP3    H151791   0.129   6.204   4.963  1.7205  0.8387 -0.8629
10100TIP3    H251792   0.260   6.166   5.028  1.1069 -0.0503 -0.1186
10101TIP3   OH251793   5.397   2.300  16.562 -0.0693  0.1027 -0.7771
10101TIP3    H151794   5.346   2.284  16.483  0.4307  1.1969 -1.3421
10101TIP3    H251795   5.412   2.213  16.599 -0.8461 -0.3702 -1.5337
10102TIP3   OH251796   4.724   1.564  12.599 -0.2975  0.4403 -0.0665
10102TIP3    H151797   4.659   1.568  12.528 -0.7966 -1.4681  0.2249
10102TIP3    H251798   4.766   1.478  12.588  0.4137  0.5900  1.2865
10103TIP3   OH251799   0.076   3.799   0.250 -0.1255  0.0143 -0.1673
10103TIP3    H151800   0.124   3.721   0.221 -0.8502 -0.5896  0.2350
10103TIP3    H251801   0.132   3.838   0.317 -0.0613 -0.5382  0.1061
10104TIP3   OH251802   3.297   1.509   0.883  0.1221 -0.0698  0.2734
10104TIP3    H151803   3.216   1.462   0.903 -0.1981  0.2531 -0.2204
10104TIP3    H251804   3.313   1.490   0.790  0.0956  0.6230  0.1190
10105TIP3   OH251805   2.360   1.687  15.172  0.1009  0.3682  0.1213
10105TIP3    H151806   2.401   1.758  15.223  1.1840  0.2231 -0.5162
10105TIP3    H251807   2.392   1.607  15.214  0.1002  0.2517 -0.1018
10106TIP3   OH251808   5.069   6.484   2.044  0.0570  0.6374  0.2747
10106TIP3    H151809   4.996   6.542   2.066  1.6933  1.9338  2.6051
10106TIP3    H251810   5.139   6.509   2.103  1.8355 -1.8069 -0.6316
10107TIP3   OH251811   5.559   0.374   4.859 -0.1467 -0.8314 -0.0776
10107TIP3    H151812   5.625   0.407   4.798 -1.3281 -0.1188 -1.0265
10107TIP3    H251813   5.505   0.314   4.807 -0.9436 -0.5082  0.3510
10108TIP3   OH251814   4.355   0.708  15.240  0.5407 -0.5579  0.4470
10108TIP3    H151815   4.295   0.635  15.249  0.3527 -0.2668  1.7060
10108TIP3    H251816   4.411   0.685  15.166 -0.5873 -1.1989 -0.2188
10109TIP3   OH251817   5.086   3.055   1.365  0.0350 -0.2506  0.4230
10109TIP3    H151818   5.126   3.035   1.280 -0.0638  0.9792  0.0730
10109TIP3    H251819   5.018   2.989   1.376 -0.5052  0.0699 -0.8510
10110TIP3   OH251820   4.368   5.260   2.835 -0.4251 -0.1326 -0.1695
10110TIP3    H151821   4.282   5.250   2.795 -0.3176  0.3455 -0.5328
10110TIP3    H251822   4.422   5.193   2.792 -0.7857 -0.9269  0.5833
10111TIP3   OH251823   4.888   2.500  11.281 -0.7120  0.2337 -0.0902
10111TIP3    H151824   4.932   2.581  11.256  0.4186 -0.5568 -0.7996
10111TIP3    H251825   4.830   2.480  11.207  0.3981 -0.5458 -0.7793
10112TIP3   OH251826   1.152   6.796  15.755  0.1245 -0.1021  0.0597
10112TIP3    H151827   1.147   6.860  15.826 -0.0278 -2.3531  2.2165
10112TIP3    H251828   1.106   6.837  15.682  0.0261  2.2084  1.3460
10113TIP3   OH251829   6.463   2.636   1.339 -0.1415 -0.5167  0.2812
10113TIP3    H151830   6.425   2.683   1.265 -0.6412 -0.2429  0.7049
10113TIP3    H251831   6.493   2.553   1.302  0.0637 -0.1819 -0.3237
10114TIP3   OH251832   0.031   2.831  15.072  0.0628  0.2797 -0.2535
10114TIP3    H151833   0.034   2.799  15.162  1.3009  1.2169  0.0636
10114TIP3    H251834   0.050   2.924  15.079 -0.0951  0.4129 -1.4685
10115TIP3   OH251835   4.281   2.179   2.297  0.0129  0.3389  0.3574
10115TIP3    H151836   4.344   2.167   2.368  1.2722  1.1615 -0.5838
10115TIP3    H251837   4.220   2.105   2.306  1.0306 -0.4005  1.3697
10116TIP3   OH251838   3.367   4.333   3.830  0.0575 -0.5214  0.0844
10116TIP3    H151839   3.303   4.394   3.794 -0.3434 -0.8818  0.1638
10116TIP3    H251840   3.429   4.387   3.879  0.1787 -0.1052 -0.5239
10117TIP3   OH251841   0.237   5.486   1.828 -0.0296  0.4586 -0.3225
10117TIP3    H151842   0.306   5.421   1.823  0.5433  0.8635  1.5080
10117TIP3    H251843   0.165   5.442   1.873 -0.4286  0.4838 -0.9206
10118TIP3   OH251844   1.211   4.691   3.953  0.5017 -0.1855  0.0133
10118TIP3    H151845   1.182   4.759   3.892 -0.9723 -1.7449 -1.1227
10118TIP3    H251846   1.292   4.725   3.990  0.2442  1.8172 -1.1217
10119TIP3   OH251847   2.668   5.324   2.879 -0.4289 -0.5611  0.5863
10119TIP3    H151848   2.692   5.352   2.791  1.5079 -1.8150  0.6698
10119TIP3    H251849   2.578   5.293   2.870  0.0871 -1.6804 -1.1979
10120TIP3   OH251850   4.345   2.401  11.517  0.2442  0.8567 -0.2887
10120TIP3    H151851   4.395   2.404  11.436 -0.6265  0.6726 -0.8438
10120TIP3    H251852   4.268   2.456  11.499  0.4934  1.5686  0.7255
10121TIP3   OH251853   2.540   6.839  15.451  0.6476 -0.3842 -0.5129
10121TIP3    H151854   2.571   6.919  15.494 -2.2556  1.1446 -1.0190
10121TIP3    H251855   2.525   6.865  15.360 -3.1078 -0.5435 -0.0788
10122TIP3   OH251856   6.684   3.510   1.463  0.6084 -0.3683 -0.1664
10122TIP3    H151857   6.654   3.528   1.552  0.1945  0.2142 -0.4148
10122TIP3    H251858   6.664   3.417   1.449 -0.2120 -0.2331  0.0198
10123TIP3   OH251859   1.353   5.954   3.007 -0.0817 -0.2576  0.5084
10123TIP3    H151860   1.302   5.873   3.019 -0.6616 -0.0779 -0.5874
10123TIP3    H251861   1.409   5.958   3.084  0.8437 -2.3399  0.0252
10124TIP3   OH251862   0.927   1.135  14.625 -0.1648 -0.2073 -0.1789
10124TIP3    H151863   0.914   1.130  14.530 -0.4914  0.6117 -0.1864
10124TIP3    H251864   1.013   1.175  14.635 -1.2499  2.3529 -0.1745
10125TIP3   OH251865   5.384   3.151  11.717  0.0080 -0.0191 -0.0586
10125TIP3    H151866   5.415   3.091  11.650 -0.8191 -0.3502 -0.1566
10125TIP3    H251867   5.317   3.204  11.674 -1.4783 -1.1038  0.7958
10126TIP3   OH251868   0.947   6.101  15.072  0.0834  0.3116 -0.3879
10126TIP3    H151869   1.036   6.065  15.072  0.1695  0.5117 -0.7463
10126TIP3    H251870   0.904   6.060  15.146  1.1792  1.9692  1.2512
10127TIP3   OH251871   0.126   3.662   0.859 -0.0563 -0.0883 -0.4767
10127TIP3    H151872   0.103   3.615   0.779  0.1863 -0.1205 -0.5278
10127TIP3    H251873   0.215   3.694   0.844  0.7443 -1.7260  0.5063
10128TIP3   OH251874   2.976   4.998  15.279 -0.1111  0.4907 -0.8585
10128TIP3    H151875   2.910   5.061  15.250 -1.1012  0.7210  1.5971
10128TIP3    H251876   3.008   5.033  15.362  1.3097 -0.8892 -0.7686
10129TIP3   OH251877   3.648   2.455  15.043  0.5305 -0.9907  0.0144
10129TIP3    H151878   3.743   2.452  15.030  0.5233 -1.1773 -0.0036
10129TIP3    H251879   3.631   2.393  15.114  0.6992  0.9107  1.8181
10130TIP3   OH251880   1.702   2.709   4.526 -0.6543 -0.1605  0.0445
10130TIP3    H151881   1.767   2.774   4.554 -1.2270  0.7456 -0.6689
10130TIP3    H251882   1.705   2.642   4.594  0.2500  0.4016  0.5902
10131TIP3   OH251883   5.435   3.689   2.875  0.2685 -0.3134  0.3052
10131TIP3    H151884   5.416   3.778   2.846  0.0323 -0.4216  0.1243
10131TIP3    H251885   5.363   3.636   2.840  0.9200 -0.7396 -0.4337
10132TIP3   OH251886   6.352   1.257  12.374 -0.1633 -0.3408 -0.3439
10132TIP3    H151887   6.354   1.313  12.452 -1.1727 -0.3825 -0.2727
10132TIP3    H251888   6.283   1.295  12.320 -0.3413 -1.0800 -0.6364
10133TIP3   OH251889   2.689   1.237  10.933  0.5820  0.0895 -0.0613
10133TIP3    H151890   2.636   1.158  10.949  0.0490  0.0423 -1.8284
10133TIP3    H251891   2.659   1.299  10.999 -0.3146 -0.5834  0.1959
10134TIP3   OH251892   3.150   5.575  14.544  0.0393 -0.6780 -0.3570
10134TIP3    H151893   3.109   5.496  14.508  1.7063 -1.2749 -1.0459
10134TIP3    H251894   3.239   5.548  14.566  0.6162  0.9832 -0.5057
10135TIP3   OH251895   4.825   3.734   0.454 -0.1010  0.2421  0.7290
10135TIP3    H151896   4.913   3.771   0.441  1.2142 -2.3918  1.3633
10135TIP3    H251897   4.778   3.800   0.505  1.4874  1.7282  0.3728
10136TIP3   OH251898   4.934   3.005  15.902  0.2506 -0.7136  0.1003
10136TIP3    H151899   4.996   2.956  15.956  2.0911  0.5329 -0.7891
10136TIP3    H251900   4.960   3.096  15.912 -1.7696 -0.0832  0.0477
10137TIP3   OH251901   0.710   5.830  16.058 -0.0838 -0.0139 -0.4582
10137TIP3    H151902   0.630   5.804  16.012 -0.0352  0.2636 -0.7081
10137TIP3    H251903   0.687   5.911  16.103  0.0749  0.1092 -0.5941
10138TIP3   OH251904   6.624   5.648   3.974  0.5424 -0.2351 -0.5198
10138TIP3    H151905   6.709   5.604   3.987  0.7798  0.6940  1.3969
10138TIP3    H251906   6.644   5.721   3.916  1.2115  0.3552  0.4260
10139TIP3   OH251907   1.111   4.847  14.982 -0.1202 -0.6104  0.0773
10139TIP3    H151908   1.187   4.791  14.964 -0.2902 -1.1179  0.8768
10139TIP3    H251909   1.141   4.905  15.052 -0.2958 -0.4305  0.0039
10140TIP3   OH251910   3.784   0.420   6.122  0.2219 -0.3266 -0.1390
10140TIP3    H151911   3.796   0.329   6.148 -0.8008 -0.7653 -1.1564
10140TIP3    H251912   3.872   0.458   6.129  0.5098 -1.1550  1.1022
10141TIP3   OH251913   0.509   4.640   4.177 -0.5127  0.1380  0.2787
10141TIP3    H151914   0.442   4.628   4.245 -1.3571  1.5994 -0.2513
10141TIP3    H251915   0.460   4.673   4.102  0.5046 -0.8981 -0.8740
10142TIP3   OH251916   6.236   1.531   0.064 -0.4419 -0.4102 -0.3035
10142TIP3    H151917   6.191   1.525   0.149 -1.5753 -0.9698 -0.9290
10142TIP3    H251918   6.170   1.508  -0.000  0.7560 -1.2684 -1.2694
10143TIP3   OH251919   0.061   3.763   5.978  0.2698  0.2296 -0.2673
10143TIP3    H151920  -0.033   3.747   5.966  0.2691  0.3722 -0.4543
10143TIP3    H251921   0.066   3.805   6.064  0.2577 -0.6068  0.1544
10144TIP3   OH251922   4.421   2.721  12.171 -0.3233 -0.1503 -0.6555
10144TIP3    H151923   4.479   2.796  12.158  0.1731 -0.2569  0.7273
10144TIP3    H251924   4.405   2.719  12.265 -0.7864 -1.4501 -0.7350
10145TIP3   OH251925   6.588   2.460  11.080 -0.7828 -0.1203 -0.5329
10145TIP3    H151926   6.531   2.409  11.022 -1.7651  0.4140 -0.0648
10145TIP3    H251927   6.676   2.424  11.065 -1.6080 -2.9711  0.8232
10146TIP3   OH251928   2.644   1.267  16.133  0.1638  0.1695  0.5728
10146TIP3    H151929   2.688   1.293  16.052 -0.3839 -0.4495  0.0687
10146TIP3    H251930   2.715   1.232  16.188  0.3712 -0.5317 -0.1112
10147TIP3   OH251931   2.712   3.190  16.125  0.4839  0.1414  0.0979
10147TIP3    H151932   2.630   3.181  16.076  1.3816 -0.0520 -1.4152
10147TIP3    H251933   2.730   3.284  16.125  1.6470 -0.0229 -2.0053
10148TIP3   OH251934   2.739   2.968   2.339 -0.0247 -0.3634 -0.1616
10148TIP3    H151935   2.788   2.902   2.290 -0.7592 -1.4210  0.4979
10148TIP3    H251936   2.806   3.027   2.372  0.8938 -1.9891  1.0488
10149TIP3   OH251937   2.765   4.485   3.224  0.4253  0.5798  0.5412
10149TIP3    H151938   2.853   4.460   3.254  0.1204 -2.4431 -0.7175
10149TIP3    H251939   2.770   4.476   3.129 -1.6543 -1.2747  0.5505
10150TIP3   OH251940   3.167   4.839  13.138  0.1453  0.0823 -0.1170
10150TIP3    H151941   3.149   4.883  13.055 -3.0995  0.4107  0.5902
10150TIP3    H251942   3.087   4.790  13.156  0.4798  0.4752  3.0639
10151TIP3   OH251943   3.037   6.195   4.346 -0.4034  0.1273 -0.1528
10151TIP3    H151944   3.005   6.279   4.315 -2.3057 -0.6307 -0.4002
10151TIP3    H251945   3.019   6.134   4.274  1.9428 -0.3221 -0.4200
10152TIP3   OH251946   5.928   5.023  15.939  0.0082 -0.2791 -0.0295
10152TIP3    H151947   5.845   5.021  15.892 -0.7354 -3.1965  1.1733
10152TIP3    H251948   5.950   4.930  15.953  1.9330  0.4186  2.2787
10153TIP3   OH251949   0.541   5.575  12.925 -0.5591 -0.6528 -0.1968
10153TIP3    H151950   0.508   5.646  12.871  0.0521  0.0220  0.2996
10153TIP3    H251951   0.562   5.616  13.009  0.0115 -1.3699  0.0219
10154TIP3   OH251952   2.417   5.828  14.667  0.2607 -0.3655  0.4287
10154TIP3    H151953   2.469   5.797  14.593  1.4007 -0.4554  1.2357
10154TIP3    H251954   2.387   5.749  14.711  0.1619 -0.3185  0.4469
10155TIP3   OH251955   0.110   3.090  15.119 -0.5613  0.1138  0.7511
10155TIP3    H151956   0.179   3.101  15.054 -2.5695  0.3540 -1.4646
10155TIP3    H251957   0.136   3.148  15.191  1.2206  0.6523 -0.2615
10156TIP3   OH251958   0.451   0.670   3.989  0.2105 -0.3103 -0.4435
10156TIP3    H151959   0.410   0.585   3.971 -0.9317  0.3365 -0.9860
10156TIP3    H251960   0.518   0.678   3.921  0.2284 -0.7092 -0.4789
10157TIP3   OH251961   5.931   0.667   5.836  0.4096 -0.5155 -0.3369
10157TIP3    H151962   6.000   0.601   5.844 -0.5987 -1.5232  0.3245
10157TIP3    H251963   5.903   0.684   5.926  0.7997  0.9846 -0.4872
10158TIP3   OH251964   4.002   2.138   2.886  0.1064  0.0001 -0.2086
10158TIP3    H151965   3.995   2.206   2.819 -1.8789  2.3952  2.2006
10158TIP3    H251966   3.913   2.129   2.920  0.9217 -1.5322  1.7370
10159TIP3   OH251967   1.724   6.060  15.974 -0.5523 -0.5456 -0.0213
10159TIP3    H151968   1.689   6.144  16.005 -0.5856 -0.6637  0.2618
10159TIP3    H251969   1.653   5.997  15.991  0.1694 -0.9897  1.5490
10160TIP3   OH251970   2.894   4.603   2.103  0.1968  0.1676  0.5790
10160TIP3    H151971   2.938   4.521   2.121  0.0221  0.1655  1.0107
10160TIP3    H251972   2.882   4.604   2.008  0.2406 -0.2806  0.5674
10161TIP3   OH251973   0.642   0.734   1.052  0.0861  0.3479 -0.2445
10161TIP3    H151974   0.670   0.799   1.117 -1.1119  0.5856  0.0546
10161TIP3    H251975   0.702   0.661   1.064 -0.2908  0.2553  1.3655
10162TIP3   OH251976   2.212   1.364  14.581 -0.1232 -0.1464 -0.6642
10162TIP3    H151977   2.225   1.290  14.640  0.6015  1.2390  1.0176
10162TIP3    H251978   2.300   1.387  14.551 -0.1024  1.0577  0.2189
10163TIP3   OH251979   3.732   0.096   3.536 -0.3113  0.4170 -0.1354
10163TIP3    H151980   3.815   0.073   3.493  0.2927 -2.2619  2.1454
10163TIP3    H251981   3.672   0.026   3.512  0.0992 -1.2816  3.2255
10164TIP3   OH251982   3.589   5.927   5.966  0.0403 -0.6588 -0.2352
10164TIP3    H151983   3.504   5.965   5.989 -2.2156 -3.7246 -2.5358
10164TIP3    H251984   3.627   5.990   5.906 -1.9697 -0.3945 -1.3402
10165TIP3   OH251985   0.031   2.055   5.448  0.3723  0.2511  0.0972
10165TIP3    H151986  -0.005   2.039   5.536 -1.4255 -1.9715 -0.9231
10165TIP3    H251987   0.121   2.025   5.453  0.4908  0.7463  1.3261
10166TIP3   OH251988   1.705   0.352  11.226 -0.0400  0.5461 -0.2042
10166TIP3    H151989   1.651   0.403  11.164  0.7922  2.1527  0.3438
10166TIP3    H251990   1.641   0.312  11.285 -0.7365  0.6154 -0.8851
10167TIP3   OH251991   1.236   2.187  11.220 -0.7203 -0.0571  0.0012
10167TIP3    H151992   1.212   2.196  11.128 -0.1207  0.7843 -0.0808
10167TIP3    H251993   1.209   2.270  11.260 -0.0671 -0.0151  0.3719
10168TIP3   OH251994   4.518   6.378  15.523 -0.2002 -0.4712  0.0571
10168TIP3    H151995   4.491   6.407  15.435  1.1590 -0.1467 -0.2727
10168TIP3    H251996   4.579   6.445  15.553  0.9740 -1.6331  0.3682
10169TIP3   OH251997   0.822   4.640  10.852  0.4242 -0.6921  0.2878
10169TIP3    H151998   0.733   4.674  10.844  0.6338  0.0321  0.8904
10169TIP3    H251999   0.877   4.718  10.858  1.4202 -1.0275 -2.7942
10170TIP3   OH252000   1.061   3.639  13.252 -0.2144 -0.5008  0.0321
10170TIP3    H152001   1.108   3.712  13.292  0.0049 -1.1373  0.9797
10170TIP3    H252002   1.050   3.664  13.160  1.2692  0.0137 -0.0284
10171TIP3   OH252003   5.448   4.354  16.547 -0.2292  0.2412 -0.1526
10171TIP3    H152004   5.506   4.425  16.522 -0.7689  0.2852 -1.3243
10171TIP3    H252005   5.425   4.311  16.465  1.6020 -2.5235  0.6531
10172TIP3   OH252006   3.360   6.063  16.373 -0.0220 -0.1085  0.0380
10172TIP3    H152007   3.357   5.969  16.388  1.6794 -0.2859 -0.5767
10172TIP3    H252008   3.418   6.097  16.442  3.8119 -0.3000 -2.7611
10173TIP3   OH252009   3.839   5.233   3.614  0.1733 -0.1352  0.0529
10173TIP3    H152010   3.770   5.168   3.625  1.3288 -1.3840  0.1394
10173TIP3    H252011   3.850   5.271   3.702  0.4168 -0.7994  0.3174
10174TIP3   OH252012   4.273   5.212   5.613  0.2801  0.0609 -0.2385
10174TIP3    H152013   4.277   5.177   5.701  0.2431  0.8220  0.0761
10174TIP3    H252014   4.358   5.190   5.574  0.5274  0.2539  0.1917
10175TIP3   OH252015   1.555   2.896   4.970  0.4034 -0.2575 -0.4602
10175TIP3    H152016   1.600   2.975   5.001 -1.9797  1.6742 -1.6097
10175TIP3    H252017   1.586   2.885   4.880  0.0847 -0.1144 -0.5872
10176TIP3   OH252018   0.379   3.341   3.038  0.4447 -0.1614 -0.1917
10176TIP3    H152019   0.335   3.367   3.120  1.3892 -1.6103  0.8174
10176TIP3    H252020   0.393   3.423   2.992 -0.0070  0.7105  1.1580
10177TIP3   OH252021   2.566   3.231   5.162  0.0499  0.1153  0.2827
10177TIP3    H152022   2.596   3.318   5.137 -0.3609 -0.0309 -0.7717
10177TIP3    H252023   2.506   3.246   5.235  0.6497  0.6354  0.6662
10178TIP3   OH252024   6.593   6.673  14.212  0.0579 -0.4649 -0.4801
10178TIP3    H152025   6.608   6.618  14.289  0.7126  0.5541  0.1463
10178TIP3    H252026   6.522   6.630  14.165  0.8923 -2.1215 -0.2901
10179TIP3   OH252027   1.600   4.000  11.833 -0.1778  0.1755  0.6857
10179TIP3    H152028   1.674   4.039  11.881 -0.9991  0.0666  2.1123
10179TIP3    H252029   1.599   3.909  11.864  0.1268 -0.2920 -0.6363
10180TIP3   OH252030   6.690   4.391   1.991 -0.0858  0.1164  0.0230
10180TIP3    H152031   6.595   4.380   1.988 -0.1312  0.4603  0.1345
10180TIP3    H252032   6.713   4.426   1.906 -0.0804  0.2003  0.0590
10181TIP3   OH252033   3.810   1.583   4.091  0.2223  0.2771 -0.1122
10181TIP3    H152034   3.796   1.488   4.102  1.0672 -0.0156 -1.3655
10181TIP3    H252035   3.821   1.616   4.180  1.5795 -1.0922  0.2726
10182TIP3   OH252036   0.044   0.183  12.486 -0.4475 -0.6605 -0.0258
10182TIP3    H152037   0.010   0.260  12.441 -0.4161  0.4048  1.6624
10182TIP3    H252038  -0.035   0.137  12.517 -0.4462 -0.3047  0.5246
10183TIP3   OH252039   0.352   0.626   1.549 -0.7145  0.6462 -0.1658
10183TIP3    H152040   0.300   0.589   1.478 -1.3360  2.7026 -0.8610
10183TIP3    H252041   0.419   0.560   1.567 -1.2174 -0.4075 -1.9106
10184TIP3   OH252042   6.216   4.861  16.799  0.3380 -0.0939 -0.6063
10184TIP3    H152043   6.301   4.877  16.840  0.1468 -2.0125  0.6585
10184TIP3    H252044   6.163   4.938  16.823  1.4463  0.7460 -0.7432
10185TIP3   OH252045   4.546   3.163   3.281 -0.3048 -0.1023 -0.2758
10185TIP3    H152046   4.557   3.143   3.374 -0.9180  2.5791  0.4518
10185TIP3    H252047   4.462   3.122   3.259 -1.1010  0.8183  0.8883
10186TIP3   OH252048   3.449   2.611  14.913 -0.3767 -0.0029  0.4067
10186TIP3    H152049   3.422   2.682  14.971 -0.1042 -0.1941  0.7724
10186TIP3    H252050   3.509   2.559  14.965  1.5364  0.9900 -0.6970
10187TIP3   OH252051   2.423   3.657  15.288  0.1777 -0.0289  0.3427
10187TIP3    H152052   2.390   3.572  15.260  0.8610 -0.1932  0.0135
10187TIP3    H252053   2.345   3.712  15.296 -0.1698 -0.4101 -0.3740
10188TIP3   OH252054   1.777   0.202   1.670  0.0746 -0.0464 -0.0011
10188TIP3    H152055   1.837   0.210   1.744  0.6865 -0.5809 -0.4347
10188TIP3    H252056   1.731   0.119   1.686 -0.3296  0.2086  0.1683
10189TIP3   OH252057   5.980   6.543   1.852  0.8243 -0.1202 -0.0607
10189TIP3    H152058   5.963   6.453   1.827  2.9225  0.1154 -2.7961
10189TIP3    H252059   6.076   6.549   1.855  0.7239  1.8275  0.9411
10190TIP3   OH252060   0.001   2.241  12.007  0.0173  0.2441 -0.1423
10190TIP3    H152061  -0.036   2.179  11.944 -0.4394  0.7157 -0.3454
10190TIP3    H252062  -0.073   2.269  12.060  0.5041 -0.6300  1.0401
10191TIP3   OH252063   2.206   6.767   2.934  0.1250 -0.1459 -0.3256
10191TIP3    H152064   2.132   6.706   2.929 -1.7502  2.1055 -2.1473
10191TIP3    H252065   2.240   6.770   2.845  3.6747 -2.3544  0.7212
10192TIP3   OH252066   0.959   4.597   4.093 -0.4756 -0.2059 -0.2090
10192TIP3    H152067   0.875   4.579   4.051  0.9842 -4.4266 -1.7985
10192TIP3    H252068   1.011   4.641   4.026 -0.6067  0.1773 -0.0638
10193TIP3   OH252069   3.914   1.464  11.655  0.5386 -0.2775 -0.6687
10193TIP3    H152070   3.900   1.538  11.714  2.1783 -1.6371  1.6013
10193TIP3    H252071   3.827   1.427  11.642  0.1663 -0.3455  1.5793
10194TIP3   OH252072   2.660   3.387  11.322 -0.5496  0.0295 -0.0202
10194TIP3    H152073   2.649   3.457  11.386 -0.7156  1.0587 -1.1272
10194TIP3    H252074   2.709   3.319  11.368 -1.0600  0.5394  1.3192
10195TIP3   OH252075   2.378   3.113  11.849 -0.4718 -0.3913  0.5967
10195TIP3    H152076   2.313   3.071  11.793  1.3378 -1.9397 -0.4718
10195TIP3    H252077   2.348   3.096  11.938 -0.2839 -3.3681  0.2048
10196TIP3   OH252078   4.466   0.899  14.234  0.0062 -0.3484  0.1791
10196TIP3    H152079   4.507   0.927  14.316  1.4956  0.0240 -0.6541
10196TIP3    H252080   4.527   0.835  14.197  0.4213  0.9572 -1.5834
10197TIP3   OH252081   1.270   4.451   5.233  0.3278 -0.2489  0.6310
10197TIP3    H152082   1.184   4.418   5.207  1.0494 -0.9199 -1.0941
10197TIP3    H252083   1.255   4.542   5.257 -1.1744 -0.8862  2.2898
10198TIP3   OH252084   4.724   4.773  14.191 -0.0088 -0.1067 -0.0534
10198TIP3    H152085   4.640   4.801  14.154  0.2906 -1.0679 -1.5160
10198TIP3    H252086   4.777   4.854  14.193  0.0334 -0.0393 -1.9845
10199TIP3   OH252087   3.267   5.999   1.512  0.1125 -0.0398  0.3296
10199TIP3    H152088   3.289   5.942   1.439  0.1442  0.3356  0.0424
10199TIP3    H252089   3.276   5.944   1.590  1.0353 -0.1783  0.1334
10200TIP3   OH252090   6.721   0.405   1.182 -0.3834  0.6283 -0.3785
10200TIP3    H152091   6.718   0.313   1.157  1.5481  0.3986  0.0177
10200TIP3    H252092   6.677   0.451   1.110 -2.0074 -0.6239 -0.2443
10201TIP3   OH252093   2.888   4.137   5.795 -0.4907  0.0264  0.3520
10201TIP3    H152094   2.955   4.106   5.734 -0.7742 -0.8234  0.4534
10201TIP3    H252095   2.860   4.221   5.759  0.1810  0.0933 -0.0326
10202TIP3   OH252096   0.666   2.126  12.957 -0.5813  0.0172  0.4026
10202TIP3    H152097   0.585   2.095  12.918 -1.6072  0.8350  1.7701
10202TIP3    H252098   0.691   2.059  13.021  0.2114 -0.5584 -0.4948
10203TIP3   OH252099   4.830   4.108  11.151 -0.2534 -0.3310 -0.3565
10203TIP3    H152100   4.807   4.039  11.212 -0.3119  0.1810  0.2051
10203TIP3    H252101   4.758   4.170  11.155  0.0441  0.0291 -0.4627
10204TIP3   OH252102   6.607   6.464   5.757 -0.7752 -0.0519 -0.0864
10204TIP3    H152103   6.603   6.461   5.852  0.9138  1.3080  0.0839
10204TIP3    H252104   6.699   6.447   5.737 -1.4413 -2.2850 -1.6242
10205TIP3   OH252105   2.581   4.495  13.744 -0.2638  0.1535 -0.1711
10205TIP3    H152106   2.510   4.528  13.798 -1.0541 -1.7808  0.0636
10205TIP3    H252107   2.649   4.468  13.806  0.1373  0.7966 -0.3241
10206TIP3   OH252108   0.371   2.726   2.916  0.3069 -0.1425  0.0305
10206TIP3    H152109   0.400   2.652   2.970 -1.2683 -0.4153  0.5559
10206TIP3    H252110   0.290   2.695   2.875  1.6965 -0.1352 -2.9651
10207TIP3   OH252111   4.357   3.378   5.493 -0.0941 -0.2103 -0.1500
10207TIP3    H152112   4.380   3.468   5.469  0.3181 -0.2871 -0.0389
10207TIP3    H252113   4.266   3.368   5.463  0.1840 -0.0837 -1.0473
10208TIP3   OH252114   5.258   1.110  14.496  0.5067 -0.4331 -0.2637
10208TIP3    H152115   5.290   1.167  14.565 -0.1291 -0.3139 -0.0596
10208TIP3    H252116   5.264   1.164  14.416 -1.3646  0.4273  0.1294
10209TIP3   OH252117   3.618   3.226  14.225 -0.3873  0.0047 -0.3058
10209TIP3    H152118   3.549   3.201  14.286  0.2397  0.4923  0.6130
10209TIP3    H252119   3.658   3.303  14.263  0.2047  0.1519 -1.1948
10210TIP3   OH252120   0.458   1.296  11.440  0.6116  0.5255  0.8133
10210TIP3    H152121   0.444   1.202  11.431 -1.0097  0.8132 -0.0797
10210TIP3    H252122   0.517   1.319  11.368  0.8465  0.2370  0.9118
10211TIP3   OH252123   6.533   4.529   3.262 -0.2198 -0.0544 -0.5106
10211TIP3    H152124   6.491   4.446   3.238  0.0665 -0.1809 -0.5847
10211TIP3    H252125   6.461   4.591   3.271 -0.6038 -0.7088  1.2569
10212TIP3   OH252126   0.208   3.899  16.436  0.8102 -0.3575  0.4162
10212TIP3    H152127   0.121   3.888  16.474  0.6769  0.5148  0.3789
10212TIP3    H252128   0.220   3.994  16.431  2.3330 -0.4442  1.7431
10213TIP3   OH252129   4.251   5.678   2.948 -0.3752 -0.0997  0.3747
10213TIP3    H152130   4.312   5.665   2.876 -1.5848 -1.0820 -0.5112
10213TIP3    H252131   4.263   5.600   3.003 -0.6907 -0.2091  0.2909
10214TIP3   OH252132   4.151   2.901  14.583  0.3238 -0.6403  0.1581
10214TIP3    H152133   4.105   2.879  14.502 -0.5710 -0.3836  0.5794
10214TIP3    H252134   4.156   2.996  14.583  0.5962 -0.6532  0.2572
10215TIP3   OH252135   2.983   0.317  12.089  0.5943  0.0400  0.0502
10215TIP3    H152136   2.997   0.227  12.057 -0.7514  0.0312 -0.5905
10215TIP3    H252137   2.976   0.369  12.009  0.5816  0.5882  0.4116
10216TIP3   OH252138   0.406   0.765   5.197 -0.2038 -0.5447  0.0787
10216TIP3    H152139   0.443   0.705   5.262  0.8343  0.1920  0.2039
10216TIP3    H252140   0.479   0.823   5.175 -0.6941 -0.4349 -1.3421
10217TIP3   OH252141   2.660   0.742   0.188  0.3867  0.0338 -0.3776
10217TIP3    H152142   2.644   0.702   0.102  0.2788  0.6028 -0.6253
10217TIP3    H252143   2.597   0.699   0.246  0.0890  0.0348 -0.6956
10218TIP3   OH252144   0.214   2.494   4.415  1.0044 -0.0048  0.1514
10218TIP3    H152145   0.273   2.421   4.436  0.6333 -0.6566 -0.9669
10218TIP3    H252146   0.144   2.454   4.364  1.3857  1.3116 -1.4958
10219TIP3   OH252147   4.884   4.041   4.253 -1.0062 -0.0925 -0.6983
10219TIP3    H152148   4.805   4.053   4.305 -1.5463 -1.0821 -1.2494
10219TIP3    H252149   4.932   3.972   4.298  1.5170  3.0074  1.8236
10220TIP3   OH252150   3.976   6.617  15.072  0.1363  0.0801  0.3544
10220TIP3    H152151   3.915   6.657  15.010  1.2886  1.6893  0.2265
10220TIP3    H252152   3.921   6.596  15.148 -1.0321 -0.7222 -0.6591
10221TIP3   OH252153   0.278   5.751   4.904  0.4840  0.0354  0.5891
10221TIP3    H152154   0.229   5.768   4.984 -1.7486 -0.9045 -0.4802
10221TIP3    H252155   0.224   5.790   4.835  2.1674  0.4927 -0.5145
10222TIP3   OH252156   2.255   0.316   0.517 -0.3269 -0.0995  0.4167
10222TIP3    H152157   2.330   0.323   0.458 -0.0183  1.2090  0.9189
10222TIP3    H252158   2.248   0.223   0.536  1.3647 -0.2359  0.5876
10223TIP3   OH252159   5.928   1.356   2.191  0.3882  0.0940 -0.2560
10223TIP3    H152160   5.862   1.288   2.173  1.0078 -1.0471  1.5477
10223TIP3    H252161   5.876   1.433   2.217 -0.2781 -0.0920 -0.9775
10224TIP3   OH252162   4.016   1.368   4.946 -0.1481  1.0681  0.3149
10224TIP3    H152163   3.955   1.339   5.013  0.4170  0.1007  0.4266
10224TIP3    H252164   3.984   1.454   4.920 -0.9875  0.9928  1.0615
10225TIP3   OH252165   4.896   1.894   4.594  0.1237  0.5551 -0.0617
10225TIP3    H152166   4.976   1.947   4.586 -0.8100  2.0282  0.0338
10225TIP3    H252167   4.928   1.804   4.600  1.9467  1.2693  2.8660
10226TIP3   OH252168   0.854   4.156   1.192  0.1378 -0.4418  0.4307
10226TIP3    H152169   0.863   4.180   1.100 -0.5920  0.8919  0.6853
10226TIP3    H252170   0.926   4.201   1.236 -1.6763  2.1073  1.0234
10227TIP3   OH252171   4.433   3.878  16.921  0.3694  0.0231 -0.4786
10227TIP3    H152172   4.361   3.817  16.935 -0.9804  1.6963  0.3521
10227TIP3    H252173   4.512   3.825  16.926 -0.7784 -1.7650 -0.6823
10228TIP3   OH252174   5.392   0.309   3.163  0.2643 -0.1804  0.3666
10228TIP3    H152175   5.407   0.269   3.249 -3.2172  0.2315  1.3563
10228TIP3    H252176   5.372   0.234   3.106  1.7058 -0.3871  0.1065
10229TIP3   OH252177   0.586   2.851   4.998 -0.0803 -0.0931  0.9220
10229TIP3    H152178   0.599   2.759   5.022 -0.0224 -0.9370 -2.0520
10229TIP3    H252179   0.497   2.871   5.028 -1.3743 -2.1707 -1.2151
10230TIP3   OH252180   1.202   4.235  11.373  0.0665 -0.1350 -0.0523
10230TIP3    H152181   1.118   4.191  11.381  0.0091 -0.1620 -0.7873
10230TIP3    H252182   1.252   4.182  11.311  0.2990  0.3741 -0.3085
10231TIP3   OH252183   5.294   3.332  12.395 -0.7700 -0.0368  0.3866
10231TIP3    H152184   5.217   3.387  12.382 -1.0082 -0.0872  1.5271
10231TIP3    H252185   5.331   3.323  12.307 -1.1164  1.3606  0.0635
10232TIP3   OH252186   5.378   0.796   0.129 -0.0275  0.2719 -0.3278
10232TIP3    H152187   5.326   0.723   0.097 -1.4728  0.4378  1.5042
10232TIP3    H252188   5.368   0.864   0.062 -0.5806 -0.3941 -0.9276
10233TIP3   OH252189   4.293   0.273  13.911  0.3392  0.2311  0.0290
10233TIP3    H152190   4.245   0.353  13.890  0.5598  0.6883  1.1499
10233TIP3    H252191   4.229   0.203  13.902  0.6676  0.2235 -3.0776
10234TIP3   OH252192   3.410   0.241  14.567 -0.3176  0.5182 -0.2406
10234TIP3    H152193   3.467   0.220  14.493  0.7401  1.1000  0.3859
10234TIP3    H252194   3.354   0.311  14.535  0.7189  1.3642 -0.2317
10235TIP3   OH252195   4.250   5.491   2.430  0.4084  0.5519  0.5364
10235TIP3    H152196   4.170   5.494   2.378  0.9981  1.3469 -0.3702
10235TIP3    H252197   4.271   5.398   2.437  0.0820  0.4078 -0.2873
10236TIP3   OH252198   1.322   2.299   1.122 -0.1279  0.0185  0.0301
10236TIP3    H152199   1.313   2.280   1.215  1.2064 -0.7209  0.0265
10236TIP3    H252200   1.308   2.215   1.079  1.7893 -0.2079 -0.2456
10237TIP3   OH252201   6.401   3.905  16.258  0.3416 -0.1145 -0.3561
10237TIP3    H152202   6.335   3.883  16.324  1.1972 -1.4215  0.0954
10237TIP3    H252203   6.357   3.967  16.200 -1.4919 -1.4248 -0.4440
10238TIP3   OH252204   5.689   4.561   2.750 -0.0698 -0.0012  0.3789
10238TIP3    H152205   5.775   4.590   2.719  0.8271 -1.1883  1.6158
10238TIP3    H252206   5.626   4.612   2.700  1.2701 -1.0541 -2.5786
10239TIP3   OH252207   1.820   5.073  13.989 -0.2469 -0.2073 -0.4574
10239TIP3    H152208   1.782   5.158  13.966 -0.6153 -0.1047  0.4648
10239TIP3    H252209   1.745   5.021  14.018  0.0211 -0.7439 -0.7308
10240TIP3   OH252210   1.211   0.762  15.913 -0.2935 -0.2284 -0.3599
10240TIP3    H152211   1.237   0.810  15.834  2.9182  1.4662  1.4977
10240TIP3    H252212   1.283   0.701  15.928 -0.7246 -0.3624  1.3546
10241TIP3   OH252213   3.456   0.624  11.700 -0.6831 -0.2681 -0.2545
10241TIP3    H152214   3.527   0.643  11.639 -0.9739 -1.1140 -0.8660
10241TIP3    H252215   3.408   0.707  11.706 -0.8362 -0.2528 -1.4120
10242TIP3   OH252216   1.740   5.270   6.149 -0.5649 -0.9726  0.5491
10242TIP3    H152217   1.769   5.323   6.223  0.2223  0.3007 -0.6106
10242TIP3    H252218   1.821   5.248   6.102 -1.2033  1.8007 -2.1946
10243TIP3   OH252219   1.710   0.393  12.777  0.1674  0.3043  0.0269
10243TIP3    H152220   1.634   0.343  12.807  1.2971 -1.4543  0.0997
10243TIP3    H252221   1.742   0.344  12.701  0.7588  1.4803 -0.5007
10244TIP3   OH252222   0.166   6.456  16.864  0.2234 -0.1833  0.5896
10244TIP3    H152223   0.112   6.424  16.791  0.2697 -0.0034  0.4773
10244TIP3    H252224   0.152   6.550  16.864  1.9548  0.1182 -0.5954
10245TIP3   OH252225   0.355   4.765   3.147 -0.6178  0.0620  0.3645
10245TIP3    H152226   0.437   4.807   3.120 -0.2343 -1.3489 -0.7841
10245TIP3    H252227   0.287   4.817   3.104 -0.1275 -0.6722 -1.4244
10246TIP3   OH252228   4.274   4.313   2.742 -0.3177 -0.2750 -0.3867
10246TIP3    H152229   4.296   4.253   2.671 -0.7324 -0.6794 -0.1751
10246TIP3    H252230   4.353   4.365   2.755  0.3473 -1.3626  0.0252
10247TIP3   OH252231   6.218   2.523   0.028 -0.3689  0.1120 -0.1599
10247TIP3    H152232   6.176   2.582  -0.034  0.7738  2.2837  0.9952
10247TIP3    H252233   6.150   2.503   0.093 -0.5053  1.0583  0.0065
10248TIP3   OH252234   1.304   0.955   3.024  0.4702  0.6072 -0.2944
10248TIP3    H152235   1.293   1.050   3.026  0.1643  0.5732  1.0870
10248TIP3    H252236   1.222   0.921   3.059  0.6669 -0.1535 -0.5597
10249TIP3   OH252237   1.430   2.802  11.553 -0.2767 -0.7280  0.7585
10249TIP3    H152238   1.367   2.865  11.587  1.0778  0.2047  1.6565
10249TIP3    H252239   1.489   2.853  11.498  0.4948 -1.2925  1.0207
10250TIP3   OH252240   2.478   1.052  15.107 -0.5406  0.0203 -0.4705
10250TIP3    H152241   2.518   0.965  15.100 -0.4909  0.1021 -1.2718
10250TIP3    H252242   2.551   1.112  15.110 -0.5827  0.0645 -0.3132
10251TIP3   OH252243   2.646   3.300  15.169 -0.2735 -0.6160  0.4675
10251TIP3    H152244   2.723   3.357  15.159 -0.1499 -0.6207  1.3022
10251TIP3    H252245   2.620   3.279  15.080 -0.1390  0.5155  0.1441
10252TIP3   OH252246   4.300   3.869   1.160 -0.1185 -0.8020  0.0754
10252TIP3    H152247   4.272   3.926   1.089 -0.0429 -1.2722 -0.3373
10252TIP3    H252248   4.302   3.926   1.237 -1.1310 -0.5055 -0.0996
10253TIP3   OH252249   0.174   6.191   1.679  0.1758 -0.2999 -0.5807
10253TIP3    H152250   0.160   6.285   1.673  1.5759 -0.0916 -0.9030
10253TIP3    H252251   0.091   6.152   1.653  0.2285  0.8177 -2.5728
10254TIP3   OH252252   1.284   6.568   1.062  0.3040  0.2465  0.0510
10254TIP3    H152253   1.197   6.608   1.060  0.1645 -0.0287  0.4268
10254TIP3    H252254   1.337   6.627   1.115  0.1027 -0.0497  0.5918
10255TIP3   OH252255   1.147   4.150  17.122  0.1011 -0.0347 -0.3508
10255TIP3    H152256   1.201   4.130  17.045 -0.0606 -0.8109 -0.2702
10255TIP3    H252257   1.207   4.194  17.183  0.0690  1.2090 -1.1746
10256TIP3   OH252258   0.683   1.961  14.967 -0.3492 -0.1120 -0.4867
10256TIP3    H152259   0.626   2.038  14.977 -0.9703 -0.7010  0.8817
10256TIP3    H252260   0.769   1.992  14.995 -0.5376  0.1568 -0.1902
10257TIP3   OH252261   4.630   1.009  15.647 -0.2068  0.1948  0.1989
10257TIP3    H152262   4.722   1.014  15.621 -0.4319 -0.1579 -0.7349
10257TIP3    H252263   4.626   0.933  15.706 -0.1127 -0.6437 -0.8274
10258TIP3   OH252264   2.124   1.619   0.655 -0.0970 -0.1540 -0.0934
10258TIP3    H152265   2.211   1.638   0.689  1.0243 -1.4791 -2.0287
10258TIP3    H252266   2.122   1.661   0.569 -2.0881  1.4093  0.6455
10259TIP3   OH252267   5.512   4.298  14.565 -0.5920 -0.0011 -0.7419
10259TIP3    H152268   5.427   4.264  14.594  0.4337 -0.3847  2.1981
10259TIP3    H252269   5.555   4.222  14.526 -0.8599 -0.3572 -0.3656
10260TIP3   OH252270   5.323   0.892   5.925 -0.1523  0.2368  0.4413
10260TIP3    H152271   5.230   0.889   5.900 -1.0512  0.6350  3.2991
10260TIP3    H252272   5.350   0.981   5.903 -0.7470  0.4347  0.4746
10261TIP3   OH252273   1.673   3.002  12.525 -0.1338 -0.3635  0.9661
10261TIP3    H152274   1.754   3.035  12.565  0.0704 -1.0091  1.0896
10261TIP3    H252275   1.677   3.033  12.435 -0.1884  0.3762  1.2098
10262TIP3   OH252276   0.271   0.145  14.978  0.1983 -0.1939 -0.1539
10262TIP3    H152277   0.268   0.051  14.997 -0.7009 -0.1646 -0.1340
10262TIP3    H252278   0.364   0.166  14.980  0.5881 -1.4587 -1.9423
10263TIP3   OH252279   4.479   0.247   5.123  0.0406 -0.4646  0.2962
10263TIP3    H152280   4.541   0.182   5.157 -0.7540 -0.4277  1.9388
10263TIP3    H252281   4.520   0.279   5.043  1.3417 -1.6372  0.4401
10264TIP3   OH252282   5.348   3.058  13.038 -0.1229 -0.2245  0.6852
10264TIP3    H152283   5.290   2.991  13.003  1.5471 -1.1499 -0.4550
10264TIP3    H252284   5.380   3.104  12.961 -0.1272  0.9503  1.3668
10265TIP3   OH252285   0.259   2.969   4.651  0.0225 -0.2963 -0.0142
10265TIP3    H152286   0.214   2.976   4.734 -1.4347 -0.4971 -0.7582
10265TIP3    H252287   0.260   2.875   4.631  0.3719 -0.2541 -0.2216
10266TIP3   OH252288   4.641   2.856  10.867 -0.0306  0.0073  0.4925
10266TIP3    H152289   4.645   2.796  10.942  1.9933  0.9922  1.2329
10266TIP3    H252290   4.637   2.943  10.906 -1.7357  0.4687 -0.5839
10267TIP3   OH252291   0.441   0.527  15.721  0.2112 -0.4061  0.2533
10267TIP3    H152292   0.433   0.491  15.809 -1.5976 -0.5985  0.0331
10267TIP3    H252293   0.444   0.622  15.734 -1.2961 -0.3655  0.4903
10268TIP3   OH252294   4.550   5.054   1.262  0.3174 -0.4775  0.1147
10268TIP3    H152295   4.593   5.067   1.347 -0.0392 -0.7523  0.3379
10268TIP3    H252296   4.542   5.143   1.226  3.5567 -0.6033 -1.1893
10269TIP3   OH252297   1.287   3.504   1.290 -0.1384 -0.5606 -0.1401
10269TIP3    H152298   1.209   3.499   1.235 -0.0783 -2.2213 -0.1164
10269TIP3    H252299   1.292   3.596   1.316 -2.2544 -0.4703  0.1112
10270TIP3   OH252300   5.876   5.081  11.235  0.2708 -0.0839 -0.2237
10270TIP3    H152301   5.798   5.074  11.291 -2.7885 -2.4271 -4.2260
10270TIP3    H252302   5.854   5.150  11.171  0.2920 -2.3439 -2.8381
10271TIP3   OH252303   4.675   5.503   4.428  0.0491 -0.3412 -0.0665
10271TIP3    H152304   4.649   5.414   4.404 -0.8022 -0.2709  0.5106
10271TIP3    H252305   4.724   5.535   4.353  0.0774 -1.1801 -0.4214
10272TIP3   OH252306   4.001   0.647   2.259 -0.1383 -0.5521 -0.1178
10272TIP3    H152307   3.968   0.616   2.175  0.0304 -0.5208 -0.1962
10272TIP3    H252308   3.922   0.660   2.312 -0.2182 -1.0055 -0.1189
10273TIP3   OH252309   3.970   2.829  15.883  0.2480 -0.8623  0.1027
10273TIP3    H152310   3.963   2.919  15.913  3.9292 -0.3176 -0.2925
10273TIP3    H252311   3.896   2.784  15.924 -1.0346  2.0463  1.2132
10274TIP3   OH252312   1.999   2.879  10.718 -0.8465  0.2957 -0.1391
10274TIP3    H152313   1.962   2.804  10.765 -0.5417  1.0006  1.2925
10274TIP3    H252314   2.036   2.842  10.638 -1.2477 -0.9874  0.2540
10275TIP3   OH252315   1.952   4.202   2.984 -0.0762 -0.3551 -0.3852
10275TIP3    H152316   2.013   4.168   3.049  1.2089 -2.1260 -2.3982
10275TIP3    H252317   1.876   4.229   3.035  0.2796 -2.9515  1.7674
10276TIP3   OH252318   3.671   2.346  12.334 -0.3113 -0.3819 -0.1036
10276TIP3    H152319   3.716   2.401  12.270 -0.3063  0.0634  0.2774
10276TIP3    H252320   3.647   2.406  12.405 -1.1121 -0.6944 -0.0963
10277TIP3   OH252321   3.754   5.779  12.753 -0.4503 -0.1221 -0.2573
10277TIP3    H152322   3.692   5.732  12.695 -0.3516 -1.9011  0.9933
10277TIP3    H252323   3.738   5.742  12.839  2.5656 -0.8853  0.0737
10278TIP3   OH252324   1.810   6.699  16.020 -0.4852 -0.1283 -0.0414
10278TIP3    H152325   1.736   6.671  15.966 -0.2859  1.7032 -1.3596
10278TIP3    H252326   1.791   6.665  16.107 -3.1784  0.7270 -0.2119
10279TIP3   OH252327   4.781   1.780  15.986 -0.5249 -0.2615  0.1632
10279TIP3    H152328   4.700   1.830  15.992 -1.7979 -2.2146  0.2672
10279TIP3    H252329   4.812   1.774  16.077 -0.6669 -0.1257  0.2216
10280TIP3   OH252330   3.103   5.015   3.952 -0.1301  0.5951  0.1466
10280TIP3    H152331   3.063   4.994   3.867  0.0116 -0.1573  0.2643
10280TIP3    H252332   3.171   4.949   3.964 -0.5592  0.3188  1.1362
10281TIP3   OH252333   4.141   1.647  11.995  0.0425  0.1692 -0.5745
10281TIP3    H152334   4.162   1.740  12.003 -2.0902  0.7005 -0.4810
10281TIP3    H252335   4.226   1.604  11.986  1.1965  1.9425  1.0646
10282TIP3   OH252336   5.143   1.902   4.899  0.3242 -0.5998 -0.5939
10282TIP3    H152337   5.195   1.964   4.949 -0.7037 -0.0797 -0.1334
10282TIP3    H252338   5.163   1.922   4.807  0.3150  0.1432 -0.4395
10283TIP3   OH252339   1.754   4.448   1.970 -0.0888 -0.0960 -0.0784
10283TIP3    H152340   1.786   4.513   2.032  0.4379  0.6593 -1.1154
10283TIP3    H252341   1.664   4.431   1.998 -0.0406  0.6280  0.5669
10284TIP3   OH252342   0.798   5.481   3.722 -0.0515  0.0363 -0.3466
10284TIP3    H152343   0.788   5.570   3.756  1.8219  0.9195 -1.9629
10284TIP3    H252344   0.889   5.458   3.744 -0.5245 -1.5218  0.0785
10285TIP3   OH252345   1.360   2.190   4.516 -0.2778 -0.0299 -0.0949
10285TIP3    H152346   1.275   2.192   4.472  0.1297  0.0793 -0.8976
10285TIP3    H252347   1.403   2.271   4.487 -0.3156  0.4489  1.1513
10286TIP3   OH252348   5.319   3.470   4.897 -0.3518 -0.5280 -0.0158
10286TIP3    H152349   5.289   3.408   4.963 -0.5590  1.7328  2.1574
10286TIP3    H252350   5.240   3.514   4.867 -0.2615 -1.5284 -1.8594
10287TIP3   OH252351   0.643   4.257  15.075 -0.1056 -0.5044  0.2808
10287TIP3    H152352   0.681   4.249  15.162  0.8658  0.6983 -0.0039
10287TIP3    H252353   0.694   4.326  15.032 -1.8901  0.4095 -0.5169
10288TIP3   OH252354   1.501   3.686  13.703 -0.3836  0.1035 -0.0205
10288TIP3    H152355   1.582   3.729  13.730 -1.6985  2.3162  0.6485
10288TIP3    H252356   1.494   3.609  13.760  1.6466 -0.6611 -0.7133
10289TIP3   OH252357   3.165   3.618   4.390  0.3720 -0.2016 -0.1909
10289TIP3    H152358   3.162   3.610   4.485 -2.6758 -0.1104 -0.1882
10289TIP3    H252359   3.086   3.666   4.367  1.4649  0.5635 -2.7445
10290TIP3   OH252360   5.828   6.164  15.608 -0.0400 -0.8541 -0.0192
10290TIP3    H152361   5.889   6.235  15.589 -0.4727 -0.6734 -0.7632
10290TIP3    H252362   5.781   6.149  15.525 -2.2467  0.1969  0.9686
10291TIP3   OH252363   1.561   5.695  12.357  0.1082 -0.0149  0.3864
10291TIP3    H152364   1.595   5.622  12.304 -0.2027  0.0664  0.0693
10291TIP3    H252365   1.468   5.698  12.336  0.1836  0.6974  0.1265
10292TIP3   OH252366   5.144   0.501   1.200 -0.5060 -0.1572  0.4087
10292TIP3    H152367   5.201   0.505   1.123 -1.2939 -1.3525 -0.2618
10292TIP3    H252368   5.203   0.479   1.272  0.0257 -0.4049 -0.0930
10293TIP3   OH252369   1.383   2.087   0.073 -0.0898  0.1213  0.0349
10293TIP3    H152370   1.327   2.009   0.070 -1.6231  1.2019 -1.2218
10293TIP3    H252371   1.322   2.159   0.088  1.1755  1.1969  0.1906
10294TIP3   OH252372   5.516   2.939  14.830  0.2450  0.2329  0.6623
10294TIP3    H152373   5.507   2.904  14.918 -1.3454  1.2398  0.9502
10294TIP3    H252374   5.465   3.020  14.831  0.2494  0.3099 -1.1578
10295TIP3   OH252375   1.134   2.049   5.923  0.3068 -0.0883  0.1987
10295TIP3    H152376   1.063   1.986   5.906  0.9937 -0.5906 -0.8882
10295TIP3    H252377   1.090   2.122   5.967 -0.9190 -0.3512 -0.5174
10296TIP3   OH252378   1.169   6.709  15.397 -0.0048 -0.0121  0.1167
10296TIP3    H152379   1.256   6.676  15.376  0.3353  0.2407  1.1081
10296TIP3    H252380   1.130   6.642  15.452  0.6096  1.0676  1.9690
10297TIP3   OH252381   2.022   4.311  16.692  0.0969  0.6097 -0.1973
10297TIP3    H152382   2.024   4.246  16.762  1.7926  0.7905 -0.0391
10297TIP3    H252383   2.070   4.386  16.728  0.0385  1.1147 -1.1510
10298TIP3   OH252384   6.471   4.887  10.775 -0.4387  0.2463 -0.1346
10298TIP3    H152385   6.545   4.938  10.807 -0.3121  0.6826 -1.0825
10298TIP3    H252386   6.447   4.929  10.692 -2.0523  0.4232  0.3790
10299TIP3   OH252387   5.067   5.145  16.496  0.8228 -0.0782 -0.0496
10299TIP3    H152388   5.119   5.210  16.450 -0.3385 -0.0194 -1.3447
10299TIP3    H252389   5.073   5.170  16.588 -1.1731  3.1484 -0.6191
10300TIP3   OH252390   4.630   5.711  15.114  0.1056 -0.0749  0.2296
10300TIP3    H152391   4.591   5.641  15.062  0.6662 -0.1735 -0.0655
10300TIP3    H252392   4.556   5.753  15.157 -0.4873  0.6560 -1.4218
10301TIP3   OH252393   3.250   1.077  15.926 -0.2651  0.1970  0.1350
10301TIP3    H152394   3.252   1.148  15.861  0.5145 -0.5377 -0.6629
10301TIP3    H252395   3.277   0.999  15.878 -0.1325 -0.4663  1.2413
10302TIP3   OH252396   4.358   0.908  16.254 -0.0641 -0.1045 -0.5865
10302TIP3    H152397   4.318   0.942  16.334 -1.8477 -0.1381 -1.4165
10302TIP3    H252398   4.440   0.868  16.283 -1.0490 -0.8284  1.3422
10303TIP3   OH252399   1.562   0.115  14.742 -0.1438 -0.0559 -0.1406
10303TIP3    H152400   1.613   0.187  14.779 -1.6997  0.9860  0.0809
10303TIP3    H252401   1.584   0.114  14.649 -0.1041  0.6883 -0.1390
10304TIP3   OH252402   0.672   1.455  15.959 -0.0995  0.2531 -0.0079
10304TIP3    H152403   0.716   1.386  16.009  0.6330  1.6243  1.3263
10304TIP3    H252404   0.697   1.536  16.003 -1.5946  1.3235 -1.0324
10305TIP3   OH252405   1.867   2.734  13.583 -0.5736  0.0892  0.7273
10305TIP3    H152406   1.806   2.667  13.553  0.6309  0.1032 -2.1004
10305TIP3    H252407   1.820   2.816  13.572 -0.7084 -0.0233  0.4606
10306TIP3   OH252408   2.140   1.897  11.707  0.0701  0.4045  0.1669
10306TIP3    H152409   2.066   1.880  11.766  0.6670 -0.8549  0.5947
10306TIP3    H252410   2.206   1.937  11.763  0.4606 -0.3581  0.2647
10307TIP3   OH252411   4.906   6.195   5.590  0.2854  0.1760  0.4166
10307TIP3    H152412   4.918   6.104   5.566 -1.0605  0.2807 -0.7587
10307TIP3    H252413   4.818   6.199   5.628 -0.8343  1.4099 -2.0537
10308TIP3   OH252414   1.056   3.777  14.757 -0.1268  0.2657 -0.2971
10308TIP3    H152415   1.020   3.751  14.672 -3.3386  2.0036  0.3526
10308TIP3    H252416   1.070   3.695  14.804 -0.5485 -0.6240 -1.6806
10309TIP3   OH252417   4.937   3.309  15.818 -0.1445  0.2389  0.8716
10309TIP3    H152418   4.848   3.276  15.807 -0.4303  0.5150  2.1704
10309TIP3    H252419   4.943   3.383  15.758 -0.5079 -0.3084  0.1595
10310TIP3   OH252420   6.014   4.483  17.103  0.0017  0.0678 -0.2553
10310TIP3    H152421   6.056   4.486  17.017  0.5898  0.3361  0.0371
10310TIP3    H252422   5.972   4.569  17.112  0.9687  0.5002  0.2302
10311TIP3   OH252423   6.537   5.270   0.216  0.1142 -0.0856  0.1567
10311TIP3    H152424   6.529   5.278   0.311 -2.6698  0.1460 -0.0396
10311TIP3    H252425   6.617   5.318   0.195 -0.7863  2.4925  2.1000
10312TIP3   OH252426   0.923   5.408   6.354  0.1292  0.4832 -0.0246
10312TIP3    H152427   0.841   5.423   6.400  0.0554  0.7018 -0.2245
10312TIP3    H252428   0.969   5.344   6.407 -0.6446 -0.4851 -0.4868
10313TIP3   OH252429   2.483   5.619  11.832  0.8827  0.1409 -0.7480
10313TIP3    H152430   2.539   5.606  11.755 -1.5237  0.3798 -2.6671
10313TIP3    H252431   2.473   5.714  11.839  1.2061  0.1297  0.0000
10314TIP3   OH252432   6.798   0.559  11.316 -0.6251  0.3419  0.1343
10314TIP3    H152433   6.862   0.542  11.246  0.8903 -0.7931  1.7044
10314TIP3    H252434   6.767   0.473  11.342 -1.2171  0.7509  0.8102
10315TIP3   OH252435   6.202   3.453   4.416 -0.8709 -0.3080  0.6761
10315TIP3    H152436   6.271   3.487   4.473  1.2924  0.6020 -2.2625
10315TIP3    H252437   6.214   3.358   4.418 -0.0257 -0.2025  0.7906
10316TIP3   OH252438   3.599   2.695  15.739  0.4013  0.3599 -0.4236
10316TIP3    H152439   3.687   2.680  15.705  0.1135  0.6365 -1.3220
10316TIP3    H252440   3.613   2.721  15.830  1.3091  1.1781 -0.7758
10317TIP3   OH252441   3.389   0.212  14.883  0.1672 -0.8422  0.2638
10317TIP3    H152442   3.359   0.266  14.810  2.8161 -1.4342 -1.3895
10317TIP3    H252443   3.471   0.251  14.911 -0.1428 -1.4073  2.0945
10318TIP3   OH252444   2.618   6.775   4.009 -0.1649 -0.0230 -0.3321
10318TIP3    H152445   2.710   6.802   4.011 -0.4786  1.0581  0.0729
10318TIP3    H252446   2.612   6.704   4.072  0.4725 -0.3546 -0.6438
10319TIP3   OH252447   2.610   0.259   1.015  0.7715  0.5378 -0.2125
10319TIP3    H152448   2.648   0.187   0.965  0.4342 -1.3044  1.9894
10319TIP3    H252449   2.519   0.264   0.986  1.3006  1.4899 -1.8097
10320TIP3   OH252450   2.081   2.334  10.857  0.0386 -0.0802 -0.6968
10320TIP3    H152451   1.990   2.305  10.852  0.0192 -0.0059 -0.7759
10320TIP3    H252452   2.086   2.408  10.797  0.3592 -0.6241 -1.3470
10321TIP3   OH252453   5.372   6.120  14.711  0.3727 -0.7256 -0.1629
10321TIP3    H152454   5.296   6.154  14.663  0.3831 -2.2487 -1.3134
10321TIP3    H252455   5.432   6.194  14.716  0.0420 -0.3066 -1.8564
10322TIP3   OH252456   5.595   1.201  17.161  0.0840 -0.0821  0.6371
10322TIP3    H152457   5.551   1.271  17.209  0.7760  0.2539  0.7827
10322TIP3    H252458   5.598   1.128  17.223  0.8021  0.2886  1.0523
10323TIP3   OH252459   5.739   3.830  16.337  1.1519 -0.1341  0.3549
10323TIP3    H152460   5.717   3.818  16.430 -0.4537 -3.5451 -0.2984
10323TIP3    H252461   5.688   3.907  16.311  0.7088  0.1992  2.0256
10324TIP3   OH252462   6.640   1.816   3.566  0.2229  0.2079  0.1878
10324TIP3    H152463   6.623   1.861   3.484  1.2017  0.9182  0.3537
10324TIP3    H252464   6.580   1.742   3.566 -0.4525  0.7342 -0.7272
10325TIP3   OH252465   2.808   0.500   5.712 -0.5902  0.4886  0.0517
10325TIP3    H152466   2.838   0.414   5.683 -1.5898 -0.1013  0.7083
10325TIP3    H252467   2.721   0.509   5.673 -0.5148  1.1777  0.0361
10326TIP3   OH252468   4.527   6.061  17.043  0.0982  0.6312 -0.3688
10326TIP3    H152469   4.618   6.081  17.022  0.4025  1.0472  1.1868
10326TIP3    H252470   4.512   6.106  17.127 -0.9864 -0.9112  0.2985
10327TIP3   OH252471   1.448   5.704   0.827 -0.7269 -0.1374  0.2241
10327TIP3    H152472   1.465   5.622   0.781 -0.1453  0.3306 -0.4124
10327TIP3    H252473   1.403   5.758   0.763 -1.0794  0.0571  0.6323
10328TIP3   OH252474   3.738   2.611   3.210 -1.1063 -0.1375 -0.2094
10328TIP3    H152475   3.679   2.535   3.208 -1.0314 -0.1739 -1.5010
10328TIP3    H252476   3.696   2.672   3.271 -1.0872 -1.2685  0.9739
10329TIP3   OH252477   1.396   5.606   5.016 -0.6009 -0.4294 -0.3780
10329TIP3    H152478   1.390   5.521   4.973  0.2117  0.1923 -1.7842
10329TIP3    H252479   1.480   5.603   5.062 -1.1235 -0.8150  0.5702
10330TIP3   OH252480   2.746   0.220   4.966 -0.0638  0.2916 -0.0686
10330TIP3    H152481   2.760   0.278   5.041 -1.1866  1.0635 -0.4276
10330TIP3    H252482   2.829   0.174   4.956  0.7420  1.5638  0.4698
10331TIP3   OH252483   0.745   0.956   3.581  0.3375  0.3513 -0.8640
10331TIP3    H152484   0.774   1.018   3.514 -0.1393  0.5283 -0.9049
10331TIP3    H252485   0.827   0.922   3.618  0.6292 -0.4668 -2.1834
10332TIP3   OH252486   5.922   3.788   5.121 -0.3959  0.0089  0.0659
10332TIP3    H152487   5.833   3.761   5.143 -0.9469  1.1950 -0.5949
10332TIP3    H252488   5.917   3.884   5.119  0.9944  0.1022  0.3983
10333TIP3   OH252489   6.492   5.699  15.273 -0.3699  0.0705  0.4423
10333TIP3    H152490   6.449   5.783  15.288 -0.0752  0.3568 -0.2410
10333TIP3    H252491   6.476   5.681  15.180 -1.4186 -1.2001  0.8487
10334TIP3   OH252492   5.294   4.034   4.515 -0.2764 -0.3668 -0.3782
10334TIP3    H152493   5.298   4.117   4.563 -0.4683 -1.6500  1.9695
10334TIP3    H252494   5.344   4.050   4.435  2.8265  0.9655  1.6682
10335TIP3   OH252495   2.552   5.580   0.525  0.0577  0.1309 -0.3824
10335TIP3    H152496   2.593   5.626   0.598  0.1546  0.8270 -0.8709
10335TIP3    H252497   2.490   5.643   0.489 -2.0839 -1.1420  0.8291
10336TIP3   OH252498   5.896   4.442  16.267  0.1574  0.0014  0.4862
10336TIP3    H152499   5.891   4.357  16.310 -2.0592  0.8086  1.9936
10336TIP3    H252500   5.871   4.424  16.176  2.2544 -1.2814  0.0678
10337TIP3   OH252501   0.425   0.694   2.259  0.0100  0.1876  0.6326
10337TIP3    H152502   0.341   0.712   2.302 -0.7402 -0.9654 -0.2687
10337TIP3    H252503   0.452   0.779   2.224 -1.1994  0.4490  0.2605
10338TIP3   OH252504   0.303   1.878  12.435  0.0613  0.0381  0.2297
10338TIP3    H152505   0.372   1.824  12.472 -1.9668 -2.4123  0.7211
10338TIP3    H252506   0.256   1.912  12.512 -0.1549  0.4846 -0.0971
10339TIP3   OH252507   5.100   4.623  13.194 -0.0716 -0.3707  0.1167
10339TIP3    H152508   5.099   4.665  13.279 -1.1250  0.8069 -0.4507
10339TIP3    H252509   5.008   4.610  13.171  0.2016 -1.8245 -0.3083
10340TIP3   OH252510   2.889   3.732  12.676  0.2058  0.4467 -0.3769
10340TIP3    H152511   2.930   3.648  12.697 -0.6527  0.3484  1.0633
10340TIP3    H252512   2.943   3.769  12.606  1.6540 -0.4876  0.2117
10341TIP3   OH252513   4.139   3.516  15.535 -0.6728  0.5155  0.4282
10341TIP3    H152514   4.062   3.568  15.511 -1.0979 -0.6057 -0.7462
10341TIP3    H252515   4.105   3.429  15.551  0.3072  0.1020  0.3300
10342TIP3   OH252516   4.360   5.306  11.427 -0.2047  0.4906  0.1035
10342TIP3    H152517   4.381   5.348  11.510  0.8054 -1.4228  0.8735
10342TIP3    H252518   4.442   5.264  11.399 -1.5822 -2.7241  0.4922
10343TIP3   OH252519   6.288   5.603  16.755  0.1149  0.2190  0.7162
10343TIP3    H152520   6.290   5.648  16.839 -0.8253  0.1408  0.7973
10343TIP3    H252521   6.199   5.619  16.722  0.9127  1.4813 -0.9494
10344TIP3   OH252522   3.677   2.069  14.235 -0.0328 -0.3272  0.4613
10344TIP3    H152523   3.760   2.028  14.255  0.0187  0.5395  2.1623
10344TIP3    H252524   3.631   2.005  14.180  1.7394 -0.7918 -0.5650
10345TIP3   OH252525   0.050   0.797   6.039 -0.4270  0.5462 -0.0918
10345TIP3    H152526  -0.034   0.785   5.996 -0.2008  1.8068 -0.9405
10345TIP3    H252527   0.028   0.820   6.129 -0.9842  0.7735 -0.2823
10346TIP3   OH252528   0.896   6.715   3.100 -0.0966  0.3641  0.1998
10346TIP3    H152529   0.898   6.622   3.076 -1.9925  0.1262  0.8304
10346TIP3    H252530   0.988   6.739   3.105  0.5226 -1.9732  1.8388
10347TIP3   OH252531   6.506   3.476   0.711  0.4545  0.2839 -0.1497
10347TIP3    H152532   6.454   3.442   0.638  1.0581 -0.1913 -0.3627
10347TIP3    H252533   6.565   3.540   0.671  0.6830  0.1321 -0.0573
10348TIP3   OH252534   4.151   1.444  14.306  0.3582 -0.1551  0.0135
10348TIP3    H152535   4.084   1.398  14.255 -0.3619  1.3594 -0.4756
10348TIP3    H252536   4.111   1.454  14.393 -1.5943  3.5817 -1.0907
10349TIP3   OH252537   6.059   0.556  14.269  0.7508 -0.6178  0.0916
10349TIP3    H152538   6.102   0.549  14.184  0.3783 -0.7908 -0.0830
10349TIP3    H252539   6.068   0.469  14.308  1.4600 -0.3787  0.4973
10350TIP3   OH252540   1.014   4.517  12.948 -0.3309  0.0604 -0.1919
10350TIP3    H152541   0.981   4.479  12.866  0.9602  1.6898 -1.5453
10350TIP3    H252542   1.098   4.473  12.962  0.2138  0.9029 -0.6724
10351TIP3   OH252543   0.283   2.835  15.670  0.9011 -0.0370  0.6244
10351TIP3    H152544   0.291   2.830  15.575  1.8724  1.1225  0.6208
10351TIP3    H252545   0.208   2.892  15.685  0.5790 -0.4393  0.5650
10352TIP3   OH252546   1.842   0.893   4.330 -0.1873 -0.7872 -0.4521
10352TIP3    H152547   1.879   0.909   4.416 -0.0404  1.1044 -0.8351
10352TIP3    H252548   1.785   0.968   4.313  0.3166 -0.7626 -2.2867
10353TIP3   OH252549   0.870   3.118   1.274  0.3303 -0.4488 -0.0461
10353TIP3    H152550   0.897   3.117   1.366 -0.0412 -2.1073  0.0901
10353TIP3    H252551   0.947   3.088   1.226  0.2365 -0.4990 -0.1674
10354TIP3   OH252552   5.180   3.422   4.298 -0.1448  0.1253 -0.3375
10354TIP3    H152553   5.219   3.416   4.211  2.0302  2.3188  0.3714
10354TIP3    H252554   5.114   3.491   4.290  1.8340  2.1983  0.2267
10355TIP3   OH252555   2.797   4.907  14.640  0.3627 -0.4116 -0.1121
10355TIP3    H152556   2.800   4.983  14.582 -0.4063  0.4040  0.8914
10355TIP3    H252557   2.741   4.844  14.594  0.3507 -0.0631 -0.5849
10356TIP3   OH252558   0.893   6.817  14.793 -0.2109 -0.5229  0.3537
10356TIP3    H152559   0.974   6.790  14.837  0.6062 -0.5314 -1.0868
10356TIP3    H252560   0.902   6.912  14.783 -0.2593 -0.5581 -0.0331
10357TIP3   OH252561   1.582   6.542   2.489  0.1492  0.5946 -0.3449
10357TIP3    H152562   1.515   6.532   2.421  0.3050  0.0192 -0.4220
10357TIP3    H252563   1.541   6.507   2.568  0.5455 -0.2821 -0.5149
10358TIP3   OH252564   1.365   4.172  16.179  0.1697 -0.0642  0.3663
10358TIP3    H152565   1.453   4.161  16.145 -0.3153 -0.9077 -0.6706
10358TIP3    H252566   1.309   4.127  16.116 -1.1409  1.5892  0.2647
10359TIP3   OH252567   5.650   6.521  16.278  0.7184  0.2794  0.0739
10359TIP3    H152568   5.704   6.599  16.266  1.4199 -0.3809 -1.3530
10359TIP3    H252569   5.678   6.461  16.208 -1.0621 -0.5493 -0.0000
10360TIP3   OH252570   0.180   0.009  14.682  0.1389 -0.4891  0.0007
10360TIP3    H152571   0.216  -0.061  14.628 -0.0232 -0.2908 -0.3648
10360TIP3    H252572   0.180  -0.027  14.771  0.0256 -0.9662 -0.1919
10361TIP3   OH252573   2.043   6.595  14.631  0.1863  0.1947 -0.0136
10361TIP3    H152574   2.004   6.550  14.706 -0.8517 -0.4231 -0.8986
10361TIP3    H252575   1.972   6.649  14.595  0.7944  0.8297 -0.2937
10362TIP3   OH252576   3.711   4.195  17.145  0.3698 -0.5735  0.4849
10362TIP3    H152577   3.722   4.205  17.050  2.0277  1.3125  0.8019
10362TIP3    H252578   3.624   4.229  17.163 -0.2094 -1.5224 -0.4074
10363TIP3   OH252579   1.181   4.153  13.857 -0.3547  0.0934 -0.3801
10363TIP3    H152580   1.177   4.221  13.790 -0.2077 -1.0111 -1.5434
10363TIP3    H252581   1.261   4.173  13.906  0.0626  0.3684 -1.1530
10364TIP3   OH252582   1.037   3.118  15.195 -0.0519  0.0581  0.4878
10364TIP3    H152583   1.025   3.211  15.178 -0.6078 -0.1878 -0.5917
10364TIP3    H252584   1.008   3.075  15.114 -0.3653 -1.0788  1.1772
10365TIP3   OH252585   2.406   4.384  13.561  0.4367 -0.3003  0.0787
10365TIP3    H152586   2.486   4.392  13.614  1.0621 -0.1252 -0.8518
10365TIP3    H252587   2.403   4.291  13.538  0.0039 -0.4308  0.6668
10366TIP3   OH252588   4.598   3.937   3.218  0.1658 -0.0535  0.6081
10366TIP3    H152589   4.529   3.885   3.177 -0.0883  1.2814 -0.7484
10366TIP3    H252590   4.679   3.893   3.194 -0.1240 -1.0389  1.3375
10367TIP3   OH252591   4.057   1.108  15.448  0.2161  0.1287 -0.1557
10367TIP3    H152592   4.141   1.097  15.494  0.0401 -0.9730 -0.0849
10367TIP3    H252593   4.040   1.023  15.408  0.2171  0.9546 -2.0494
10368TIP3   OH252594   3.351   3.664   2.561 -0.2970 -0.8350  0.2215
10368TIP3    H152595   3.391   3.713   2.633  0.6166  1.7680 -1.8733
10368TIP3    H252596   3.257   3.674   2.574 -0.1477  1.4910 -0.0341
10369TIP3   OH252597   3.851   1.070   0.930  0.7190 -0.0494 -0.6148
10369TIP3    H152598   3.817   1.078   1.019  1.2803 -1.7456 -0.2139
10369TIP3    H252599   3.786   1.115   0.875 -0.7045 -0.7513  0.4371
10370TIP3   OH252600   3.778   1.761  13.648 -0.4182  0.2733  0.4860
10370TIP3    H152601   3.873   1.761  13.657 -0.4546 -1.7943  1.3269
10370TIP3    H252602   3.749   1.837  13.698  0.7139  0.1227  1.4099
10371TIP3   OH252603   6.374   5.814   4.006 -0.1980 -0.7791 -0.5311
10371TIP3    H152604   6.449   5.757   4.021 -0.5178 -1.0685 -0.0121
10371TIP3    H252605   6.313   5.792   4.076  0.1265  0.9758  0.3334
10372TIP3   OH252606   2.762   0.338   3.769 -0.1395  0.6919  0.6050
10372TIP3    H152607   2.813   0.329   3.849 -0.0954 -1.0985  0.4076
10372TIP3    H252608   2.673   0.316   3.794 -0.3829  1.4699  0.4400
10373TIP3   OH252609   4.578   4.698   3.476 -0.5137 -0.0488 -0.1019
10373TIP3    H152610   4.655   4.745   3.507 -1.9770  0.9674  2.3521
10373TIP3    H252611   4.574   4.620   3.531 -0.8792 -0.4268 -0.6568
10374TIP3   OH252612   0.009   4.520  11.772 -0.1262 -0.7246 -0.3615
10374TIP3    H152613   0.004   4.616  11.770 -1.1370 -0.7517 -3.0206
10374TIP3    H252614   0.103   4.502  11.768  0.2426  0.0647  2.4151
10375TIP3   OH252615   5.828   6.327   1.845  0.5620 -0.1689 -0.1858
10375TIP3    H152616   5.839   6.274   1.923  1.9091 -0.5035 -0.5870
10375TIP3    H252617   5.733   6.327   1.830  0.2171  0.3476  1.7179
10376TIP3   OH252618   0.774   1.034  11.987  0.3617  0.4852  0.1366
10376TIP3    H152619   0.791   0.963  11.926 -0.6570  1.1279 -0.9524
10376TIP3    H252620   0.858   1.079  11.996  0.6655  0.0172 -0.3194
10377TIP3   OH252621   6.169   0.727   2.855  0.3318  0.0870 -0.0394
10377TIP3    H152622   6.115   0.731   2.776  0.8703  2.2049 -0.3681
10377TIP3    H252623   6.183   0.818   2.879  0.1199 -0.4884  2.5896
10378TIP3   OH252624   0.018   1.502  16.176 -0.0963 -0.1051 -0.9523
10378TIP3    H152625  -0.060   1.507  16.232 -0.0165  1.7234 -0.9503
10378TIP3    H252626   0.038   1.409  16.171 -1.6266 -0.5146 -0.0364
10379TIP3   OH252627   0.768   4.972  12.323 -0.1321 -0.0630 -0.0952
10379TIP3    H152628   0.848   4.921  12.337 -0.0171  0.0779 -0.2249
10379TIP3    H252629   0.697   4.915  12.352  0.0739  0.1229  0.7865
10380TIP3   OH252630   5.720   1.159  13.458 -0.3325 -0.0603 -0.5962
10380TIP3    H152631   5.738   1.065  13.456  2.2255  0.3742 -1.2878
10380TIP3    H252632   5.784   1.197  13.398  1.0231  2.4190  2.1451
10381TIP3   OH252633   6.619   4.969   2.047 -0.3609 -0.1305 -0.2567
10381TIP3    H152634   6.597   4.889   2.096 -3.0804  1.6133  1.6477
10381TIP3    H252635   6.619   5.038   2.112  2.6253  1.4384 -1.7422
10382TIP3   OH252636   4.437   4.609   2.277  0.3584  0.3028  0.2376
10382TIP3    H152637   4.345   4.620   2.299  0.0523 -1.9613  0.3422
10382TIP3    H252638   4.458   4.520   2.306  1.9460 -0.1026 -1.8916
10383TIP3   OH252639   0.291   6.707   1.866 -0.3331  0.8242  0.5711
10383TIP3    H152640   0.269   6.744   1.951 -0.4629 -0.1269  0.9743
10383TIP3    H252641   0.285   6.612   1.880 -1.3686  0.6699 -0.7611
10384TIP3   OH252642   3.176   2.787   1.936  0.0498  0.1841 -0.1013
10384TIP3    H152643   3.176   2.872   1.893  0.5079 -0.3162 -1.1138
10384TIP3    H252644   3.260   2.748   1.912 -0.0065 -0.4151  0.6417
10385TIP3   OH252645   4.442   4.427   1.538  0.2762  0.4675  0.3895
10385TIP3    H152646   4.422   4.508   1.586  0.8268 -1.3193  3.8878
10385TIP3    H252647   4.525   4.445   1.494 -0.4903  2.3253 -0.4450
10386TIP3   OH252648   4.174   2.454  16.362  1.3110 -0.0456  0.7359
10386TIP3    H152649   4.159   2.392  16.291  0.6171 -1.5539  2.1188
10386TIP3    H252650   4.112   2.428  16.430 -0.5848  3.5400  0.6143
10387TIP3   OH252651   1.594   5.190  11.622 -0.8062 -0.1074  0.0988
10387TIP3    H152652   1.629   5.189  11.533  0.7523 -1.3384  0.6790
10387TIP3    H252653   1.666   5.221  11.676 -0.7685 -2.0416  1.2418
10388TIP3   OH252654   5.637   0.369   0.794  0.5846 -0.3036 -0.2200
10388TIP3    H152655   5.590   0.308   0.738 -1.1271  0.9188 -0.2057
10388TIP3    H252656   5.596   0.358   0.880  0.7968  0.2916 -0.0382
10389TIP3   OH252657   4.747   5.883  14.891  0.1891  0.0450 -0.0284
10389TIP3    H152658   4.681   5.840  14.946 -1.8853  0.1189 -2.2591
10389TIP3    H252659   4.815   5.817  14.879 -0.6430 -0.9156  0.4103
10390TIP3   OH252660   5.312   5.518  14.780 -0.1346 -0.1902 -0.3027
10390TIP3    H152661   5.293   5.601  14.735 -1.0743 -0.9688 -1.3827
10390TIP3    H252662   5.300   5.538  14.873  1.7038  1.4254 -0.3414
10391TIP3   OH252663   1.940   4.748  16.298  0.5671  1.0676 -0.3271
10391TIP3    H152664   1.857   4.711  16.268  0.9777 -0.9027  0.7566
10391TIP3    H252665   1.993   4.755  16.219  0.8328 -1.8261 -0.5166
10392TIP3   OH252666   6.514   1.575   0.471 -0.5303 -0.2017  0.0679
10392TIP3    H152667   6.496   1.547   0.561 -0.4071  1.0130  0.4819
10392TIP3    H252668   6.465   1.657   0.461 -1.5260 -0.9251 -1.3714
10393TIP3   OH252669   1.846   3.373  10.976 -0.1619  0.0022  0.2550
10393TIP3    H152670   1.829   3.467  10.965 -1.4620 -0.0359  1.6201
10393TIP3    H252671   1.828   3.356  11.069 -2.0928 -1.9982 -0.3919
10394TIP3   OH252672   1.405   2.626   3.255 -0.3812  0.1075 -0.2064
10394TIP3    H152673   1.341   2.687   3.292  0.5510  0.6456  0.5424
10394TIP3    H252674   1.435   2.668   3.174 -0.4181  0.2101 -0.1668
10395TIP3   OH252675   6.397   4.297  11.659 -0.6258 -0.2532 -0.2485
10395TIP3    H152676   6.468   4.261  11.607 -0.7517 -1.7580  0.5751
10395TIP3    H252677   6.437   4.369  11.709  0.0573 -0.3909 -0.5896
10396TIP3   OH252678   1.532   2.493  13.838 -0.5731 -0.7727 -0.1146
10396TIP3    H152679   1.618   2.483  13.878  0.0725 -0.9051 -1.4649
10396TIP3    H252680   1.476   2.431  13.884 -0.4325  0.5752  2.0229
10397TIP3   OH252681   1.650   1.066   0.020  0.2323 -0.1737 -0.3808
10397TIP3    H152682   1.683   1.058  -0.069  0.1898  0.1572 -0.4254
10397TIP3    H252683   1.572   1.121   0.012 -1.5787 -2.5921 -0.5837
10398TIP3   OH252684   2.079   4.061   0.802  0.2810 -0.2705  0.5088
10398TIP3    H152685   2.110   4.145   0.769  0.2071 -0.0652  0.9496
10398TIP3    H252686   2.156   4.006   0.804  0.4103 -0.0883  0.5922
10399TIP3   OH252687   0.672   2.104  11.344  0.0784 -0.4773 -0.5439
10399TIP3    H152688   0.682   2.044  11.270  1.3966 -1.6861  0.5523
10399TIP3    H252689   0.753   2.155  11.345 -0.9967  1.3480 -1.4211
10400TIP3   OH252690   0.395   2.571  11.273  0.0475  0.3986 -0.2278
10400TIP3    H152691   0.300   2.583  11.278 -0.1555 -0.7523 -0.9050
10400TIP3    H252692   0.406   2.482  11.239  1.3994 -0.7312  2.7881
10401TIP3   OH252693   3.315   2.261  11.777 -0.6097 -0.2561 -0.7320
10401TIP3    H152694   3.280   2.182  11.736  0.1166 -1.0311  0.0888
10401TIP3    H252695   3.238   2.307  11.810 -0.9467 -1.7725  0.7675
10402TIP3   OH252696   5.532   5.164   4.492  0.6795 -0.2042 -0.1821
10402TIP3    H152697   5.619   5.190   4.460  1.2969  0.1147  1.6409
10402TIP3    H252698   5.542   5.073   4.517  0.9859  0.2645  1.5342
10403TIP3   OH252699   5.482   3.200   1.248  0.5817  0.0385  0.4131
10403TIP3    H152700   5.417   3.243   1.304 -0.0734 -1.2268  0.6622
10403TIP3    H252701   5.430   3.149   1.187  1.3337  0.1310 -0.3186
10404TIP3   OH252702   5.380   0.717  11.591  0.4781  0.0096  0.3949
10404TIP3    H152703   5.400   0.737  11.682  2.8088 -0.6341  0.0802
10404TIP3    H252704   5.388   0.622  11.584  1.5633  0.1603 -0.7276
10405TIP3   OH252705   2.840   1.621   5.271  0.5830  0.1660  0.3763
10405TIP3    H152706   2.755   1.608   5.312  0.9221 -1.7586  0.5900
10405TIP3    H252707   2.823   1.676   5.195 -1.0819 -1.1893 -0.2860
10406TIP3   OH252708   5.759   2.617   6.173 -0.1266  0.4379 -0.0462
10406TIP3    H152709   5.768   2.702   6.216 -1.6494  0.0712  1.0879
10406TIP3    H252710   5.815   2.623   6.096  0.7910  2.0004  0.6939
10407TIP3   OH252711   4.642   2.521  11.588 -0.2258 -0.5978 -0.4450
10407TIP3    H152712   4.610   2.592  11.532 -1.0980  1.1821  2.0990
10407TIP3    H252713   4.562   2.476  11.616  0.2366 -1.7918 -0.9914
10408TIP3   OH252714   0.865   3.891   1.172 -0.0807 -0.2308 -0.0093
10408TIP3    H152715   0.873   3.892   1.077 -0.4662  0.6071 -0.0398
10408TIP3    H252716   0.858   3.983   1.197  2.1142 -0.2802  1.0166
10409TIP3   OH252717   5.448   3.397  15.097  0.0412  0.5783  0.4246
10409TIP3    H152718   5.398   3.420  15.018 -1.3034  0.5687  1.2353
10409TIP3    H252719   5.513   3.466  15.105 -0.8063  1.4283  0.1509
10410TIP3   OH252720   0.538   1.353   4.550  0.1648 -0.6270  0.4953
10410TIP3    H152721   0.445   1.345   4.572 -0.5225  2.0894 -0.9569
10410TIP3    H252722   0.539   1.408   4.472  2.9347 -2.1103 -0.6641
10411TIP3   OH252723   3.800   2.258   1.100  0.1594 -0.1277  0.4984
10411TIP3    H152724   3.764   2.205   1.029  0.8669 -0.8569  0.6665
10411TIP3    H252725   3.819   2.343   1.060 -0.5051 -0.1640  0.1002
10412TIP3   OH252726   2.549   4.042   0.235  0.6964 -0.5103  0.3437
10412TIP3    H152727   2.643   4.028   0.244  0.7625 -0.8843 -0.7636
10412TIP3    H252728   2.511   4.012   0.318  1.5596 -0.2120  0.8529
10413TIP3   OH252729   3.663   3.940   4.778  0.5478  0.2790  0.1262
10413TIP3    H152730   3.683   3.932   4.685  1.2809 -0.2119  0.3225
10413TIP3    H252731   3.584   3.887   4.790  1.0633 -0.5400 -0.0222
10414TIP3   OH252732   2.256   4.517  14.366  0.2301  0.1927 -0.3991
10414TIP3    H152733   2.181   4.560  14.407  1.2074  0.2307  1.4605
10414TIP3    H252734   2.290   4.582  14.304 -1.2435  0.1573 -1.2876
10415TIP3   OH252735   4.484   5.103  14.351  0.1740  0.1279  0.3017
10415TIP3    H152736   4.483   5.088  14.256  0.6543 -1.6945  0.5413
10415TIP3    H252737   4.393   5.118  14.374  0.1454  1.5195 -0.5411
10416TIP3   OH252738   2.498   5.562  13.479  0.3913  0.1488  0.1953
10416TIP3    H152739   2.447   5.575  13.400  1.3477  2.0845 -0.1628
10416TIP3    H252740   2.433   5.552  13.549 -0.4813  1.5306 -0.3849
10417TIP3   OH252741   2.779   3.923  14.991  0.3133 -0.3478 -0.6667
10417TIP3    H152742   2.701   3.900  14.942  0.0021  0.9993 -0.8443
10417TIP3    H252743   2.851   3.879  14.946 -0.0902  0.0953 -1.7608
10418TIP3   OH252744   0.455   3.526   5.843 -0.3154  0.0237  0.0872
10418TIP3    H152745   0.370   3.484   5.826 -0.1195 -1.7200  2.8067
10418TIP3    H252746   0.433   3.603   5.897 -0.2066 -0.0492  0.2341
10419TIP3   OH252747   0.585   4.000   0.720 -0.2019 -0.4278  0.4210
10419TIP3    H152748   0.498   3.983   0.757 -1.4105  0.6123 -1.7206
10419TIP3    H252749   0.612   3.916   0.683 -0.3513 -0.7217  0.9626
10420TIP3   OH252750   1.493   0.638  14.013  0.2874 -0.6158 -0.5196
10420TIP3    H152751   1.412   0.664  14.056 -0.5570 -0.4327 -2.1326
10420TIP3    H252752   1.491   0.542  14.014 -0.5909 -0.6321 -1.6248
10421TIP3   OH252753   5.271   5.205  12.365  0.6268  0.3446 -0.0675
10421TIP3    H152754   5.279   5.297  12.341 -0.4828  0.2779 -0.7535
10421TIP3    H252755   5.243   5.162  12.284 -0.8188 -0.2674  0.7337
10422TIP3   OH252756   5.904   5.617  15.096  0.6346  0.0759  0.3284
10422TIP3    H152757   5.876   5.578  15.013 -0.2354 -0.5371  0.9093
10422TIP3    H252758   5.831   5.672  15.123  0.4712 -0.5697  1.2349
10423TIP3   OH252759   0.617   3.553   1.354 -0.0542 -0.2264  0.2818
10423TIP3    H152760   0.529   3.527   1.327  0.4658 -0.8778 -0.8232
10423TIP3    H252761   0.625   3.521   1.444 -0.8388 -0.3896  0.3008
10424TIP3   OH252762   6.536   1.028  14.568  0.2899  0.1343 -0.0083
10424TIP3    H152763   6.586   0.960  14.612 -1.4984 -0.6269  0.9717
10424TIP3    H252764   6.493   1.076  14.639  0.2577  1.2684 -0.7655
10425TIP3   OH252765   1.236   3.561  11.475  0.5941 -0.2954  0.4959
10425TIP3    H152766   1.255   3.648  11.440 -3.1517  1.1809  1.6046
10425TIP3    H252767   1.276   3.559  11.561  0.3975  0.5122  0.6117
10426TIP3   OH252768   5.344   4.305  14.021  0.2312 -0.0599 -0.1659
10426TIP3    H152769   5.357   4.399  14.028  1.0954 -0.0944 -1.0121
10426TIP3    H252770   5.276   4.285  14.085 -1.2951  1.4087 -1.2355
10427TIP3   OH252771   1.468   4.459  12.919 -0.2145 -0.6997  0.3647
10427TIP3    H152772   1.504   4.387  12.867  1.6959 -1.1058  2.1498
10427TIP3    H252773   1.502   4.538  12.877  0.8522 -1.0011  0.6378
10428TIP3   OH252774   0.540   4.362  14.074 -0.0438 -0.4737 -0.4636
10428TIP3    H152775   0.517   4.390  13.985 -1.3492 -1.1923 -0.3721
10428TIP3    H252776   0.460   4.376  14.125  1.5281  2.8675  1.3815
10429TIP3   OH252777   5.491   1.826  12.199 -0.7267  0.1295 -0.1082
10429TIP3    H152778   5.558   1.813  12.132 -2.6188 -1.2295 -1.8672
10429TIP3    H252779   5.449   1.741  12.208 -3.5804  1.3592 -0.6705
10430TIP3   OH252780   6.681   2.962   2.157 -0.1058  0.0557  0.5064
10430TIP3    H152781   6.717   2.993   2.074  0.7067 -1.8021  0.1342
10430TIP3    H252782   6.615   3.028   2.180 -0.3115  0.6461 -1.5764
10431TIP3   OH252783   5.949   6.332   4.033  0.3955 -0.6690 -0.4327
10431TIP3    H152784   5.965   6.407   4.090  0.0698 -0.2342 -0.9118
10431TIP3    H252785   6.032   6.283   4.035  0.1502 -1.0673  0.9964
10432TIP3   OH252786   1.235   2.735   2.322  0.8125 -0.1048 -0.0606
10432TIP3    H152787   1.254   2.714   2.414  2.3045  0.9982 -0.0852
10432TIP3    H252788   1.198   2.823   2.324  0.8773 -0.0642 -0.5296
10433TIP3   OH252789   0.009   4.982   4.655 -0.3080 -0.0919 -0.1513
10433TIP3    H152790  -0.053   5.038   4.702 -0.7020 -0.2750 -0.4489
10433TIP3    H252791   0.095   5.021   4.674 -0.4855  0.0277  0.4522
10434TIP3   OH252792   3.921   1.595  12.345  0.2218 -0.1535  0.7357
10434TIP3    H152793   3.955   1.644  12.420  1.1180 -0.6727  0.6835
10434TIP3    H252794   3.909   1.661  12.277  0.4957  0.1422  0.9699
10435TIP3   OH252795   5.552   5.001  15.506  0.2833 -0.3817  0.1604
10435TIP3    H152796   5.564   4.998  15.411 -0.4687  1.9377 -0.0731
10435TIP3    H252797   5.586   4.918  15.537  0.5597 -1.2023 -2.1394
10436TIP3   OH252798   5.258   2.145  14.274  0.1829  0.0553  0.0013
10436TIP3    H152799   5.246   2.179  14.185 -0.6250  2.1424  0.8627
10436TIP3    H252800   5.300   2.216  14.322  1.2020 -1.2668  1.1763
10437TIP3   OH252801   2.398   4.145   0.609  0.5253  0.1520  0.2014
10437TIP3    H152802   2.478   4.155   0.660  1.7331  0.5792 -1.7284
10437TIP3    H252803   2.414   4.069   0.554 -0.1819  0.5828 -0.6181
10438TIP3   OH252804   0.548   4.099   2.445  0.1942  0.8045  0.1880
10438TIP3    H152805   0.609   4.034   2.481  0.1552  1.2821  1.1177
10438TIP3    H252806   0.471   4.047   2.420 -0.0162  0.5354  1.3325
10439TIP3   OH252807   3.307   0.442  14.211  0.5158 -0.2351 -0.2489
10439TIP3    H152808   3.278   0.399  14.130  0.8160  1.1647 -1.1294
10439TIP3    H252809   3.281   0.533  14.201  2.9271  0.5668  0.0178
10440TIP3   OH252810   5.254   3.648   2.576  0.0951  0.1280  0.3689
10440TIP3    H152811   5.205   3.709   2.631 -0.2514  0.0247  0.1785
10440TIP3    H252812   5.263   3.570   2.630 -0.0940  0.0893  0.3480
10441TIP3   OH252813   4.639   2.927   4.791 -0.1037 -0.3115  0.0972
10441TIP3    H152814   4.648   2.918   4.886  0.7151 -1.8184 -0.0820
10441TIP3    H252815   4.716   2.882   4.756 -0.9944 -0.8177 -1.2886
10442TIP3   OH252816   6.683   0.830  16.428  0.5075  0.0419  0.4758
10442TIP3    H152817   6.697   0.746  16.472  2.4387  0.2641  0.3771
10442TIP3    H252818   6.612   0.813  16.366  0.9324 -1.5551  0.3887
10443TIP3   OH252819   4.084   2.246  12.380 -0.0940  0.4731 -0.0576
10443TIP3    H152820   4.142   2.193  12.324 -2.3283 -0.1739 -1.9501
10443TIP3    H252821   4.066   2.324  12.327 -1.3171  0.4130  0.2478
10444TIP3   OH252822   3.661   2.178   0.552  0.6232  0.1649 -0.4322
10444TIP3    H152823   3.749   2.144   0.564  0.9526  0.8868 -0.7562
10444TIP3    H252824   3.607   2.100   0.539  1.4521 -0.2241 -1.7597
10445TIP3   OH252825   0.434   2.630   5.571  0.3130 -0.0771  0.1366
10445TIP3    H152826   0.369   2.579   5.618  0.1349 -1.1557 -1.2334
10445TIP3    H252827   0.388   2.710   5.545  0.3328  0.3947  1.5053
10446TIP3   OH252828   6.181   4.454   1.284 -0.3628  0.0882 -0.4692
10446TIP3    H152829   6.124   4.489   1.215  1.8398  1.6713 -1.6057
10446TIP3    H252830   6.207   4.367   1.252 -0.4393  0.2478 -0.9706
10447TIP3   OH252831   1.860   2.167   0.770  0.3399  0.0091  0.5182
10447TIP3    H152832   1.953   2.177   0.751  0.5333 -1.7213  0.4457
10447TIP3    H252833   1.855   2.095   0.832 -0.9617  0.0831  0.5360
10448TIP3   OH252834   6.285   2.448  16.368  0.0075 -0.0613 -0.5736
10448TIP3    H152835   6.336   2.379  16.410 -0.1543 -0.1063 -0.4499
10448TIP3    H252836   6.246   2.496  16.441 -0.2057 -0.0862 -0.6717
10449TIP3   OH252837   1.217   5.653   5.337 -0.1981 -0.3786 -0.3635
10449TIP3    H152838   1.285   5.586   5.324  2.5172  1.2069  3.7020
10449TIP3    H252839   1.148   5.609   5.386 -0.2110 -1.0423 -0.9669
10450TIP3   OH252840   4.701   6.374   2.798 -0.1366 -0.3197  0.1944
10450TIP3    H152841   4.785   6.330   2.783 -0.1321 -0.5116  0.7560
10450TIP3    H252842   4.702   6.397   2.891 -1.0264 -1.0216  0.3955
10451TIP3   OH252843   2.819   3.267  13.387  0.2100 -0.0808  0.3239
10451TIP3    H152844   2.883   3.304  13.326 -0.4228 -1.0909 -1.0032
10451TIP3    H252845   2.842   3.305  13.472  1.5720  0.8015 -0.4038
10452TIP3   OH252846   4.429   2.836  11.761 -0.4037 -0.5044 -0.2016
10452TIP3    H152847   4.421   2.891  11.839  1.5068 -0.2777 -0.1096
10452TIP3    H252848   4.442   2.898  11.689  1.0554 -0.7617 -0.1970
10453TIP3   OH252849   4.623   0.952   4.193 -0.0593  0.5859 -0.0112
10453TIP3    H152850   4.621   0.926   4.100  0.0346  0.0498  0.1356
10453TIP3    H252851   4.708   0.995   4.203 -0.0803  0.6702 -0.1806
10454TIP3   OH252852   1.343   5.304   1.766 -0.6784  0.3627  0.0871
10454TIP3    H152853   1.257   5.263   1.766 -1.0645  1.1437  0.0193
10454TIP3    H252854   1.375   5.294   1.855 -1.3485  1.0900  0.4168
10455TIP3   OH252855   3.679   5.305  14.988  0.2507 -0.0519 -0.2552
10455TIP3    H152856   3.678   5.317  14.893 -2.9567  0.2226 -0.3121
10455TIP3    H252857   3.689   5.393  15.023 -1.3412  0.2400 -0.4384
10456TIP3   OH252858   1.479   2.081   4.013 -0.1664 -0.1483  0.0883
10456TIP3    H152859   1.561   2.090   4.062 -0.3132  0.4046  0.2296
10456TIP3    H252860   1.504   2.102   3.923  0.1737 -1.4805 -0.1489
10457TIP3   OH252861   1.630   4.825   4.797  0.1186  0.5095  0.0644
10457TIP3    H152862   1.549   4.860   4.760  0.3878  0.0970 -0.9498
10457TIP3    H252863   1.607   4.800   4.886 -0.9034  0.3130 -0.2420
10458TIP3   OH252864   4.313   4.897   5.553 -0.8999  0.3687  0.0424
10458TIP3    H152865   4.394   4.931   5.591 -0.3610 -0.3130 -0.4795
10458TIP3    H252866   4.272   4.848   5.625 -0.7884  0.6092  0.2703
10459TIP3   OH252867   1.586   0.236   0.696 -0.4838  0.3983  0.0450
10459TIP3    H152868   1.499   0.272   0.680 -0.0151  1.2492 -0.6836
10459TIP3    H252869   1.597   0.169   0.629 -0.9070 -0.3367  0.6887
10460TIP3   OH252870   4.343   0.615   1.088 -0.0454  0.5209  0.4627
10460TIP3    H152871   4.435   0.595   1.069 -0.2434 -3.5467  2.6873
10460TIP3    H252872   4.294   0.555   1.032 -1.2041  0.3395  1.6297
10461TIP3   OH252873   6.766   4.230  11.377 -0.3969  0.0909 -0.3517
10461TIP3    H152874   6.818   4.304  11.345 -1.3070  0.1313 -1.8604
10461TIP3    H252875   6.814   4.152  11.347 -0.4300  0.1080 -0.4494
10462TIP3   OH252876   3.520   5.819  16.031 -0.2308  0.0968 -0.5550
10462TIP3    H152877   3.516   5.787  15.941  0.6438  0.8110 -0.8634
10462TIP3    H252878   3.608   5.796  16.062 -1.0032 -1.4476  0.6486
10463TIP3   OH252879   6.536   1.604  12.557 -0.5216  0.2684 -0.7394
10463TIP3    H152880   6.547   1.513  12.528 -1.0714  0.2883 -1.0242
10463TIP3    H252881   6.594   1.613  12.632 -1.4893 -0.7210  0.1558
10464TIP3   OH252882   2.457   4.620   0.465  0.4039 -0.2377 -0.3252
10464TIP3    H152883   2.411   4.538   0.484  0.8453 -0.8770 -1.8767
10464TIP3    H252884   2.391   4.676   0.424  0.4850 -0.3863 -0.6595
10465TIP3   OH252885   2.392   6.839   6.664 -0.1458  0.7089  0.0348
10465TIP3    H152886   2.449   6.762   6.661 -0.5200  0.3253  1.5378
10465TIP3    H252887   2.318   6.812   6.718 -0.5734  1.9450  0.1079
10466TIP3   OH252888   2.827   3.309  14.065 -0.1323  0.0325 -0.4377
10466TIP3    H152889   2.795   3.347  13.984  0.5123  1.2066 -0.1590
10466TIP3    H252890   2.852   3.384  14.119 -2.0840 -0.5880  1.5160
10467TIP3   OH252891   0.528   4.201   3.629 -0.3591  0.2805 -0.0434
10467TIP3    H152892   0.528   4.225   3.537  2.1307 -1.3154 -0.5590
10467TIP3    H252893   0.614   4.228   3.661 -1.0444  0.4793  1.7333
10468TIP3   OH252894   2.213   3.282  15.555 -0.8707 -0.8215  0.3971
10468TIP3    H152895   2.162   3.211  15.591 -1.5230 -2.0228 -2.5707
10468TIP3    H252896   2.228   3.257  15.463  3.6586  0.2071  0.5787
10469TIP3   OH252897   5.039   2.220  14.071  0.2311  0.0568  0.0957
10469TIP3    H152898   4.953   2.257  14.050 -0.1080  0.4971  2.0350
10469TIP3    H252899   5.018   2.141  14.122  0.9817  0.0856  0.4494
10470TIP3   OH252900   6.253   2.405  11.741 -0.0481  0.1536  0.0404
10470TIP3    H152901   6.234   2.489  11.782 -2.3016 -0.9660  1.5199
10470TIP3    H252902   6.167   2.364  11.731  1.0580 -2.3876  0.2996
10471TIP3   OH252903   0.697   4.371   3.994  0.0947 -0.1787  0.1607
10471TIP3    H152904   0.654   4.286   3.995 -1.7148  0.6658 -1.0850
10471TIP3    H252905   0.629   4.432   3.965  1.6599  1.5148 -0.1158
10472TIP3   OH252906   0.080   1.951  13.112 -0.3934  0.1168  0.3054
10472TIP3    H152907   0.002   1.903  13.083 -1.0995  1.6849 -0.5465
10472TIP3    H252908   0.097   1.918  13.200 -1.8396 -0.4789  0.3937
10473TIP3   OH252909   6.274   2.112  14.039  0.9404  0.9274 -0.2034
10473TIP3    H152910   6.327   2.191  14.053  0.0414  1.7420 -1.1907
10473TIP3    H252911   6.185   2.146  14.024  0.6355 -0.2387 -1.1364
10474TIP3   OH252912   4.266   3.638   5.668  0.0193  0.2899  0.2977
10474TIP3    H152913   4.246   3.574   5.736  0.8153 -1.1220 -0.7647
10474TIP3    H252914   4.346   3.681   5.698  0.9394 -1.0262 -0.1675
10475TIP3   OH252915   5.040   5.592   4.815  0.0904  0.4556  0.0129
10475TIP3    H152916   5.045   5.615   4.723 -0.3968 -1.5979 -0.5842
10475TIP3    H252917   5.109   5.528   4.828 -0.8202 -0.4295  0.6821
10476TIP3   OH252918   0.138   4.487   2.357  0.3035 -0.1063 -0.2505
10476TIP3    H152919   0.045   4.501   2.337  0.6373 -0.0189 -1.9006
10476TIP3    H252920   0.138   4.415   2.419 -0.8780 -0.1470 -0.2658
10477TIP3   OH252921   3.551   1.326   5.103 -0.3029 -0.1165 -0.0216
10477TIP3    H152922   3.507   1.369   5.176 -1.5569  0.6537 -1.2098
10477TIP3    H252923   3.507   1.241   5.094 -0.5541  0.0413 -0.2734
10478TIP3   OH252924   3.239   4.139  12.198 -0.6180  0.5652 -0.0578
10478TIP3    H152925   3.267   4.073  12.260 -1.6149 -0.7762 -0.9826
10478TIP3    H252926   3.320   4.177  12.164 -0.0301  1.8452  2.4945
10479TIP3   OH252927   0.042   4.299   1.439 -0.3787  0.1775 -0.3287
10479TIP3    H152928   0.015   4.372   1.382 -0.6560 -0.1566 -0.6251
10479TIP3    H252929  -0.039   4.269   1.480 -0.3439 -0.3079 -0.6112
10480TIP3   OH252930   6.601   2.076  10.073 -0.1774 -0.4394 -0.4646
10480TIP3    H152931   6.689   2.078  10.038 -0.0705  1.2446 -0.1664
10480TIP3    H252932   6.612   2.065  10.167 -0.0234  3.3430  0.1118
10481TIP3   OH252933   2.742   1.100   5.999 -0.5371  0.8398  0.6636
10481TIP3    H152934   2.717   1.162   6.068  1.7183  1.3331  1.1058
10481TIP3    H252935   2.767   1.021   6.045  0.2288  0.9066  0.3830
10482TIP3   OH252936   4.313   5.686   0.045 -0.1513  0.1267  0.2697
10482TIP3    H152937   4.264   5.744  -0.013  2.4317  1.4348 -0.7533
10482TIP3    H252938   4.315   5.732   0.129  0.8160  0.9858 -0.1946
10483TIP3   OH252939   3.991   1.229  13.186  0.2223  0.0616  0.1375
10483TIP3    H152940   4.002   1.182  13.103 -0.9636 -0.0744  0.0384
10483TIP3    H252941   4.058   1.298  13.184  1.0862 -0.7636 -0.3270
10484TIP3   OH252942   6.638   5.943   5.615  0.1212 -0.5565 -0.5374
10484TIP3    H152943   6.639   5.850   5.592  1.4479 -0.6712 -0.0935
10484TIP3    H252944   6.647   5.988   5.531  2.1347 -0.9088 -0.5560
10485TIP3   OH252945   6.819   1.971  11.671 -0.0788 -1.0397  0.1993
10485TIP3    H152946   6.859   2.010  11.748 -0.3541 -0.8127  0.2289
10485TIP3    H252947   6.892   1.940  11.618  0.2385  0.8763 -0.5654
10486TIP3   OH252948   5.060   5.501  15.205 -0.4331 -0.1665  0.0779
10486TIP3    H152949   5.098   5.428  15.254  0.7274 -0.1789 -0.7805
10486TIP3    H252950   5.131   5.530  15.147 -1.6031  0.1126 -1.2800
10487TIP3   OH252951   3.386   5.394  15.481 -0.4164  0.3470  0.8687
10487TIP3    H152952   3.474   5.368  15.455 -0.9267  0.5793 -1.2619
10487TIP3    H252953   3.373   5.352  15.566  0.9777 -1.4204  0.2753
10488TIP3   OH252954   4.434   2.410   2.583 -0.4343 -0.0458  0.1020
10488TIP3    H152955   4.418   2.316   2.569  1.0001 -0.4513  0.9252
10488TIP3    H252956   4.500   2.412   2.652 -0.6305  1.5955  0.2622
10489TIP3   OH252957   3.584   5.107  16.744  0.4307 -0.5656  0.1356
10489TIP3    H152958   3.584   5.103  16.649  1.2422 -1.1883  0.1508
10489TIP3    H252959   3.610   5.197  16.765 -0.8681 -0.0888 -0.2160
10490TIP3   OH252960   5.921   2.420   5.058 -0.0837  0.5203 -0.1331
10490TIP3    H152961   5.907   2.328   5.035 -0.9563 -0.3514  3.3141
10490TIP3    H252962   6.006   2.422   5.101 -0.3829  1.2021  0.4440
10491TIP3   OH252963   2.854   0.783   4.419 -0.3982  0.4924  0.2889
10491TIP3    H152964   2.823   0.693   4.434  0.2454  0.5801  2.4608
10491TIP3    H252965   2.948   0.774   4.404 -0.5233  0.7289 -0.7311
10492TIP3   OH252966   0.212   0.297  11.010  0.1717 -0.1881 -0.4270
10492TIP3    H152967   0.161   0.291  10.929 -0.4734 -0.3261 -0.0089
10492TIP3    H252968   0.302   0.310  10.979 -0.2692  1.3557 -1.1663
10493TIP3   OH252969   0.186   0.394  16.750  0.0257  0.2669 -0.1412
10493TIP3    H152970   0.240   0.333  16.701 -0.4191 -0.2378 -0.0158
10493TIP3    H252971   0.122   0.339  16.795  0.1496  0.7542  0.6521
10494TIP3   OH252972   0.663   1.357  11.263 -0.3085 -0.0715 -0.3009
10494TIP3    H152973   0.691   1.370  11.173  0.1895  1.4718  0.0486
10494TIP3    H252974   0.667   1.444  11.303  1.6808 -1.0378  1.8482
10495TIP3   OH252975   2.384   5.635   5.977  0.3108 -0.8320 -0.4756
10495TIP3    H152976   2.431   5.717   5.963 -0.9463  0.3453  1.6336
10495TIP3    H252977   2.319   5.632   5.907  0.8348 -0.4030 -0.9893
10496TIP3   OH252978   4.681   6.221  12.808  0.4328 -0.0859 -0.3159
10496TIP3    H152979   4.753   6.274  12.842  0.3139  0.4572 -0.9021
10496TIP3    H252980   4.721   6.169  12.738 -0.1186  1.6742 -2.0401
10497TIP3   OH252981   3.086   4.571   3.130 -0.0190  0.6699  0.4894
10497TIP3    H152982   3.068   4.518   3.052 -1.4103  2.0211 -0.1566
10497TIP3    H252983   3.047   4.521   3.202 -2.5966  1.3885 -0.2936
10498TIP3   OH252984   3.594   0.251   0.079 -0.0560 -0.1067  0.3129
10498TIP3    H152985   3.535   0.294   0.016 -0.1927 -1.2870 -0.3836
10498TIP3    H252986   3.561   0.162   0.086  1.5197 -0.7305  0.0660
10499TIP3   OH252987   1.461   0.298   1.154  0.2218  0.2257  0.8182
10499TIP3    H152988   1.464   0.238   1.079 -2.0542  0.0332  0.8161
10499TIP3    H252989   1.550   0.332   1.161  0.4289  0.6095 -2.2677
10500TIP3   OH252990   2.213   4.425  10.628  0.2105  0.1570 -0.3911
10500TIP3    H152991   2.235   4.369  10.703 -0.1741  0.9619  0.3395
10500TIP3    H252992   2.174   4.365  10.565 -1.6005 -0.2063  0.9747
10501TIP3   OH252993   6.253   4.060  10.364 -0.6061  0.5922 -0.1207
10501TIP3    H152994   6.260   4.154  10.346  2.5914  0.2990 -1.0012
10501TIP3    H252995   6.318   4.019  10.307 -1.1729 -2.0801  0.9837
10502TIP3   OH252996   0.333   6.074  16.993 -0.1268 -0.3886 -0.3259
10502TIP3    H152997   0.348   5.984  16.966 -1.3888 -0.6972 -0.0519
10502TIP3    H252998   0.341   6.073  17.088 -3.3343 -0.9279  0.0295
10503TIP3   OH252999   2.427   0.065   1.707 -0.1685 -0.7730  0.0244
10503TIP3    H153000   2.486   0.024   1.771 -0.1244  1.4477  1.4960
10503TIP3    H253001   2.339   0.052   1.743 -0.3590 -1.5636 -0.6978
10504TIP3   OH253002   2.471   6.649  16.742  0.5255  0.4645 -0.0213
10504TIP3    H153003   2.452   6.650  16.836 -1.1606 -1.1308 -0.2962
10504TIP3    H253004   2.500   6.560  16.725 -4.1445 -1.0010 -1.8018
10505TIP3   OH253005   5.719   1.675   1.099 -0.7454  0.1771  0.0460
10505TIP3    H153006   5.799   1.728   1.096 -0.1153 -0.7664 -0.0286
10505TIP3    H253007   5.738   1.606   1.162 -1.4756 -0.1202 -0.0485
10506TIP3   OH253008   2.219   0.488  10.471 -0.2584 -0.0480 -0.0787
10506TIP3    H153009   2.234   0.575  10.507  0.4046 -0.7682  1.4509
10506TIP3    H253010   2.124   0.481  10.464 -0.3181  0.8310 -0.3610
10507TIP3   OH253011   6.331   0.504  15.556  0.1905  0.1811 -0.2063
10507TIP3    H153012   6.409   0.454  15.533  0.4932  0.4246  0.2831
10507TIP3    H253013   6.268   0.482  15.487  1.3165  1.5096 -1.7601
10508TIP3   OH253014   5.449   5.545  12.447  0.0093  1.0454 -0.0370
10508TIP3    H153015   5.369   5.531  12.396  0.1630  0.2083 -0.0595
10508TIP3    H253016   5.520   5.530  12.385  0.1945  2.1113 -0.1005
10509TIP3   OH253017   0.594   4.401  13.769 -0.5653 -0.3988 -0.0704
10509TIP3    H153018   0.648   4.478  13.787 -0.7726 -0.4838  1.0170
10509TIP3    H253019   0.657   4.331  13.750 -0.3958  0.1967 -1.8780
10510TIP3   OH253020   6.659   6.622  15.685 -0.6144 -0.1335  0.3791
10510TIP3    H153021   6.712   6.702  15.687  0.3124 -0.4900 -3.2763
10510TIP3    H253022   6.711   6.557  15.732  1.4979  0.0094 -1.5564
10511TIP3   OH253023   0.057   3.021   4.445 -0.6826  0.6921  0.4200
10511TIP3    H153024  -0.036   3.013   4.465 -1.0766  1.3647 -0.9982
10511TIP3    H253025   0.082   3.106   4.479 -0.4781  0.3537  1.1367
10512TIP3   OH253026   0.283   5.957  12.183 -0.0767  0.5479 -0.4878
10512TIP3    H153027   0.328   6.025  12.234 -0.0774  1.6017 -1.8359
10512TIP3    H253028   0.231   6.005  12.119 -1.4764 -0.7008 -0.3602
10513TIP3   OH253029   1.078   1.624   4.710  0.7938 -0.3359 -0.8109
10513TIP3    H153030   1.060   1.542   4.756  1.1867 -0.0530 -0.1513
10513TIP3    H253031   0.999   1.639   4.657 -0.9885  0.8622  1.9926
10514TIP3   OH253032   6.585   2.315   0.536 -0.3933 -0.7617 -0.2660
10514TIP3    H153033   6.635   2.386   0.494  1.5523 -2.1314 -0.4307
10514TIP3    H253034   6.558   2.259   0.463  0.5674 -1.6731  0.0589
10515TIP3   OH253035   3.084   6.812   4.280 -0.4406  0.6783  0.2689
10515TIP3    H153036   3.162   6.855   4.246  0.9641 -1.3852  0.6643
10515TIP3    H253037   3.025   6.806   4.204  0.5770  0.6005 -0.5442
10516TIP3   OH253038   4.873   2.257  13.236  0.1193 -0.4869 -0.1333
10516TIP3    H153039   4.868   2.248  13.141 -0.7185  0.9404 -0.2535
10516TIP3    H253040   4.843   2.173  13.270  0.8673 -1.1725 -1.1233
10517TIP3   OH253041   0.485   1.671  11.128  0.2434 -0.3281  0.0761
10517TIP3    H153042   0.556   1.634  11.075  0.6239 -0.2703  0.5415
10517TIP3    H253043   0.495   1.630  11.213 -1.1417 -1.3819 -0.2408
10518TIP3   OH253044   3.870   5.791   4.396  0.1991 -0.1147 -0.0307
10518TIP3    H153045   3.808   5.847   4.348 -1.9967 -2.1101  0.2740
10518TIP3    H253046   3.950   5.794   4.344 -0.6650  1.3185 -1.3649
10519TIP3   OH253047   2.197   4.087  11.309 -0.1422  0.0328 -0.3346
10519TIP3    H153048   2.138   4.020  11.344 -0.1771  0.5117  0.5522
10519TIP3    H253049   2.144   4.166  11.306  0.3247  0.3693  0.0758
10520TIP3   OH253050   4.641   1.044   2.075  0.3735 -0.3648 -0.1314
10520TIP3    H153051   4.657   0.956   2.043  0.2882 -0.3412 -0.2399
10520TIP3    H253052   4.623   1.033   2.169 -2.7609 -0.8437 -0.6665
10521TIP3   OH253053   0.448   3.571   4.490 -0.3248  0.1749  0.3227
10521TIP3    H153054   0.542   3.554   4.499  0.4610  1.3647 -3.7143
10521TIP3    H253055   0.428   3.631   4.561  1.5784 -1.1691  2.1443
10522TIP3   OH253056   3.808   2.299   0.106  0.1355 -0.2577 -0.5281
10522TIP3    H153057   3.831   2.344   0.025 -0.0772 -1.5691 -1.3504
10522TIP3    H253058   3.720   2.332   0.127  0.8742  1.3747  0.1476
10523TIP3   OH253059   4.682   5.840   3.887 -0.0896  0.0085  0.0033
10523TIP3    H153060   4.732   5.778   3.835 -0.1703 -1.9427  2.1071
10523TIP3    H253061   4.619   5.878   3.826  2.1558  0.5969 -2.1003
10524TIP3   OH253062   6.620   5.055  13.632 -0.0847 -0.2458  0.2337
10524TIP3    H153063   6.654   5.043  13.543  2.6151  1.3093  0.9642
10524TIP3    H253064   6.659   4.984  13.683  1.0525  0.7534  0.7997
10525TIP3   OH253065   5.883   0.903   2.850  0.2358  0.0101 -0.1924
10525TIP3    H153066   5.919   0.972   2.906 -1.1078  2.3765 -2.0725
10525TIP3    H253067   5.806   0.871   2.898  0.5679  0.1592  0.4595
10526TIP3   OH253068   4.988   5.508   6.314  0.2329 -0.3591 -0.1624
10526TIP3    H153069   5.012   5.586   6.264  2.8516 -1.0306 -0.1373
10526TIP3    H253070   5.070   5.458   6.319 -1.7047 -4.0492 -1.7660
10527TIP3   OH253071   5.336   3.431   2.339 -0.3164 -0.0721 -0.6394
10527TIP3    H153072   5.333   3.465   2.250  1.7835 -0.9819 -1.1043
10527TIP3    H253073   5.290   3.497   2.391 -0.8133  0.9069 -2.2453
10528TIP3   OH253074   3.621   6.467   4.484 -0.2686 -0.3925  0.0027
10528TIP3    H153075   3.682   6.393   4.480  1.5817  1.0781 -3.4766
10528TIP3    H253076   3.675   6.541   4.511 -1.3854  0.2598  0.4809
10529TIP3   OH253077   0.949   2.747   4.468  0.2373 -0.1130  0.0670
10529TIP3    H153078   1.034   2.703   4.475  1.9581  3.0266  1.7140
10529TIP3    H253079   0.909   2.735   4.554 -2.0861 -3.1990 -1.2534
10530TIP3   OH253080   5.473   2.611  15.325  0.6225 -0.0685  0.2727
10530TIP3    H153081   5.408   2.662  15.276  0.2176 -0.1532  0.7148
10530TIP3    H253082   5.550   2.609  15.268 -0.1147 -0.8485 -0.7411
10531TIP3   OH253083   0.239   3.232   2.660  0.2126 -0.0643  0.3325
10531TIP3    H153084   0.260   3.191   2.744 -0.2266 -0.6352  0.1677
10531TIP3    H253085   0.320   3.223   2.609  0.8104  1.1571  1.0154
10532TIP3   OH253086   2.043   3.511   5.541 -0.3095  0.1410  0.1987
10532TIP3    H153087   1.970   3.467   5.497 -0.3328  0.0926  0.2850
10532TIP3    H253088   2.052   3.594   5.496 -0.0455 -0.0964 -0.1876
10533TIP3   OH253089   5.918   2.405  13.708  0.6745 -0.3400  0.1763
10533TIP3    H153090   6.011   2.425  13.722  0.6806 -1.0461  1.3282
10533TIP3    H253091   5.905   2.321  13.752 -0.1763 -1.0064 -1.3006
10534TIP3   OH253092   2.203   1.751  13.935  0.0584 -0.0094  0.4710
10534TIP3    H153093   2.206   1.686  13.864 -0.5832  1.7743 -1.3004
10534TIP3    H253094   2.119   1.796  13.923 -0.4787 -0.2048  2.9515
10535TIP3   OH253095   6.023   6.578  16.327  0.6413 -0.0956 -0.0616
10535TIP3    H153096   6.063   6.665  16.332 -0.1815  0.2766  0.4941
10535TIP3    H253097   6.004   6.565  16.234  1.2597  0.0839 -0.2167
10536TIP3   OH253098   1.750   2.213  13.959 -0.2664  0.4843  0.0375
10536TIP3    H153099   1.748   2.243  13.868 -0.1098 -1.5125 -0.6541
10536TIP3    H253100   1.841   2.223  13.986 -0.0641 -0.0293 -0.4320
10537TIP3   OH253101   0.460   1.607   0.727 -0.3280 -0.6034  0.1012
10537TIP3    H153102   0.414   1.528   0.700 -1.0193  0.2004 -1.2092
10537TIP3    H253103   0.392   1.675   0.727  0.4501  0.1967  0.1476
10538TIP3   OH253104   5.060   1.925   0.052  0.2530  0.4632 -0.1655
10538TIP3    H153105   5.095   2.008   0.086  1.8443 -0.2582  0.0602
10538TIP3    H253106   5.137   1.878   0.021 -0.8138 -0.2181 -1.9175
10539TIP3   OH253107   2.502   3.358  10.856  1.1396 -1.0559 -0.4564
10539TIP3    H153108   2.487   3.338  10.763  0.5800 -0.5828 -0.4763
10539TIP3    H253109   2.597   3.360  10.865  1.2008 -1.1280 -1.0122
10540TIP3   OH253110   2.743   5.180   1.587  0.1745  0.3196  0.5355
10540TIP3    H153111   2.818   5.210   1.536  1.0490  0.2699  1.7445
10540TIP3    H253112   2.738   5.086   1.568 -0.3374  0.5360 -0.4651
10541TIP3   OH253113   5.069   0.760  11.550  0.5345 -0.3302  0.1550
10541TIP3    H153114   5.020   0.681  11.572 -0.0197  0.0706  0.3825
10541TIP3    H253115   5.160   0.738  11.571  0.5834 -1.3350 -0.9752
10542TIP3   OH253116   5.002   4.776  11.552 -0.6718  0.1524  0.0797
10542TIP3    H153117   5.071   4.747  11.611 -0.6909  1.3567  0.7283
10542TIP3    H253118   4.925   4.726  11.578 -0.3443 -0.3257  0.1437
10543TIP3   OH253119   6.047   0.372   1.645  0.0087  0.5020  0.6756
10543TIP3    H153120   5.954   0.395   1.638  0.5178  3.0280  1.4690
10543TIP3    H253121   6.063   0.315   1.570 -1.7246  1.6573 -0.6495
10544TIP3   OH253122   5.392   3.309  16.619 -0.1274  0.1492  0.3388
10544TIP3    H153123   5.363   3.395  16.649  2.2438  1.3999 -0.6940
10544TIP3    H253124   5.414   3.262  16.699 -1.6192  0.3869  0.9258
10545TIP3   OH253125   4.530   5.375  15.349 -0.3673 -0.0300 -0.0554
10545TIP3    H153126   4.529   5.364  15.444  0.5638 -1.6615 -0.2100
10545TIP3    H253127   4.613   5.418  15.330 -0.5775  0.3466 -0.1351
10546TIP3   OH253128   2.595   6.670   2.101 -0.2974 -0.2439  0.1359
10546TIP3    H153129   2.586   6.707   2.013 -1.7618  0.1460  0.4296
10546TIP3    H253130   2.654   6.596   2.089  0.1251  0.2497 -1.0371
10547TIP3   OH253131   6.033   5.062   1.179  0.4836  0.1778 -0.2963
10547TIP3    H153132   5.989   4.978   1.165 -0.1403  0.5784 -0.8092
10547TIP3    H253133   5.962   5.125   1.187  0.9319  0.9831 -2.0642
10548TIP3   OH253134   0.560   1.756  12.029 -0.0907  0.0470  0.2945
10548TIP3    H153135   0.572   1.792  11.941 -0.4109  0.6174  0.4823
10548TIP3    H253136   0.608   1.673  12.027  0.8508  0.5825 -0.0761
10549TIP3   OH253137   0.438   4.250   6.226 -0.2092 -0.0713  0.1851
10549TIP3    H153138   0.411   4.297   6.305 -1.5489  0.4434 -0.5364
10549TIP3    H253139   0.364   4.192   6.206  0.1746 -0.3051 -0.5994
10550TIP3   OH253140   4.247   5.519   0.982  0.5114  0.1726  0.3967
10550TIP3    H153141   4.296   5.522   1.064  0.7884  0.8206  0.2062
10550TIP3    H253142   4.203   5.433   0.984  1.5908 -0.3905  0.6012
10551TIP3   OH253143   1.884   3.142  12.605  0.6422  0.5483 -0.1465
10551TIP3    H153144   1.920   3.231  12.611  0.1034  0.7055  1.1037
10551TIP3    H253145   1.906   3.102  12.689  1.7034 -0.8542 -1.0461
10552TIP3   OH253146   4.271   0.199  13.236  0.2426 -0.0068  0.2626
10552TIP3    H153147   4.311   0.275  13.195 -0.8986  0.9460  0.8340
10552TIP3    H253148   4.342   0.137  13.247  1.0775  0.7338 -0.7794
10553TIP3   OH253149   3.874   3.385  12.375  0.4744 -0.5036  0.4188
10553TIP3    H153150   3.830   3.391  12.460 -1.1181 -0.1948 -0.3865
10553TIP3    H253151   3.854   3.468  12.332  0.1034 -1.1853 -0.7720
10554TIP3   OH253152   3.128   6.204   5.790  0.2530 -0.0346 -0.3353
10554TIP3    H153153   3.061   6.136   5.800  2.5117 -2.1444  1.8193
10554TIP3    H253154   3.080   6.286   5.802 -2.1389 -1.3544 -0.1997
10555TIP3   OH253155   0.719   5.922  13.945  0.4752 -0.2021  0.3879
10555TIP3    H153156   0.670   5.971  13.879  1.5902 -1.4719 -1.5001
10555TIP3    H253157   0.768   5.989  13.993 -0.7836  0.8031  0.3200
10556TIP3   OH253158   2.298   1.143  14.744 -0.0954 -0.2734 -0.3278
10556TIP3    H153159   2.288   1.049  14.727  0.8943 -0.2177 -1.2746
10556TIP3    H253160   2.391   1.160  14.733 -0.0196  0.5517  1.3322
10557TIP3   OH253161   6.033   1.189  14.329 -0.3292  0.1539 -0.1983
10557TIP3    H153162   6.044   1.233  14.413 -0.1612  2.2191 -1.2554
10557TIP3    H253163   6.109   1.216  14.277 -1.5426  0.6985 -1.7596
10558TIP3   OH253164   2.775   6.436   1.617 -0.3853  0.8992  0.5882
10558TIP3    H153165   2.736   6.349   1.622 -0.1424  0.8278  1.3836
10558TIP3    H253166   2.725   6.482   1.550  0.4491 -0.3424 -0.9539
10559TIP3   OH253167   1.978   5.291   4.116 -0.5914  0.2034  0.8323
10559TIP3    H153168   1.953   5.212   4.165  2.2859 -0.1937  1.8346
10559TIP3    H253169   1.946   5.364   4.170 -1.0121 -0.2404  1.1925
10560TIP3   OH253170   5.227   2.807  14.651 -0.0682 -0.5347  0.3731
10560TIP3    H153171   5.305   2.794  14.597 -0.2729 -1.6087  0.3148
10560TIP3    H253172   5.256   2.865  14.722  0.1461  1.1618 -1.0051
10561TIP3   OH253173   3.888   0.602  12.420  0.0811 -0.3106  0.3890
10561TIP3    H153174   3.874   0.696  12.437  0.5558 -0.0526 -0.5931
10561TIP3    H253175   3.852   0.559  12.498 -0.2794  0.6745  0.7950
10562TIP3   OH253176   2.183   6.121   2.467  0.5119  0.2616 -0.2089
10562TIP3    H153177   2.103   6.128   2.415 -0.1803 -1.0132  0.6097
10562TIP3    H253178   2.205   6.211   2.490 -1.5513  0.5747  0.7859
10563TIP3   OH253179   1.815   3.059  14.180 -0.1908  0.2253 -0.1827
10563TIP3    H153180   1.839   3.138  14.132  3.2736  0.0798  1.0606
10563TIP3    H253181   1.773   3.003  14.115  1.8740  1.1006 -2.4241
10564TIP3   OH253182   2.669   6.407   3.017  0.3404 -0.3384 -0.9216
10564TIP3    H153183   2.584   6.433   3.052  0.6313 -2.0619  1.3589
10564TIP3    H253184   2.717   6.489   3.006 -0.7755  0.5040  0.1553
10565TIP3   OH253185   4.382   5.243   4.143 -0.3095  0.1069  0.5469
10565TIP3    H153186   4.297   5.212   4.173 -1.1072 -0.2806 -1.8507
10565TIP3    H253187   4.401   5.190   4.065  2.7616 -0.6900  1.6999
10566TIP3   OH253188   0.177   4.784   5.174 -0.0606  0.3898 -0.1970
10566TIP3    H153189   0.237   4.856   5.157  2.3294 -0.6344  2.8845
10566TIP3    H253190   0.154   4.793   5.267  0.3990 -2.7473  0.3624
10567TIP3   OH253191   1.637   6.114  15.419  0.6595 -0.3652 -0.3413
10567TIP3    H153192   1.678   6.090  15.502 -0.8461 -1.7265  0.0633
10567TIP3    H253193   1.555   6.064  15.418 -1.9793  3.5155 -0.2230
10568TIP3   OH253194   1.173   5.721  13.076  0.8380 -0.1936  0.0105
10568TIP3    H153195   1.214   5.635  13.082  0.9806 -0.0540  1.3440
10568TIP3    H253196   1.244   5.784  13.086  0.7233  0.0911 -0.8642
10569TIP3   OH253197   2.282   0.172   4.684  0.4321  0.2717 -0.1575
10569TIP3    H153198   2.236   0.094   4.714 -0.4425  0.0872 -1.8664
10569TIP3    H253199   2.373   0.144   4.675  0.6345  0.2058  1.7230
10570TIP3   OH253200   2.519   6.663   1.104 -0.4985  0.6891 -0.3657
10570TIP3    H153201   2.433   6.663   1.147 -0.2038 -0.7636  0.2864
10570TIP3    H253202   2.517   6.587   1.047  0.6015  0.2242  0.1916
10571TIP3   OH253203   1.108   2.771  16.178  0.4599 -0.2633  0.1367
10571TIP3    H153204   1.035   2.793  16.236 -0.3389  0.6112 -1.1524
10571TIP3    H253205   1.110   2.676  16.178  0.5257 -0.2860  1.6426
10572TIP3   OH253206   1.474   6.434   1.788  0.2487  0.2078  0.1340
10572TIP3    H153207   1.480   6.511   1.731 -0.1518 -0.6008 -1.0505
10572TIP3    H253208   1.563   6.424   1.823  0.2990  1.2119  0.3271
10573TIP3   OH253209   6.400   0.437  14.060  0.5846  0.4823 -0.1193
10573TIP3    H153210   6.425   0.409  13.972  1.4968  3.0829 -0.7688
10573TIP3    H253211   6.484   0.459  14.102  0.0815  0.1944  1.0687
10574TIP3   OH253212   1.837   2.297  12.063  0.5962 -0.0205  0.2583
10574TIP3    H153213   1.784   2.369  12.029  1.0236 -0.2772 -1.0358
10574TIP3    H253214   1.881   2.261  11.985  1.3929 -0.8479  1.0609
10575TIP3   OH253215   6.746   4.473   1.704  0.0310  0.6760 -0.1591
10575TIP3    H153216   6.738   4.530   1.628 -1.8480 -2.2820 -2.4380
10575TIP3    H253217   6.825   4.422   1.688 -0.8204 -0.5452 -0.6904
10576TIP3   OH253218   3.080   0.468  12.305  0.0699  0.1193 -0.0703
10576TIP3    H153219   3.169   0.442  12.330 -0.4218 -0.8325  0.7511
10576TIP3    H253220   3.071   0.438  12.214  0.4881 -0.0269 -0.0654
10577TIP3   OH253221   3.230   4.997  12.680  0.2877  0.4716 -0.4175
10577TIP3    H153222   3.280   5.038  12.750 -0.1314  1.4397 -0.6773
10577TIP3    H253223   3.185   4.924  12.722 -0.4443  1.4062  0.4698
10578TIP3   OH253224   6.034   0.175  12.212  0.6055  0.3053 -0.1112
10578TIP3    H153225   6.091   0.104  12.182  1.2769  0.4936  0.6908
10578TIP3    H253226   6.047   0.245  12.149 -0.1918 -0.3216 -1.0122
10579TIP3   OH253227   3.563   1.854   1.627  0.9585  0.4585  0.0394
10579TIP3    H153228   3.533   1.803   1.552 -1.5226 -0.1753  1.3789
10579TIP3    H253229   3.545   1.945   1.603 -0.6019  0.2039  0.1473
10580TIP3   OH253230   0.778   2.093  16.222 -0.1028  0.5954 -0.0068
10580TIP3    H153231   0.797   2.035  16.296  1.2770 -0.3121 -1.0071
10580TIP3    H253232   0.683   2.093  16.215 -0.1449 -1.8148 -0.1425
10581TIP3   OH253233   2.207   4.853   6.092 -0.4730 -0.0896  0.2280
10581TIP3    H153234   2.141   4.836   6.159  0.7952  0.1898  1.5954
10581TIP3    H253235   2.159   4.893   6.020 -2.0943 -1.5459  0.4187
10582TIP3   OH253236   0.225   0.364  17.066 -0.0600 -0.0402 -0.2465
10582TIP3    H153237   0.244   0.383  16.974  0.5663 -1.0478 -0.3362
10582TIP3    H253238   0.265   0.437  17.114  1.4272 -0.5469 -0.6466
10583TIP3   OH253239   0.703   5.730  15.119 -0.5217 -0.9498 -0.6988
10583TIP3    H153240   0.718   5.822  15.143  1.5853 -1.5218  0.4322
10583TIP3    H253241   0.635   5.701  15.180  0.7767 -0.8467  0.8578
10584TIP3   OH253242   2.794   1.103   2.282 -0.3174  0.1013  0.0881
10584TIP3    H153243   2.826   1.127   2.195 -0.1561  0.1816  0.1698
10584TIP3    H253244   2.759   1.015   2.271 -0.9820  0.3991 -0.2296
10585TIP3   OH253245   3.809   3.653  13.752 -0.4553  0.2507 -0.3161
10585TIP3    H153246   3.785   3.584  13.690 -0.5871  0.5338 -0.5871
10585TIP3    H253247   3.764   3.731  13.719  0.4343  0.6821 -0.5552
10586TIP3   OH253248   5.560   3.636   0.842  0.0500  0.2115  0.5029
10586TIP3    H153249   5.607   3.561   0.878 -1.8607 -0.7342  1.1536
10586TIP3    H253250   5.509   3.601   0.770 -0.2155  1.0563  0.2649
10587TIP3   OH253251   5.520   0.556   1.662 -0.0094 -0.3267 -0.6223
10587TIP3    H153252   5.452   0.543   1.729  1.6477  1.4537  1.5482
10587TIP3    H253253   5.554   0.468   1.646 -0.3694 -0.8150  1.0378
10588TIP3   OH253254   3.892   3.628  14.980  0.1301 -0.1738 -0.4324
10588TIP3    H153255   3.895   3.724  14.981  2.0095 -0.1895 -0.9323
10588TIP3    H253256   3.801   3.608  14.956 -0.6767  1.4356  0.9900
10589TIP3   OH253257   2.472   0.977  12.769 -0.3884 -0.3404  0.0638
10589TIP3    H153258   2.494   1.036  12.697  0.1219 -2.2334 -1.4144
10589TIP3    H253259   2.555   0.936  12.792 -1.1682 -2.7562 -1.1199
10590TIP3   OH253260   4.975   6.241   4.963  0.4682 -0.2227  0.2660
10590TIP3    H153261   5.064   6.232   4.995 -0.2352 -0.3678  2.3396
10590TIP3    H253262   4.951   6.154   4.933  0.4285 -0.6319  1.4389
10591TIP3   OH253263   5.812   6.119   4.300 -0.4801 -0.0168 -0.1734
10591TIP3    H153264   5.733   6.101   4.351 -0.0571  1.2018  0.9608
10591TIP3    H253265   5.843   6.204   4.332  1.0826 -0.2858 -0.8671
10592TIP3   OH253266   2.368   0.899   2.803  0.1864 -0.5443 -0.9191
10592TIP3    H153267   2.456   0.917   2.770 -0.5679  1.1062 -2.1467
10592TIP3    H253268   2.334   0.830   2.745 -0.0565  0.2566 -1.7418
10593TIP3   OH253269   6.704   4.423   5.681 -0.0308 -0.1656 -0.4050
10593TIP3    H153270   6.778   4.365   5.660  0.3738  0.6707 -1.4072
10593TIP3    H253271   6.660   4.437   5.597  0.5219  1.8183 -0.4166
10594TIP3   OH253272   5.238   3.448  12.755  0.2742 -0.3466 -0.1788
10594TIP3    H153273   5.190   3.531  12.751 -0.6018 -0.8857 -1.1723
10594TIP3    H253274   5.316   3.469  12.806  0.2227  1.1666 -0.6662
10595TIP3   OH253275   6.320   0.629   1.017 -0.4235  0.6784 -0.3095
10595TIP3    H153276   6.254   0.659   0.954  0.3375  1.3886 -0.7948
10595TIP3    H253277   6.311   0.688   1.092 -1.6532 -0.4667  0.4855
10596TIP3   OH253278   2.663   2.214   3.964 -0.2314 -0.5439 -0.4490
10596TIP3    H153279   2.630   2.150   4.026 -0.0926 -0.9756 -0.8163
10596TIP3    H253280   2.666   2.168   3.880 -1.9988  0.5086 -1.1446
10597TIP3   OH253281   0.036   0.093   3.079  0.3558  0.0040  0.0854
10597TIP3    H153282   0.063   0.042   3.155  1.8260  0.6941  0.0513
10597TIP3    H253283   0.113   0.094   3.022 -0.3577  0.4533 -0.9035
10598TIP3   OH253284   1.801   6.763   1.857 -0.1074  0.1502 -0.3033
10598TIP3    H153285   1.745   6.697   1.816 -0.9654 -0.3782  1.5985
10598TIP3    H253286   1.741   6.830   1.888  0.6567  1.2884 -1.1930
10599TIP3   OH253287   6.656   4.765  12.057  0.5002 -0.5051  0.2000
10599TIP3    H153288   6.585   4.701  12.058  0.2890 -0.3143 -1.0615
10599TIP3    H253289   6.635   4.823  11.984  2.2947 -0.8737 -0.6699
10600TIP3   OH253290   4.703   0.579   0.258  0.1121  0.1218 -0.2462
10600TIP3    H153291   4.716   0.509   0.194  0.4013 -0.1848  0.1436
10600TIP3    H253292   4.626   0.626   0.227  0.0420 -0.2422 -0.6270
10601TIP3   OH253293   1.731   4.619   2.253  0.4647  0.0419  0.3817
10601TIP3    H153294   1.747   4.526   2.269  1.5356  0.3184  1.0087
10601TIP3    H253295   1.725   4.658   2.340 -1.1783  0.3836  0.1413
10602TIP3   OH253296   5.843   2.648  11.523 -0.8486  0.2904  0.4168
10602TIP3    H153297   5.794   2.643  11.605 -0.2455  1.8668  0.9091
10602TIP3    H253298   5.932   2.669  11.550 -0.9080  2.0955 -0.6927
10603TIP3   OH253299   5.700   1.184  14.817 -0.6625 -0.5446  0.3540
10603TIP3    H153300   5.684   1.273  14.848 -0.4324  0.4104 -2.0628
10603TIP3    H253301   5.793   1.169  14.830 -0.5710 -0.1634  0.1378
10604TIP3   OH253302   4.819   6.531  16.867 -0.6285 -0.1514 -0.1653
10604TIP3    H153303   4.796   6.586  16.793  0.2286 -1.4270 -1.4425
10604TIP3    H253304   4.858   6.590  16.930 -0.8991  0.8880 -0.9474
10605TIP3   OH253305   6.755   6.300   2.147  0.1885  0.7448 -0.1208
10605TIP3    H153306   6.818   6.229   2.159 -1.2130 -0.3746  0.8073
10605TIP3    H253307   6.723   6.290   2.058  0.8058  0.9172 -0.3696
10606TIP3   OH253308   4.788   6.181  15.828 -0.6782  0.1818 -0.0799
10606TIP3    H153309   4.822   6.175  15.917  1.8466  0.2029 -0.9465
10606TIP3    H253310   4.694   6.195  15.839 -1.3961 -4.4855  2.5440
10607TIP3   OH253311   6.543   0.503  15.947  0.2649 -0.6549 -0.3520
10607TIP3    H153312   6.606   0.497  16.019  1.1576  1.8581 -0.8132
10607TIP3    H253313   6.458   0.507  15.991  0.7577  0.2081  0.5783
10608TIP3   OH253314   5.479   0.530   2.076 -0.1614  0.0880 -0.3477
10608TIP3    H153315   5.406   0.561   2.130 -1.5075 -0.3539 -1.8269
10608TIP3    H253316   5.495   0.601   2.013 -2.1189 -1.3291 -2.6412
10609TIP3   OH253317   5.543   3.057   2.490 -0.2006  0.4595 -0.0013
10609TIP3    H153318   5.569   3.027   2.577 -0.7389  0.2317  0.0819
10609TIP3    H253319   5.484   2.990   2.458 -1.8128  1.6334  0.3860
10610TIP3   OH253320   3.223   3.673   0.343  0.5784  0.3206 -0.9356
10610TIP3    H153321   3.290   3.686   0.275  0.8824  1.9850 -0.3641
10610TIP3    H253322   3.271   3.639   0.418  0.2445 -1.5024 -1.4929
10611TIP3   OH253323   0.803   3.097  15.481  0.0325  0.7769 -0.2305
10611TIP3    H153324   0.764   3.020  15.523 -1.8844  2.4377  1.2204
10611TIP3    H253325   0.789   3.082  15.387 -0.5406 -0.4998  0.0339
10612TIP3   OH253326   5.260   0.534   4.034 -0.3116  0.1040 -0.1956
10612TIP3    H153327   5.332   0.512   3.974  0.0595 -0.9387  0.5996
10612TIP3    H253328   5.185   0.551   3.977  0.1158 -0.5536 -0.9716
10613TIP3   OH253329   1.996   1.413   0.454 -0.4293  0.2022  0.0305
10613TIP3    H153330   2.047   1.334   0.473  0.4987  0.6633 -0.5064
10613TIP3    H253331   2.053   1.485   0.482 -2.1845  0.6780  2.7783
10614TIP3   OH253332   5.451   0.284  16.150  0.2022  0.9230 -0.1280
10614TIP3    H153333   5.434   0.190  16.151  2.7330  0.3828 -0.6493
10614TIP3    H253334   5.528   0.296  16.206 -1.2912  3.0357  1.6657
10615TIP3   OH253335   3.320   2.337  13.011 -0.1789 -0.5835  0.4136
10615TIP3    H153336   3.356   2.419  13.044  0.7724 -0.8877  0.1650
10615TIP3    H253337   3.227   2.355  12.999 -0.2347  0.0474  1.6311
10616TIP3   OH253338   2.659   1.605   3.489 -0.1771  0.0013 -0.4804
10616TIP3    H153339   2.735   1.549   3.499 -0.7550 -0.5646  0.9405
10616TIP3    H253340   2.676   1.655   3.409  1.2058 -0.8355 -0.7290
10617TIP3   OH253341   1.148   5.072  16.672 -0.3791  0.8157  0.4150
10617TIP3    H153342   1.057   5.069  16.644 -0.1118  0.0533 -0.3836
10617TIP3    H253343   1.175   4.981  16.678  0.4918  1.0467  0.1322
10618TIP3   OH253344   6.328   6.499  13.538 -0.3278 -0.3543 -0.3708
10618TIP3    H153345   6.282   6.430  13.586 -0.8082  0.4253  0.3016
10618TIP3    H253346   6.259   6.551  13.497 -0.3318  2.4011  2.7402
10619TIP3   OH253347   4.835   3.634   6.342 -0.3552  0.0040  0.5893
10619TIP3    H153348   4.779   3.600   6.412 -0.6126 -3.4473 -1.0606
10619TIP3    H253349   4.802   3.592   6.263  2.1619  0.9001 -1.0645
10620TIP3   OH253350   5.074   0.046   1.081  0.4960 -0.5949 -0.5198
10620TIP3    H153351   5.043   0.133   1.056 -1.4741 -0.3452  2.2796
10620TIP3    H253352   5.162   0.061   1.115  0.9510 -0.0581 -1.8763
10621TIP3   OH253353   2.744   4.898   4.115  0.2198  0.3565  0.4357
10621TIP3    H153354   2.782   4.812   4.132  1.6752  0.9812  0.5395
10621TIP3    H253355   2.693   4.887   4.035  1.2923 -0.3630 -0.1785
10622TIP3   OH253356   2.739   5.499  13.349 -0.9358  0.5789  0.4818
10622TIP3    H153357   2.803   5.527  13.414  0.1614 -0.8371  0.0809
10622TIP3    H253358   2.654   5.517  13.388 -0.2852  0.6298  1.9038
10623TIP3   OH253359   3.494   4.518  13.134 -0.1629 -0.3688 -0.5170
10623TIP3    H153360   3.534   4.484  13.054 -0.0411  1.8189 -1.4736
10623TIP3    H253361   3.425   4.456  13.155 -1.0788 -0.3326 -3.1145
10624TIP3   OH253362   6.249   3.679   4.233  0.2367  0.0118 -0.0447
10624TIP3    H153363   6.205   3.619   4.293 -1.2129 -0.2726 -1.3479
10624TIP3    H253364   6.262   3.628   4.153  0.6357  0.8790 -0.5412
10625TIP3   OH253365   2.622   3.763   0.452  0.9609  0.6320  0.5924
10625TIP3    H153366   2.642   3.673   0.479 -0.1217 -0.4655 -1.8899
10625TIP3    H253367   2.671   3.774   0.371 -1.0359  1.2468 -0.5856
10626TIP3   OH253368   1.550   2.938   0.806  0.1361 -0.0911 -0.3501
10626TIP3    H153369   1.607   3.015   0.806  1.4185 -0.9671 -1.7387
10626TIP3    H253370   1.605   2.868   0.771 -0.7299 -1.8694  1.6246
10627TIP3   OH253371   4.961   2.034  11.305 -0.2507  0.1143 -0.4101
10627TIP3    H153372   4.921   2.097  11.365 -0.4690  0.4522 -0.8967
10627TIP3    H253373   4.931   2.062  11.218  0.6814  0.0988 -0.7443
10628TIP3   OH253374   1.854   3.137  12.038 -0.0450 -0.0713  0.0003
10628TIP3    H153375   1.814   3.223  12.036  1.0709  0.4760  0.3397
10628TIP3    H253376   1.921   3.140  11.970 -0.2694 -0.8123 -0.2609
10629TIP3   OH253377   4.192   6.213   0.041  0.0009  0.1174  0.3691
10629TIP3    H153378   4.281   6.248   0.045 -0.0279  0.5295 -1.3972
10629TIP3    H253379   4.136   6.291   0.033 -0.1985 -0.1901 -1.9537
10630TIP3   OH253380   5.619   1.064   2.562  0.0904 -0.0191  0.4310
10630TIP3    H153381   5.558   1.036   2.493  2.2217 -2.6038 -0.5967
10630TIP3    H253382   5.681   0.992   2.569  0.8226  0.7813  4.1362
10631TIP3   OH253383   1.575   6.161  13.234 -0.2120  0.2732  0.1715
10631TIP3    H153384   1.605   6.077  13.199 -0.6986  0.3226 -0.3805
10631TIP3    H253385   1.635   6.180  13.306 -0.2206 -0.6448  0.4305
10632TIP3   OH253386   3.866   5.230  14.710  0.1951 -0.0141  0.2194
10632TIP3    H153387   3.930   5.274  14.766  1.0203  0.9218 -1.3722
10632TIP3    H253388   3.896   5.139  14.706  1.2223  0.3238 -0.1787
10633TIP3   OH253389   5.725   3.226   4.448 -0.6176  0.0557  0.4118
10633TIP3    H153390   5.800   3.285   4.456 -1.4045  1.2851 -0.8038
10633TIP3    H253391   5.654   3.282   4.417 -1.5277 -1.4633 -0.3537
10634TIP3   OH253392   0.816   3.772  10.408 -0.3323  0.2548  0.1827
10634TIP3    H153393   0.746   3.806  10.463 -0.6508  0.5664 -0.3991
10634TIP3    H253394   0.848   3.848  10.360 -0.9378 -0.1935 -1.0013
10635TIP3   OH253395   6.722   4.659   2.929  0.2165  0.5457 -0.0655
10635TIP3    H153396   6.669   4.722   2.880 -0.1572  0.9633  0.8489
10635TIP3    H253397   6.659   4.596   2.965  0.5649 -0.2180 -0.7675
10636TIP3   OH253398   1.898   2.084  15.010 -0.5832  0.0793  1.3631
10636TIP3    H153399   1.957   2.059  14.939  1.6054  0.9541  2.7461
10636TIP3    H253400   1.912   2.018  15.077 -0.2786  0.9096  2.1456
10637TIP3   OH253401   2.468   5.304  16.969  0.0519 -0.4684 -0.0642
10637TIP3    H153402   2.478   5.386  16.920  4.8558 -0.2385  0.7655
10637TIP3    H253403   2.473   5.235  16.903  3.4026 -0.0907 -0.3646
10638TIP3   OH253404   0.399   0.509  16.523 -0.1831  0.3560  0.8378
10638TIP3    H153405   0.306   0.532  16.529 -0.0758  0.8300  0.7317
10638TIP3    H253406   0.424   0.487  16.613 -0.5918 -0.5744  0.7358
10639TIP3   OH253407   3.018   1.053   4.781 -0.1323  0.0415 -0.1197
10639TIP3    H153408   3.050   0.980   4.834  0.9550  1.1548  0.8017
10639TIP3    H253409   3.047   1.032   4.692  0.4296 -0.4870  0.1833
10640TIP3   OH253410   4.325   5.687   4.650  0.0565  0.2073  0.8377
10640TIP3    H153411   4.322   5.725   4.738  0.4752 -0.4584  1.1444
10640TIP3    H253412   4.247   5.631   4.646 -0.9320  1.5646  0.1494
10641TIP3   OH253413   3.932   2.406   4.294 -0.1221 -0.6015  0.4371
10641TIP3    H153414   3.852   2.388   4.244  0.0801 -0.1874 -0.0347
10641TIP3    H253415   4.003   2.379   4.236  0.0958 -0.7657  0.7739
10642TIP3   OH253416   5.662   4.697  16.739 -0.0752  0.2418  0.6624
10642TIP3    H153417   5.679   4.603  16.746  2.1792  0.3814 -1.3808
10642TIP3    H253418   5.739   4.738  16.779  1.3437  1.0478 -2.5181
10643TIP3   OH253419   0.777   3.141   2.006 -0.2071 -0.3649  0.0509
10643TIP3    H153420   0.861   3.109   1.973 -0.2262 -1.1950  0.7926
10643TIP3    H253421   0.742   3.069   2.058 -2.0147 -0.5452 -1.3096
10644TIP3   OH253422   6.661   6.429  11.334 -0.2717 -0.5034  0.3753
10644TIP3    H153423   6.586   6.485  11.355 -1.6053 -2.0744  0.0180
10644TIP3    H253424   6.628   6.369  11.266  2.1123  0.5280 -1.8750
10645TIP3   OH253425   3.080   0.000   5.335 -0.0318 -0.2734  0.6909
10645TIP3    H153426   3.097   0.089   5.366 -1.0737  0.0986  0.2479
10645TIP3    H253427   2.989   0.003   5.304 -0.5399 -1.8595  1.9319
10646TIP3   OH253428   5.125   2.844   1.795  0.1874  0.2373  0.2420
10646TIP3    H153429   5.057   2.780   1.775  1.1325 -0.1936 -1.9144
10646TIP3    H253430   5.099   2.923   1.747  1.7791 -0.3323 -1.6749
10647TIP3   OH253431   4.931   6.347  12.849 -0.2657  0.5984 -0.4619
10647TIP3    H153432   4.993   6.409  12.811 -0.6725  1.2089 -0.1341
10647TIP3    H253433   4.973   6.318  12.930  0.3247 -0.2441 -1.0440
10648TIP3   OH253434   5.993   5.069  12.324  0.0622 -0.3832 -0.0536
10648TIP3    H153435   5.928   5.117  12.375  0.3749  1.3506 -1.1996
10648TIP3    H253436   6.029   5.134  12.264  1.5950 -1.7224 -0.6598
10649TIP3   OH253437   5.148   1.747   3.119  0.1161 -0.1006  0.2563
10649TIP3    H153438   5.119   1.754   3.210 -0.3936 -2.2815  0.3181
10649TIP3    H253439   5.086   1.687   3.078  1.1857 -0.2968 -1.1638
10650TIP3   OH253440   1.080   1.400  16.871  0.5809  0.9535  0.0900
10650TIP3    H153441   0.985   1.399  16.885  0.2560  1.9670 -1.7072
10650TIP3    H253442   1.100   1.314  16.835  0.6120  0.2276  1.7342
10651TIP3   OH253443   0.576   4.037  12.284 -0.4908  0.4665  0.4717
10651TIP3    H153444   0.526   4.082  12.352 -0.4448 -0.7534  1.3498
10651TIP3    H253445   0.665   4.070  12.293 -0.3017 -0.2844  1.5874
10652TIP3   OH253446   4.290   1.678  15.207  0.7085  0.1083  0.3308
10652TIP3    H153447   4.290   1.696  15.113  1.6447 -1.2192  0.0484
10652TIP3    H253448   4.198   1.680  15.233  0.4266  0.2848 -0.6542
10653TIP3   OH253449   4.949   0.085  15.587 -0.0310 -0.2385  0.0586
10653TIP3    H153450   4.915   0.115  15.503 -0.1689 -1.1583 -0.2282
10653TIP3    H253451   4.974  -0.006  15.572 -1.2410 -0.8235  1.3306
10654TIP3   OH253452   6.307   1.535  14.288 -0.0345  0.3468  0.1368
10654TIP3    H153453   6.395   1.562  14.317 -0.2648  0.3154  0.8987
10654TIP3    H253454   6.280   1.603  14.226  1.3371 -0.6930 -1.7001
10655TIP3   OH253455   1.307   0.361   0.313 -0.3350 -0.4000  0.2459
10655TIP3    H153456   1.318   0.309   0.233 -0.0483 -0.4363  0.3105
10655TIP3    H253457   1.254   0.435   0.285 -0.4951 -0.5704  0.0876
10656TIP3   OH253458   4.824   4.803   4.169 -0.1330  0.2502  0.0182
10656TIP3    H153459   4.806   4.886   4.126  0.0948  0.2375 -0.1042
10656TIP3    H253460   4.874   4.826   4.247  0.6299  0.1626 -0.4422
10657TIP3   OH253461   5.565   0.060  14.059 -0.2092 -0.1679  0.1308
10657TIP3    H153462   5.596   0.010  13.984 -1.2081  1.1771 -1.2379
10657TIP3    H253463   5.547  -0.006  14.126  1.3065 -1.3479 -0.5613
10658TIP3   OH253464   1.704   4.073   0.105  0.4104  0.3798  0.4338
10658TIP3    H153465   1.732   3.986   0.133 -1.1174 -0.1490  0.3915
10658TIP3    H253466   1.714   4.127   0.184  0.1665 -0.1255  0.8185
10659TIP3   OH253467   2.821   5.008   5.616  0.3390 -0.2155 -0.1243
10659TIP3    H153468   2.748   5.010   5.555  0.9917 -0.3904 -0.9324
10659TIP3    H253469   2.892   4.968   5.566  0.9290 -0.2168  0.7052
10660TIP3   OH253470   1.641   3.340  12.507 -0.4495 -0.4466  0.2674
10660TIP3    H153471   1.600   3.404  12.449  0.4544  0.2296  0.3627
10660TIP3    H253472   1.710   3.300  12.454 -0.9291 -1.2686  0.2481
10661TIP3   OH253473   4.711   1.081  11.337 -0.1096  0.2602  0.4201
10661TIP3    H153474   4.652   1.119  11.402 -0.2025 -0.4375  0.7580
10661TIP3    H253475   4.721   0.990  11.364  1.7419  0.5383  0.8158
10662TIP3   OH253476   0.718   0.092  14.579  0.3243  0.0636 -0.0965
10662TIP3    H153477   0.752   0.180  14.595  1.0461 -0.3916  1.0153
10662TIP3    H253478   0.794   0.042  14.549  1.0644 -1.2353  3.4276
10663TIP3   OH253479   1.140   4.237   3.941  0.0005 -0.2616 -0.8589
10663TIP3    H153480   1.191   4.185   4.003  0.0061  0.2899 -0.3818
10663TIP3    H253481   1.188   4.320   3.935 -1.3935  0.7192  0.4939
10664TIP3   OH253482   1.131   3.568  16.194 -0.2329  0.2747 -0.1576
10664TIP3    H153483   1.039   3.575  16.168  0.3051  1.9643 -1.8098
10664TIP3    H253484   1.151   3.474  16.187 -2.0560 -0.2802  1.2432
10665TIP3   OH253485   0.594   5.243   3.548  0.1840 -0.4192  0.1004
10665TIP3    H153486   0.524   5.258   3.484  0.1855  1.5340  0.5044
10665TIP3    H253487   0.674   5.247   3.496  0.1019 -0.4910 -0.0324
10666TIP3   OH253488   3.628   3.204   4.706  0.1676 -0.5116  0.9188
10666TIP3    H153489   3.595   3.121   4.741 -1.7526  0.2180  0.9685
10666TIP3    H253490   3.680   3.242   4.777 -1.6395 -0.1952  2.1291
10667TIP3   OH253491   1.092   4.498  12.128  0.5742  0.2110  0.1597
10667TIP3    H153492   1.067   4.590  12.129  1.4406  0.4490 -0.1715
10667TIP3    H253493   1.041   4.460  12.056 -0.0723  0.3395  0.5397
10668TIP3   OH253494   0.103   1.798  11.493  0.3848 -0.3850  0.3055
10668TIP3    H153495   0.164   1.775  11.563  0.4918  0.4577  0.5050
10668TIP3    H253496   0.158   1.806  11.415  0.5166  0.2046  0.4508
10669TIP3   OH253497   5.319   0.679  11.862 -0.3780  0.3361  0.4100
10669TIP3    H153498   5.347   0.714  11.947 -0.3045  0.5552  0.2969
10669TIP3    H253499   5.300   0.587  11.879  2.9759 -0.5588 -0.0631
10670TIP3   OH253500   2.897   0.334   4.027  0.0897 -0.2807  0.7836
10670TIP3    H153501   2.824   0.390   4.053 -0.0026 -0.3088  0.5833
10670TIP3    H253502   2.974   0.374   4.069  0.0864  0.2328  0.3118
10671TIP3   OH253503   0.191   3.570   2.051  0.1429  0.4216  0.6900
10671TIP3    H153504   0.221   3.496   2.104  0.5619  0.5030  0.5720
10671TIP3    H253505   0.176   3.533   1.964 -0.7683  0.2399  0.9139
10672TIP3   OH253506   3.323   2.993   0.091 -0.3222 -0.1162  0.3441
10672TIP3    H153507   3.351   3.048   0.018  0.0991 -1.7067 -0.7600
10672TIP3    H253508   3.237   3.026   0.115 -0.8791 -0.1253 -1.5022
10673TIP3   OH253509   2.586   0.008   2.324  0.3484  0.2036 -0.1155
10673TIP3    H153510   2.575  -0.074   2.276  2.3368 -0.3445  0.3041
10673TIP3    H253511   2.588   0.075   2.256 -0.8339 -0.1011 -0.4927
10674TIP3   OH253512   4.244   0.407   0.640  0.6916  0.0846  0.2707
10674TIP3    H153513   4.329   0.373   0.612  0.2588 -1.4224  0.6853
10674TIP3    H253514   4.219   0.470   0.572  0.3126 -2.4139 -2.0568
10675TIP3   OH253515   6.080   4.853  12.161  0.1631 -0.2572  0.1650
10675TIP3    H153516   6.026   4.848  12.083  0.6610 -0.5559 -0.1709
10675TIP3    H253517   6.059   4.938  12.200 -1.1339 -0.7125  0.4922
10676TIP3   OH253518   6.503   5.709  13.971  0.6346  0.0158  0.5215
10676TIP3    H153519   6.578   5.726  13.913  0.7417  1.0010  0.9337
10676TIP3    H253520   6.441   5.778  13.950  1.2104  1.1941  2.4819
10677TIP3   OH253521   5.531   5.662   2.904 -0.2914 -0.1105  0.1656
10677TIP3    H153522   5.510   5.747   2.866  0.3716 -0.7047 -1.6179
10677TIP3    H253523   5.461   5.604   2.874  1.5624 -1.1823 -2.4915
10678TIP3   OH253524   4.174   5.223   2.564 -0.3365 -0.2028 -0.3187
10678TIP3    H153525   4.094   5.262   2.597 -1.0062 -0.4415 -1.5830
10678TIP3    H253526   4.147   5.174   2.486  1.3314  1.4387 -2.0583
10679TIP3   OH253527   3.935   5.427   4.856 -0.3082 -0.8163 -0.3541
10679TIP3    H153528   3.906   5.342   4.889 -2.3426  0.4775  1.4905
10679TIP3    H253529   3.981   5.467   4.930 -0.7054  0.2735 -0.6712
10680TIP3   OH253530   5.683   4.463  17.010  0.4002  0.0809 -0.3627
10680TIP3    H153531   5.742   4.495  16.943  1.1211  1.3509  0.8229
10680TIP3    H253532   5.597   4.460  16.968  0.9253  0.3736 -1.4668
10681TIP3   OH253533   5.127   0.718   2.029 -0.0237  0.1325  0.1451
10681TIP3    H153534   5.141   0.793   2.088 -0.4266 -0.4865  1.0437
10681TIP3    H253535   5.047   0.741   1.981 -0.4281  0.0596  0.7749
10682TIP3   OH253536   6.260   2.930   0.045 -0.0387  0.7203  0.1127
10682TIP3    H153537   6.271   2.998   0.112  0.0699 -0.5922  1.4792
10682TIP3    H253538   6.197   2.869   0.083  0.3845 -0.3034 -0.7813
10683TIP3   OH253539   1.390   3.420   2.325  0.7718 -0.5480  0.3632
10683TIP3    H153540   1.330   3.353   2.292 -0.4152 -0.3539  1.9744
10683TIP3    H253541   1.476   3.393   2.293 -0.2524 -0.0509 -3.2466
10684TIP3   OH253542   5.680   0.817  14.528 -0.1258 -0.6346 -0.0244
10684TIP3    H153543   5.596   0.779  14.556 -2.4341  4.0886  0.4977
10684TIP3    H253544   5.659   0.868  14.450  2.2287  0.7745  0.1591
10685TIP3   OH253545   6.569   2.003  12.716  0.4547  0.1601  0.1003
10685TIP3    H153546   6.630   2.008  12.789  1.7435  4.6233 -1.0237
10685TIP3    H253547   6.503   2.069  12.735  0.4057  0.8973 -2.3301
10686TIP3   OH253548   5.602   3.349  13.927 -0.1829  0.3893  0.2573
10686TIP3    H153549   5.592   3.280  13.862 -1.2791  1.7567 -1.1080
10686TIP3    H253550   5.695   3.372  13.923  0.3542 -1.3960  1.2295
10687TIP3   OH253551   4.246   1.738   3.742  0.1519 -0.3074 -0.1084
10687TIP3    H153552   4.318   1.799   3.754  0.0145 -0.3561  1.1506
10687TIP3    H253553   4.260   1.700   3.656  1.2561  0.1571 -0.1453
10688TIP3   OH253554   4.504   5.642   3.696  0.3021  0.4775  0.0518
10688TIP3    H153555   4.510   5.656   3.602 -0.2902  0.1788 -0.0375
10688TIP3    H253556   4.591   5.611   3.721  0.3974  0.3388 -0.4347
10689TIP3   OH253557   6.141   2.653   0.710  0.1773  0.5351 -0.3938
10689TIP3    H153558   6.108   2.743   0.705 -2.8044 -0.3598  1.0238
10689TIP3    H253559   6.064   2.598   0.694  1.4165 -1.7717  1.0008
10690TIP3   OH253560   6.292   1.017   0.469 -0.1547 -0.2667  0.1375
10690TIP3    H153561   6.315   1.087   0.529 -1.4674  1.0270 -0.7956
10690TIP3    H253562   6.309   1.053   0.382  0.0748 -1.4651 -0.3390
10691TIP3   OH253563   4.227   6.063   5.915 -0.4063  0.0742 -0.1010
10691TIP3    H153564   4.292   6.084   5.848 -1.3326  1.1482 -0.7082
10691TIP3    H253565   4.269   5.996   5.969  0.6811 -0.2155 -1.2527
10692TIP3   OH253566   4.379   4.066  15.562 -0.2696 -0.0716 -0.1595
10692TIP3    H153567   4.386   4.116  15.643  2.0905  0.8868 -0.8503
10692TIP3    H253568   4.470   4.049  15.537 -0.9546 -3.2674 -0.8930
10693TIP3   OH253569   2.938   6.081   5.429  0.6301 -0.4578 -0.3988
10693TIP3    H153570   3.009   6.027   5.462  0.7412  0.2728  0.5906
10693TIP3    H253571   2.904   6.127   5.506 -1.5247 -1.4558 -0.6743
10694TIP3   OH253572   4.914   3.940  11.993  0.5106 -0.5525  0.2476
10694TIP3    H153573   4.896   3.923  12.085 -1.2207  0.8259  0.2025
10694TIP3    H253574   4.989   3.884  11.973 -1.0025 -3.2947  1.6595
10695TIP3   OH253575   1.111   0.013  15.176 -0.0976  0.1990 -0.0349
10695TIP3    H153576   1.127  -0.048  15.247  1.5859  0.3356 -0.2685
10695TIP3    H253577   1.131   0.099  15.213 -1.2716  0.5148 -0.0732
10696TIP3   OH253578   5.836   1.060   0.422  0.0877  0.4899  0.1645
10696TIP3    H153579   5.904   1.108   0.375  1.3477 -2.5505 -1.3903
10696TIP3    H253580   5.880   1.027   0.501  0.3322 -0.9087 -0.5096
10697TIP3   OH253581   0.253   1.085  13.644 -0.0015 -0.3015 -0.6744
10697TIP3    H153582   0.218   1.149  13.707  0.5962  0.2479 -0.8867
10697TIP3    H253583   0.213   1.110  13.561 -2.2238 -2.1371 -0.2411
10698TIP3   OH253584   0.286   0.728  14.910  0.1362  0.1772 -0.6882
10698TIP3    H153585   0.351   0.781  14.865 -1.1295  0.1501 -2.6637
10698TIP3    H253586   0.256   0.665  14.844 -1.3619 -0.2897  0.3758
10699TIP3   OH253587   5.316   2.780   1.624 -0.0779  0.1268  0.2961
10699TIP3    H153588   5.261   2.812   1.695  1.0247  2.1098  0.3325
10699TIP3    H253589   5.405   2.804   1.651  0.3378  1.1779 -1.8588
10700TIP3   OH253590   1.921   1.689   2.462  0.2334  0.1355 -0.0610
10700TIP3    H153591   1.860   1.689   2.388 -0.8908 -0.2213  0.8348
10700TIP3    H253592   1.884   1.752   2.523  1.0186  0.2428  0.3082
10701TIP3   OH253593   1.570   1.193  13.232 -0.1536  0.0870 -0.5213
10701TIP3    H153594   1.499   1.139  13.264 -0.1076 -0.7606 -1.7893
10701TIP3    H253595   1.645   1.134  13.226  0.6547  0.9488  0.7274
10702TIP3   OH253596   4.965   3.192   4.681 -0.1953  0.3459 -0.0909
10702TIP3    H153597   4.880   3.148   4.676  0.0328 -0.0431 -0.5370
10702TIP3    H253598   5.026   3.132   4.639  0.4250  0.3293  0.8047
10703TIP3   OH253599   4.639   2.554  12.570 -0.3690 -0.7928 -0.0411
10703TIP3    H153600   4.581   2.486  12.605 -1.1732  0.2674  0.7263
10703TIP3    H253601   4.589   2.595  12.500 -1.1489  1.0414  1.5151
10704TIP3   OH253602   4.540   4.559   1.984 -0.8327 -0.1241 -0.6317
10704TIP3    H153603   4.613   4.589   1.930 -0.4607 -1.4409 -0.9139
10704TIP3    H253604   4.581   4.496   2.045 -1.0049  2.1651  2.0358
10705TIP3   OH253605   2.879   0.040  14.162  0.0159  0.3899  0.4474
10705TIP3    H153606   2.920   0.108  14.108 -0.5003  0.7825  0.5407
10705TIP3    H253607   2.920   0.049  14.247 -0.5549  1.0597  0.6566
10706TIP3   OH253608   1.853   5.062  16.300  0.1093 -0.2299  0.0537
10706TIP3    H153609   1.771   5.099  16.333  0.5301 -0.2245  1.1224
10706TIP3    H253610   1.838   5.051  16.206 -1.2765 -0.6129  0.2886
10707TIP3   OH253611   2.515   5.461   5.565 -0.8475 -0.3606 -0.0918
10707TIP3    H153612   2.486   5.383   5.518  0.8811 -1.1099 -0.0098
10707TIP3    H253613   2.483   5.448   5.654  1.6447 -2.3765  0.6251
10708TIP3   OH253614   3.031   5.398   1.880  0.5552  0.0217 -0.7254
10708TIP3    H153615   3.100   5.357   1.932  2.3264  1.0537 -2.1433
10708TIP3    H253616   2.960   5.334   1.881  1.6542 -1.2692  0.4827
10709TIP3   OH253617   3.229   1.729  15.182 -0.3714 -0.1916 -0.4677
10709TIP3    H153618   3.204   1.662  15.118  0.3777 -2.0725  1.1068
10709TIP3    H253619   3.193   1.697  15.265  0.4076  1.1464  0.4134
10710TIP3   OH253620   0.613   2.443  15.698 -0.1990  0.3988 -0.5952
10710TIP3    H153621   0.667   2.424  15.622 -0.4853  1.3519 -1.0529
10710TIP3    H253622   0.635   2.375  15.761  0.9950  0.3539 -1.0422
10711TIP3   OH253623   4.217   2.266  13.749 -0.3155  0.5336 -0.1079
10711TIP3    H153624   4.162   2.326  13.799  0.0745 -0.0084  0.9980
10711TIP3    H253625   4.271   2.323  13.693 -1.8759  1.0763 -1.1265
10712TIP3   OH253626   6.822   0.332  11.121 -0.0945  0.1989 -0.1759
10712TIP3    H153627   6.803   0.238  11.120  1.3625 -0.1304 -0.4445
10712TIP3    H253628   6.915   0.337  11.096 -0.5654  1.8143 -1.7885
10713TIP3   OH253629   5.919   2.359  10.382 -0.1884  0.0666 -0.1724
10713TIP3    H153630   5.952   2.273  10.355 -1.2066  0.1540 -1.8331
10713TIP3    H253631   5.989   2.419  10.357 -0.3336 -0.0725 -0.9530
10714TIP3   OH253632   4.958   2.615  11.966 -0.3758 -0.7660  0.3709
10714TIP3    H153633   4.963   2.545  12.030 -0.3539 -0.8844  0.2396
10714TIP3    H253634   4.920   2.574  11.888  0.1544 -0.7635  0.1088
10715TIP3   OH253635   2.142   1.613   5.783 -0.7784  0.2933 -0.7824
10715TIP3    H153636   2.121   1.521   5.793 -2.0756  0.8063  2.0468
10715TIP3    H253637   2.061   1.660   5.804  0.2189  2.1044 -0.7125
10716TIP3   OH253638   1.735   6.363   0.383  0.3966  0.4175  0.8253
10716TIP3    H153639   1.718   6.411   0.301 -0.7654 -1.4144 -0.0878
10716TIP3    H253640   1.659   6.383   0.438 -0.5540 -0.9421  0.0996
10717TIP3   OH253641   4.363   0.433   3.985  0.7334 -0.4426 -0.2286
10717TIP3    H153642   4.296   0.391   4.040  1.1343  0.8844  1.3720
10717TIP3    H253643   4.423   0.473   4.048  0.3031  2.6029 -1.5832
10718TIP3   OH253644   0.275   1.420  11.188  0.4408 -0.4920  0.1646
10718TIP3    H153645   0.197   1.382  11.147  1.0663 -0.3926 -1.1645
10718TIP3    H253646   0.258   1.414  11.282 -0.9010 -1.0278 -0.0916
10719TIP3   OH253647   1.127   3.927   1.835  0.3712 -0.6127  0.5363
10719TIP3    H153648   1.163   3.945   1.748 -1.1144 -0.4048 -0.0788
10719TIP3    H253649   1.118   4.013   1.876 -2.5313 -0.2103 -0.6646
10720TIP3   OH253650   4.738   3.249  16.798  0.1842 -0.2086  0.1686
10720TIP3    H153651   4.708   3.172  16.845 -0.8858 -0.8226 -1.4284
10720TIP3    H253652   4.826   3.226  16.767 -0.1588 -0.8361 -0.3619
10721TIP3   OH253653   2.066   2.877  16.766 -0.1147  0.1463  0.2201
10721TIP3    H153654   2.104   2.963  16.781  0.4829 -0.1405  0.3740
10721TIP3    H253655   2.139   2.816  16.780 -0.5849 -0.3949  0.3215
10722TIP3   OH253656   0.114   0.378   3.102 -0.6705 -0.1426  0.3114
10722TIP3    H153657   0.094   0.285   3.094  0.1430 -0.3396  0.4705
10722TIP3    H253658   0.209   0.381   3.117 -0.6249  0.7318 -0.1072
10723TIP3   OH253659   4.343   2.007   0.619  0.6943 -0.2889  0.4005
10723TIP3    H153660   4.312   2.009   0.528 -4.0929 -1.8659  1.7325
10723TIP3    H253661   4.378   2.095   0.633 -0.6305  0.8087 -2.3224
10724TIP3   OH253662   3.007   1.011  14.470 -0.3216 -0.2899  0.0337
10724TIP3    H153663   2.967   1.066  14.402 -0.5542 -0.3526  0.1197
10724TIP3    H253664   3.088   1.057  14.493  0.1720 -0.6859 -0.8688
10725TIP3   OH253665   1.818   5.623  12.676  0.5613  0.1586 -0.2330
10725TIP3    H153666   1.802   5.691  12.610  1.9254 -1.4606 -2.3625
10725TIP3    H253667   1.893   5.574  12.643  0.0658 -1.9954  1.5579
10726TIP3   OH253668   2.926   2.726  16.998  0.3446  0.2447  0.1112
10726TIP3    H153669   3.021   2.722  16.989  0.4799  1.6027  0.7778
10726TIP3    H253670   2.895   2.758  16.913  0.4859 -0.0471 -0.0533
10727TIP3   OH253671   5.614   2.552  13.104 -0.1814 -0.0445  0.1659
10727TIP3    H153672   5.635   2.621  13.041  1.7470  1.6410  2.4494
10727TIP3    H253673   5.600   2.474  13.051 -0.2095  1.5940 -2.3998
10728TIP3   OH253674   3.000   4.110   1.245  0.2082 -0.2783  0.0347
10728TIP3    H153675   3.067   4.103   1.177 -1.7047 -0.9016 -1.9080
10728TIP3    H253676   2.998   4.204   1.267  0.2902  0.0890 -1.4204
10729TIP3   OH253677   5.742   0.109  15.079 -0.6020 -0.1247 -0.5709
10729TIP3    H153678   5.775   0.025  15.112 -0.4436 -0.0163 -0.4499
10729TIP3    H253679   5.797   0.129  15.004  0.6474  0.8078  0.5436
10730TIP3   OH253680   4.480   5.220   5.154  0.1681  0.9914 -0.5266
10730TIP3    H153681   4.565   5.265   5.155  1.6237 -1.5664 -0.9140
10730TIP3    H253682   4.466   5.199   5.062  1.2839 -2.2448 -0.0867
10731TIP3   OH253683   5.023   6.058   2.561  0.0318 -0.6365 -0.1805
10731TIP3    H153684   4.998   6.032   2.473  0.6006  0.2257 -0.6056
10731TIP3    H253685   5.012   6.154   2.562 -3.0044 -0.8436  1.6254
10732TIP3   OH253686   5.101   0.188   3.725 -0.6558  0.0592  0.1137
10732TIP3    H153687   5.058   0.112   3.765 -0.8919 -0.1943 -0.6242
10732TIP3    H253688   5.030   0.250   3.709 -0.2067  1.4394  2.8397
10733TIP3   OH253689   3.247   6.355   4.856 -0.3348  0.5246 -0.9460
10733TIP3    H153690   3.210   6.331   4.771 -0.8240  1.4138 -0.9936
10733TIP3    H253691   3.208   6.440   4.876  1.1128  1.1476 -0.6446
10734TIP3   OH253692   1.466   4.169  12.419  0.0660 -0.0647 -1.0758
10734TIP3    H153693   1.550   4.209  12.437 -0.2577  1.0052 -1.8428
10734TIP3    H253694   1.406   4.242  12.406 -1.1979 -0.7913  0.3107
10735TIP3   OH253695   4.141   4.116  11.791  0.0987  0.8282 -0.3836
10735TIP3    H153696   4.072   4.118  11.858 -0.1217 -0.3183 -0.5635
10735TIP3    H253697   4.213   4.165  11.831 -0.9766  2.5078 -0.3997
10736TIP3   OH253698   3.936   3.843  13.514  0.6695  0.2659  0.1579
10736TIP3    H153699   4.023   3.826  13.479  1.9696  2.3539  2.1092
10736TIP3    H253700   3.877   3.817  13.444  2.7407 -2.3660 -0.7979
10737TIP3   OH253701   5.674   6.009   4.982 -0.2013  0.4189  0.3107
10737TIP3    H153702   5.652   5.959   4.903 -0.6699 -1.0049  1.3139
10737TIP3    H253703   5.616   6.085   4.979 -0.4913  0.1774 -0.5121
10738TIP3   OH253704   2.475   4.234   3.577  0.4411 -0.0431 -0.3908
10738TIP3    H153705   2.382   4.238   3.599  0.7682 -0.7152  1.2466
10738TIP3    H253706   2.481   4.163   3.513  0.0294 -1.1342  0.7390
10739TIP3   OH253707   2.090   4.264   4.183  0.4743  0.3724 -0.5894
10739TIP3    H153708   2.045   4.182   4.164 -0.9155  0.7267  0.8986
10739TIP3    H253709   2.019   4.328   4.194  1.5652  2.2892 -3.6481
10740TIP3   OH253710   0.050   4.544   4.241  0.3271  0.0703 -0.0935
10740TIP3    H153711  -0.012   4.498   4.186  1.7366 -1.6189 -0.3543
10740TIP3    H253712   0.078   4.619   4.188 -1.2782  0.7266 -0.0484
10741TIP3   OH253713   4.920   0.547   5.788  0.3191  0.2822  0.0277
10741TIP3    H153714   5.000   0.581   5.750  0.5748  0.5968  0.8260
10741TIP3    H253715   4.885   0.619   5.841  0.8447 -0.6338  1.7027
10742TIP3   OH253716   3.951   0.107   6.606 -0.3061  0.4403 -0.1559
10742TIP3    H153717   3.960   0.016   6.579  0.9327  0.6046 -0.3582
10742TIP3    H253718   3.886   0.144   6.547  1.0174  0.3215 -1.7487
10743TIP3   OH253719   1.441   2.328   1.446 -0.1006  0.3961 -0.1206
10743TIP3    H153720   1.388   2.249   1.459 -1.9155  1.5735 -0.0777
10743TIP3    H253721   1.495   2.334   1.525 -0.8333 -0.1460  0.4372
10744TIP3   OH253722   2.959   3.932  14.114  0.3490  0.3549 -0.5922
10744TIP3    H153723   3.026   3.997  14.091  1.2694  0.8603  2.9555
10744TIP3    H253724   3.008   3.858  14.149 -0.8454  0.4811  1.5070
10745TIP3   OH253725   6.364   0.009   1.457 -0.1240  0.4934  0.2572
10745TIP3    H153726   6.334  -0.016   1.370  0.3222  2.0500 -0.3798
10745TIP3    H253727   6.388   0.101   1.448  1.6004  0.2161  1.5944
10746TIP3   OH253728   3.802   4.744  12.013  0.0594 -0.4385  0.2992
10746TIP3    H153729   3.760   4.697  12.085  2.8797 -0.9600  1.7449
10746TIP3    H253730   3.808   4.834  12.043 -0.8460 -0.1681 -0.3116
10747TIP3   OH253731   2.916   2.429   3.097  0.4234 -0.1676 -0.2512
10747TIP3    H153732   2.993   2.418   3.153  1.5551  1.3697 -1.4202
10747TIP3    H253733   2.938   2.503   3.040 -1.4814 -0.4046 -1.3771
10748TIP3   OH253734   2.882   0.576  11.708 -0.3169  0.7976  0.6429
10748TIP3    H153735   2.830   0.649  11.674  0.6900  1.2105 -0.0395
10748TIP3    H253736   2.946   0.617  11.765  0.7208  0.5366 -0.3077
10749TIP3   OH253737   4.126   2.787   1.061  0.2548 -0.0926 -0.1791
10749TIP3    H153738   4.120   2.829   1.147  0.4675  1.3700 -0.8460
10749TIP3    H253739   4.036   2.763   1.040  0.1584 -0.1807  0.3141
10750TIP3   OH253740   5.387   5.659  10.809 -0.2743 -0.1549  0.1100
10750TIP3    H153741   5.410   5.582  10.758  0.7794 -0.8966  1.6049
10750TIP3    H253742   5.469   5.708  10.817 -0.8598  0.9595 -0.5360
10751TIP3   OH253743   6.260   2.406   1.105 -0.2010  0.1708  0.2214
10751TIP3    H153744   6.187   2.354   1.072  1.2053 -0.6268 -1.8030
10751TIP3    H253745   6.295   2.451   1.028  3.1292 -1.6366  0.5293
10752TIP3   OH253746   2.807   1.373   3.591  0.4874  0.3073 -0.3537
10752TIP3    H153747   2.717   1.340   3.588 -0.6460  3.1895 -1.3790
10752TIP3    H253748   2.814   1.419   3.674  1.2257 -0.3406 -0.0410
10753TIP3   OH253749   3.397   5.223   2.892  0.0857  0.9579 -0.0266
10753TIP3    H153750   3.310   5.206   2.928  0.8053  1.3004  1.9844
10753TIP3    H253751   3.408   5.318   2.900  0.0358  1.1608 -1.8302
10754TIP3   OH253752   3.768   3.302   4.919  0.1442 -0.5092  0.3109
10754TIP3    H153753   3.716   3.368   4.964 -0.0334 -0.5382  0.1504
10754TIP3    H253754   3.815   3.257   4.989  1.2392  0.6081  0.3237
10755TIP3   OH253755   1.109   2.979   4.910 -0.9309 -0.4445  0.2894
10755TIP3    H153756   1.165   2.905   4.934  0.5887 -0.5999 -3.2063
10755TIP3    H253757   1.153   3.056   4.947 -0.3380 -0.8959  0.5383
10756TIP3   OH253758   6.411   2.427   4.103 -0.7890 -0.4624  0.4794
10756TIP3    H153759   6.415   2.514   4.142 -1.4362 -1.0797  1.9736
10756TIP3    H253760   6.352   2.437   4.028 -1.9281  0.1080  1.4214
10757TIP3   OH253761   2.493   0.229   6.755 -0.2734 -0.0528 -0.7410
10757TIP3    H153762   2.587   0.221   6.743 -0.2750  0.4660 -1.1129
10757TIP3    H253763   2.458   0.143   6.731  0.1406 -0.3940 -0.1588
10758TIP3   OH253764   6.387   1.633   1.840 -0.7683  0.4931 -0.0648
10758TIP3    H153765   6.295   1.608   1.845 -0.8694  0.9138  0.2487
10758TIP3    H253766   6.387   1.714   1.788 -0.5729  0.4739 -0.0945
10759TIP3   OH253767   5.766   2.286   5.329 -0.3151 -0.6155  0.0355
10759TIP3    H153768   5.691   2.344   5.314 -2.5218 -3.0668  0.8200
10759TIP3    H253769   5.804   2.273   5.243  0.8557  2.6106 -0.0594
10760TIP3   OH253770   2.843   1.336  13.138  0.2243  0.0515  0.3292
10760TIP3    H153771   2.899   1.405  13.174 -1.0754  0.1692  2.2383
10760TIP3    H253772   2.869   1.257  13.185  0.0044 -0.2758 -0.0856
10761TIP3   OH253773   5.428   1.890  11.767  0.3427 -0.0784  0.6902
10761TIP3    H153774   5.369   1.965  11.772  0.5917  0.0522  1.7637
10761TIP3    H253775   5.369   1.814  11.764  0.0820 -0.0146  2.8407
10762TIP3   OH253776   5.488   1.334   5.576 -0.2456  0.1117 -0.7602
10762TIP3    H153777   5.566   1.363   5.624  0.2578 -0.0668 -1.4490
10762TIP3    H253778   5.477   1.242   5.602 -0.5329  0.2748 -0.2798
10763TIP3   OH253779   0.770   5.368   2.741  0.6674 -0.1901 -0.5261
10763TIP3    H153780   0.746   5.416   2.662  0.3018 -0.1124 -0.3723
10763TIP3    H253781   0.821   5.294   2.710 -0.0578 -0.5443 -0.8947
10764TIP3   OH253782   1.491   4.694  14.815 -0.0985 -0.0163 -0.0909
10764TIP3    H153783   1.476   4.789  14.813 -0.5057 -0.0748  0.1191
10764TIP3    H253784   1.565   4.683  14.875 -0.7626  0.0817  0.7608
10765TIP3   OH253785   6.680   6.173   5.450 -0.2993  0.2888 -0.1052
10765TIP3    H153786   6.700   6.150   5.359 -0.3276 -1.5196  0.3041
10765TIP3    H253787   6.599   6.224   5.444 -0.5406 -0.1799 -1.0769
10766TIP3   OH253788   1.273   0.219   4.072  0.4615  0.4160 -0.2985
10766TIP3    H153789   1.296   0.220   3.979  0.6176  0.0267 -0.2627
10766TIP3    H253790   1.254   0.127   4.091  1.3082  0.3576  0.2729
10767TIP3   OH253791   3.467   3.992  12.768  0.2804 -0.3193 -0.0428
10767TIP3    H153792   3.473   4.014  12.674  3.0320 -1.5547 -0.2740
10767TIP3    H253793   3.495   3.900  12.772  2.6572  0.3825  2.1468
10768TIP3   OH253794   3.391   5.906  13.963  0.2370 -0.1380 -0.4842
10768TIP3    H153795   3.304   5.932  13.990  0.2192 -1.0989  0.4711
10768TIP3    H253796   3.447   5.979  13.989 -0.2292  0.3129 -0.7413
10769TIP3   OH253797   3.167   3.311   2.639 -0.2011  0.4552  0.1745
10769TIP3    H153798   3.205   3.233   2.680 -0.9953  0.6471  1.3323
10769TIP3    H253799   3.186   3.382   2.701 -2.2674  0.5815  0.7149
10770TIP3   OH253800   1.818   0.889  15.322  0.0104 -0.1686 -0.2031
10770TIP3    H153801   1.801   0.918  15.232  0.7356 -2.1528 -1.0392
10770TIP3    H253802   1.781   0.801  15.326  0.0039 -0.1167  1.4619
10771TIP3   OH253803   6.146   2.126  11.375 -0.1541 -0.6036  0.0434
10771TIP3    H153804   6.233   2.109  11.411  0.0284  2.2104  1.2096
10771TIP3    H253805   6.086   2.114  11.448 -0.2942  0.8744  0.2054
10772TIP3   OH253806   5.610   5.407  16.746  0.1176 -0.1814 -0.4921
10772TIP3    H153807   5.617   5.459  16.826  2.4723  0.7485 -1.2235
10772TIP3    H253808   5.516   5.405  16.727 -0.1967  6.1645 -1.8431
10773TIP3   OH253809   5.832   6.011  11.135  0.0559 -0.2101  0.2428
10773TIP3    H153810   5.820   6.088  11.080  0.5651  0.3382  0.8940
10773TIP3    H253811   5.833   5.938  11.073  1.5027  0.4700 -0.5874
10774TIP3   OH253812   0.085   6.219  13.827 -0.5998 -0.3511 -0.7964
10774TIP3    H153813   0.084   6.315  13.828 -2.8741 -0.2982  0.5951
10774TIP3    H253814   0.025   6.194  13.897  0.3846 -2.8295 -0.7250
10775TIP3   OH253815   4.486   1.099  10.940  0.0597 -0.4073 -0.0071
10775TIP3    H153816   4.523   1.053  10.865  0.1195 -0.9858  0.3748
10775TIP3    H253817   4.392   1.085  10.934 -0.2185  1.5801 -1.3262
10776TIP3   OH253818   0.699   4.298   5.318  0.2442 -0.0916 -0.3511
10776TIP3    H153819   0.702   4.372   5.379 -2.5574 -1.2935  1.4312
10776TIP3    H253820   0.759   4.233   5.356  1.0896  0.4324 -0.7656
10777TIP3   OH253821   0.893   3.278  11.453 -0.6245  0.2771  0.2198
10777TIP3    H153822   0.980   3.290  11.415 -1.1485  0.3706 -0.9888
10777TIP3    H253823   0.849   3.216  11.395 -1.0933 -0.4368  1.2914
10778TIP3   OH253824   0.280   2.787   0.227 -0.1984  0.2091 -0.9689
10778TIP3    H153825   0.302   2.862   0.173 -0.4859 -0.0009 -1.3819
10778TIP3    H253826   0.291   2.711   0.169 -3.4265  0.1635 -1.7149
10779TIP3   OH253827   6.592   5.625  15.731 -0.3064 -0.8427  0.0288
10779TIP3    H153828   6.521   5.626  15.796  0.0867  0.2831  0.4736
10779TIP3    H253829   6.574   5.700  15.675  0.6384 -0.4224  0.2708
10780TIP3   OH253830   3.910   0.704  15.293 -0.2537  0.3690  0.2456
10780TIP3    H153831   3.878   0.793  15.277  0.2533  0.1998 -2.2468
10780TIP3    H253832   3.833   0.648  15.285 -0.2760  0.4458 -0.1117
10781TIP3   OH253833   6.423   6.096  13.411  0.4773 -0.6417 -0.2041
10781TIP3    H153834   6.328   6.097  13.427  0.2422  2.7193 -1.0564
10781TIP3    H253835   6.431   6.083  13.317  0.7823  0.1078 -0.2874
10782TIP3   OH253836   5.805   6.673   1.156 -0.0323 -0.0322  0.1375
10782TIP3    H153837   5.754   6.667   1.237  1.2978  0.4929  1.0478
10782TIP3    H253838   5.752   6.628   1.091 -0.6232 -1.4672  1.5472
10783TIP3   OH253839   2.165   0.864  16.279 -0.0768 -0.0322  0.0288
10783TIP3    H153840   2.101   0.839  16.212 -0.5107 -1.6459  0.9632
10783TIP3    H253841   2.244   0.816  16.256  0.1985  0.4812 -0.0871
10784TIP3   OH253842   5.098   5.047   1.815  0.1432 -0.3756  0.1029
10784TIP3    H153843   5.069   5.071   1.903  0.6749  0.4768  0.0644
10784TIP3    H253844   5.194   5.050   1.821  0.1780 -0.2805 -0.5099
10785TIP3   OH253845   2.732   3.588   0.855  0.5724 -0.5131 -0.0219
10785TIP3    H153846   2.809   3.567   0.801 -0.8619 -0.8702 -2.0531
10785TIP3    H253847   2.701   3.502   0.885  0.5394 -0.4326  0.1719
10786TIP3   OH253848   6.554   3.916  13.440  0.6683 -0.2528  0.0463
10786TIP3    H153849   6.605   3.841  13.470 -1.2828 -1.5403  0.2834
10786TIP3    H253850   6.538   3.967  13.519  1.5802  0.1858 -0.0366
10787TIP3   OH253851   5.693   1.176  16.923  0.3832 -0.1917  0.1332
10787TIP3    H153852   5.653   1.208  17.003 -0.9100  0.6407 -0.8006
10787TIP3    H253853   5.681   1.081  16.926  1.7811 -0.3689  1.6320
10788TIP3   OH253854   0.342   1.242   5.448  0.2277 -0.5964  0.3016
10788TIP3    H153855   0.262   1.191   5.432  0.9896 -2.4684  2.0138
10788TIP3    H253856   0.396   1.185   5.503  2.8814  0.5096 -1.0185
10789TIP3   OH253857   3.777   4.620  13.559  0.0093 -0.5581  0.5360
10789TIP3    H153858   3.696   4.617  13.609  0.4740 -0.0465  1.3449
10789TIP3    H253859   3.751   4.604  13.469 -1.1351  0.7117  0.6193
10790TIP3   OH253860   4.199   3.057  13.081 -0.0567  0.2793 -0.8312
10790TIP3    H153861   4.268   3.119  13.057 -0.7814  1.7354  0.6813
10790TIP3    H253862   4.119   3.095  13.045 -0.5196  0.3063  0.1769
10791TIP3   OH253863   1.732   5.484   3.993 -0.6206 -0.1530 -0.6180
10791TIP3    H153864   1.826   5.478   4.008 -0.5081  1.0177 -0.7577
10791TIP3    H253865   1.718   5.437   3.911 -0.0418  0.2627 -0.9669
10792TIP3   OH253866   4.894   2.790  12.888  0.1437 -0.1135 -0.1184
10792TIP3    H153867   4.941   2.709  12.907  0.6081  0.2924  0.5048
10792TIP3    H253868   4.896   2.797  12.793 -0.6397 -1.2656 -0.2328
10793TIP3   OH253869   3.622   6.823  10.440 -0.2683 -0.2096  0.2440
10793TIP3    H153870   3.653   6.803  10.529 -1.0180  0.2275  0.6186
10793TIP3    H253871   3.619   6.738  10.396  0.7314 -0.3510  0.4217
10794TIP3   OH253872   3.105   1.746   1.909 -0.2380  0.2761  0.1671
10794TIP3    H153873   3.137   1.721   1.995  0.7282 -0.7948 -0.4614
10794TIP3    H253874   3.156   1.824   1.886  1.8049 -1.2102 -0.6772
10795TIP3   OH253875   1.989   1.040   0.139 -0.3907  0.1145 -0.6069
10795TIP3    H153876   2.081   1.035   0.165 -0.5634  2.1492  0.5927
10795TIP3    H253877   1.991   1.069   0.048  0.1722  1.1915 -0.2726
10796TIP3   OH253878   6.076   5.296   4.379  0.2171  1.0630  0.0616
10796TIP3    H153879   6.068   5.203   4.400 -2.1024  1.1803 -0.0169
10796TIP3    H253880   6.165   5.305   4.343  0.2958 -1.2259 -0.4944
10797TIP3   OH253881   5.914   3.185  13.779 -0.2537  0.9947 -0.2435
10797TIP3    H153882   5.823   3.166  13.756 -0.2347 -0.7106  0.9139
10797TIP3    H253883   5.963   3.167  13.699 -0.4787 -2.4209  0.2081
10798TIP3   OH253884   4.825   0.413  14.821 -0.4376 -0.2448  0.9517
10798TIP3    H153885   4.779   0.330  14.815 -0.4457 -0.2553  1.1504
10798TIP3    H253886   4.809   0.443  14.911 -1.2633  0.4432  0.5958
10799TIP3   OH253887   3.205   4.465   2.678  0.1060  0.0530 -0.1195
10799TIP3    H153888   3.225   4.554   2.709 -1.3378  0.2476  0.3155
10799TIP3    H253889   3.131   4.476   2.619 -1.1166 -1.0042  1.1436
10800TIP3   OH253890   4.854   2.574   4.089  0.2199 -0.1207  0.2687
10800TIP3    H153891   4.861   2.504   4.023  2.1767 -0.0653  0.3421
10800TIP3    H253892   4.939   2.572   4.134  0.5463  2.6659 -0.0907
10801TIP3   OH253893   4.590   4.923  13.887  0.5425 -0.6807  0.3723
10801TIP3    H153894   4.653   4.995  13.889 -1.3306  1.0268  0.8909
10801TIP3    H253895   4.571   4.904  13.979 -1.0098  0.0838  0.2465
10802TIP3   OH253896   4.897   1.547   2.033 -0.4225  0.0431 -0.3214
10802TIP3    H153897   4.861   1.631   2.061 -0.7758  0.5965 -2.3133
10802TIP3    H253898   4.966   1.569   1.971  0.1770 -1.1393 -0.1166
10803TIP3   OH253899   3.079   4.255   5.374 -0.0724  0.3812 -0.4142
10803TIP3    H153900   3.052   4.342   5.404  0.3781  0.2638  0.3603
10803TIP3    H253901   3.119   4.215   5.451  3.9473  1.2258 -1.8047
10804TIP3   OH253902   0.336   5.429  11.598 -0.0794  0.4497 -0.5039
10804TIP3    H153903   0.372   5.448  11.684  1.9312  1.9001 -1.5825
10804TIP3    H253904   0.390   5.357  11.564 -1.1472 -0.4240 -0.4197
10805TIP3   OH253905   1.600   0.812   1.290  0.1430 -0.3290  0.1822
10805TIP3    H153906   1.514   0.854   1.302  0.4224  0.3473 -0.0981
10805TIP3    H253907   1.593   0.730   1.338 -0.6651 -0.2874  0.1641
10806TIP3   OH253908   4.916   2.077   2.425 -0.3561 -0.3800 -0.0561
10806TIP3    H153909   4.895   2.161   2.384  0.7935  1.3911  2.6254
10806TIP3    H253910   4.833   2.047   2.462 -1.1769 -1.4796 -2.5887
10807TIP3   OH253911   2.097   4.515   3.815 -0.4960  0.1048 -0.2053
10807TIP3    H153912   2.157   4.537   3.886 -2.1539 -0.1607  1.3531
10807TIP3    H253913   2.152   4.472   3.749  1.0799  0.2710  0.9510
10808TIP3   OH253914   1.286   2.779   4.944 -0.1996 -0.1656  0.1299
10808TIP3    H153915   1.291   2.684   4.950  0.1481 -0.1185  0.7334
10808TIP3    H253916   1.375   2.807   4.924 -0.6674 -0.0695 -2.1101
10809TIP3   OH253917   0.445   3.117   0.765 -0.0154 -0.0476  0.0837
10809TIP3    H153918   0.372   3.137   0.707  1.6380  1.1569 -1.7199
10809TIP3    H253919   0.474   3.203   0.798  1.4898 -0.3192 -0.4430
10810TIP3   OH253920   5.562   5.092   2.325 -0.5187  0.0798 -0.3522
10810TIP3    H153921   5.594   5.073   2.237 -1.1890 -0.7374 -0.4275
10810TIP3    H253922   5.632   5.062   2.383  0.1451  1.0881 -0.6113
10811TIP3   OH253923   4.738   0.968   1.488 -0.4497  0.0874 -0.0262
10811TIP3    H153924   4.672   0.930   1.430 -0.1983  1.0863 -0.9935
10811TIP3    H253925   4.687   1.007   1.559 -0.9018  0.6220 -0.6273
10812TIP3   OH253926   1.289   3.654  14.045  0.3054  0.0798  0.7876
10812TIP3    H153927   1.375   3.665  14.006 -0.0770 -0.6842 -0.3208
10812TIP3    H253928   1.304   3.662  14.139  1.5540  0.0877  0.6013
10813TIP3   OH253929   5.823   1.426   0.951  0.3450 -0.9726 -0.2581
10813TIP3    H153930   5.757   1.427   0.882  1.6410 -0.3891 -1.5280
10813TIP3    H253931   5.834   1.333   0.971  0.1486 -1.1643 -1.0187
10814TIP3   OH253932   4.644   3.441   0.712 -0.3783  0.1031  0.2407
10814TIP3    H153933   4.553   3.451   0.683 -0.9832 -0.4189  1.8451
10814TIP3    H253934   4.695   3.444   0.631 -1.5978  2.5711 -0.5396
10815TIP3   OH253935   0.290   5.544   1.362 -0.4219  0.7848  0.1268
10815TIP3    H153936   0.355   5.536   1.293 -0.8448 -1.8463 -0.0689
10815TIP3    H253937   0.272   5.637   1.368  1.3553  1.2998 -1.6695
10816TIP3   OH253938   5.757   4.513   0.208 -0.2854  0.4175 -0.4944
10816TIP3    H153939   5.758   4.597   0.163 -1.8505 -0.7323 -2.9184
10816TIP3    H253940   5.847   4.482   0.203  0.4080  2.0759  0.8181
10817TIP3   OH253941   2.722   2.654   0.336  0.0218  0.2068  0.0786
10817TIP3    H153942   2.702   2.667   0.429  0.8696 -0.0175  0.3018
10817TIP3    H253943   2.818   2.645   0.333 -0.1132 -1.2001 -0.6363
10818TIP3   OH253944   0.224   4.078   5.728  0.3376 -0.4330  0.1158
10818TIP3    H153945   0.282   4.134   5.780 -0.3367  0.6732 -0.2925
10818TIP3    H253946   0.284   4.025   5.675  1.0117 -0.9177  1.3125
10819TIP3   OH253947   0.531   4.074   3.032 -0.5413  0.0927  0.0659
10819TIP3    H153948   0.506   4.114   2.949 -1.5917  1.0481  0.8158
10819TIP3    H253949   0.608   4.123   3.061 -0.1050 -0.3163 -0.3821
10820TIP3   OH253950   1.801   5.626  13.164  0.0251  0.0222  0.3235
10820TIP3    H153951   1.810   5.542  13.120  0.3820 -1.6002  3.1981
10820TIP3    H253952   1.837   5.690  13.103  1.2605 -2.1196 -1.3315
10821TIP3   OH253953   3.563   2.405   3.206 -0.1418 -0.1640  0.0369
10821TIP3    H153954   3.566   2.378   3.114 -1.4154 -0.7539  0.1484
10821TIP3    H253955   3.580   2.324   3.255  0.4777  0.1384  0.3393
10822TIP3   OH253956   6.455   2.718   5.465  0.6194 -0.5110  0.3625
10822TIP3    H153957   6.395   2.792   5.466  0.2297 -0.7567 -1.1597
10822TIP3    H253958   6.420   2.657   5.530 -1.4230 -1.0892 -1.1721
10823TIP3   OH253959   5.332   1.494  13.169  0.3750  0.2806 -0.7621
10823TIP3    H153960   5.247   1.506  13.211  0.1055 -0.2692 -1.1433
10823TIP3    H253961   5.391   1.471  13.240  0.5178  1.9899 -0.2792
10824TIP3   OH253962   0.498   4.594  13.429 -0.4112 -0.0732  0.5712
10824TIP3    H153963   0.457   4.507  13.425 -1.2229  0.2998  0.6804
10824TIP3    H253964   0.530   4.610  13.340 -0.6728 -0.2864  0.4374
10825TIP3   OH253965   6.025   5.808   4.413  0.4549  0.1253 -0.3490
10825TIP3    H153966   6.028   5.736   4.476 -0.8503  1.5973  1.4861
10825TIP3    H253967   5.935   5.808   4.380  0.5950  0.5698 -0.7455
10826TIP3   OH253968   1.550   4.778   0.758  0.0419  0.2260 -0.3701
10826TIP3    H153969   1.626   4.836   0.762 -0.2835  0.6091  0.6352
10826TIP3    H253970   1.519   4.774   0.848 -0.1498 -1.2474 -0.4737
10827TIP3   OH253971   3.456   5.843  10.889  0.0501 -0.1289  0.4959
10827TIP3    H153972   3.410   5.761  10.873  0.7690 -0.1956 -1.6440
10827TIP3    H253973   3.483   5.839  10.981 -2.3214 -1.0096  1.2151
10828TIP3   OH253974   5.355   6.071   0.957  0.3051 -0.2852  0.2547
10828TIP3    H153975   5.428   6.040   1.010 -0.4046  0.7128  1.8793
10828TIP3    H253976   5.363   6.166   0.958  1.2647 -0.2335 -2.9405
10829TIP3   OH253977   6.139   6.715  14.868  0.5581 -0.1731 -0.0884
10829TIP3    H153978   6.086   6.641  14.897 -0.2780  1.1037  1.8253
10829TIP3    H253979   6.089   6.753  14.796  0.3352 -0.6686 -0.2013
10830TIP3   OH253980   2.565   3.688  12.591 -0.4148  0.4410 -0.0029
10830TIP3    H153981   2.530   3.735  12.515  1.3369  1.3510 -0.3029
10830TIP3    H253982   2.606   3.756  12.645  0.6441 -0.5110  0.4341
10831TIP3   OH253983   2.394   6.363  12.306  0.0361 -0.4168  0.3544
10831TIP3    H153984   2.329   6.300  12.337  1.2975 -0.7825  2.4148
10831TIP3    H253985   2.443   6.387  12.384  0.0268  2.6775 -0.4805
10832TIP3   OH253986   2.320   3.300   2.752  0.6729  0.4164  0.3914
10832TIP3    H153987   2.250   3.357   2.718  0.4456 -0.9050 -1.5359
10832TIP3    H253988   2.361   3.264   2.673  2.6181  0.0486  1.5188
10833TIP3   OH253989   4.876   6.613  12.098 -0.2064  0.0673  0.0658
10833TIP3    H153990   4.809   6.614  12.166 -0.3105 -0.5189 -0.0250
10833TIP3    H253991   4.855   6.536  12.044 -1.1931  1.5205 -1.7224
10834TIP3   OH253992   0.918   3.423   1.352 -0.2580  0.4599  0.3291
10834TIP3    H153993   0.912   3.331   1.379 -1.6469  0.9615  1.9455
10834TIP3    H253994   0.938   3.470   1.433  0.9869  1.5581 -0.5818
10835TIP3   OH253995   4.865   5.465   5.701  0.3652  0.5814 -0.0123
10835TIP3    H153996   4.959   5.479   5.696  1.0783 -3.1589 -0.0240
10835TIP3    H253997   4.828   5.527   5.638  2.7376  2.2602  0.1194
10836TIP3   OH253998   2.938   5.069  10.969 -0.0953 -0.1846 -0.2024
10836TIP3    H153999   2.950   5.025  10.885 -0.2524 -0.7579  0.0728
10836TIP3    H254000   2.864   5.025  11.010 -0.6258  0.7218 -0.1694
10837TIP3   OH254001   4.813   6.511  11.757  0.4077  0.0862 -0.0229
10837TIP3    H154002   4.906   6.523  11.775  0.5482  1.7507 -1.5311
10837TIP3    H254003   4.773   6.594  11.784 -0.5120 -0.3158 -0.1106
10838TIP3   OH254004   5.349   2.218  13.610 -0.3097  0.4750  0.3063
10838TIP3    H154005   5.341   2.272  13.532 -0.0899  0.5023  0.3037
10838TIP3    H254006   5.272   2.241  13.663 -0.0030  1.0860  0.4890
10839TIP3   OH254007   1.281   6.665  12.907 -0.5492 -0.3229 -0.6595
10839TIP3    H154008   1.357   6.685  12.962  0.7945  2.1000 -3.1152
10839TIP3    H254009   1.302   6.580  12.867  1.0925  0.4270 -1.4992
10840TIP3   OH254010   0.526   4.203   1.143  0.2866 -0.4617 -0.3964
10840TIP3    H154011   0.528   4.112   1.112 -0.3378 -0.6903  0.2224
10840TIP3    H254012   0.594   4.247   1.092  0.9981 -1.4122 -0.2831
10841TIP3   OH254013   2.182   1.875   4.695  0.4311  0.6740 -0.2750
10841TIP3    H154014   2.276   1.872   4.680  0.4622 -1.1939  0.0687
10841TIP3    H254015   2.145   1.823   4.623 -0.1472 -0.5133  0.8566
10842TIP3   OH254016   6.739   5.409  13.794  0.6044  0.1813 -0.0497
10842TIP3    H154017   6.691   5.371  13.721 -0.0053 -1.5721  1.1992
10842TIP3    H254018   6.691   5.489  13.815 -2.0711 -1.6147  1.2976
10843TIP3   OH254019   3.496   3.032   1.962  0.1894  0.2911 -0.2815
10843TIP3    H154020   3.571   3.052   2.017 -0.0320  0.6524 -0.1061
10843TIP3    H254021   3.531   3.028   1.873  0.3183  1.0601 -0.2745
10844TIP3   OH254022   1.932   4.464   2.733  0.0012  0.2448 -0.0070
10844TIP3    H154023   1.920   4.396   2.667 -0.7297  2.0452 -1.8616
10844TIP3    H254024   2.014   4.507   2.708  1.8565 -1.4755  2.6717
10845TIP3   OH254025   2.817   1.609  15.410 -0.1712 -0.2498  0.3507
10845TIP3    H154026   2.853   1.625  15.497 -1.4415 -0.6351  0.9784
10845TIP3    H254027   2.868   1.665  15.352  0.5047  0.2406  1.3807
10846TIP3   OH254028   6.391   3.970   4.059 -0.3370  0.0463 -0.3085
10846TIP3    H154029   6.408   3.914   4.135 -1.4578 -0.0421 -0.1115
10846TIP3    H254030   6.350   4.048   4.095  0.4771  0.6593 -0.6776
10847TIP3   OH254031   6.113   2.809  13.511  0.4662 -0.0490  0.4640
10847TIP3    H154032   6.072   2.895  13.521  0.5676  0.1792 -0.8039
10847TIP3    H254033   6.206   2.828  13.501  0.6790 -0.4319  1.6301
10848TIP3   OH254034   2.882   6.444  11.501  0.0470 -0.1187 -0.2546
10848TIP3    H154035   2.804   6.491  11.528 -0.1838  0.3564 -1.6620
10848TIP3    H254036   2.955   6.497  11.534 -0.2097 -0.1387  0.3616
10849TIP3   OH254037   6.190   5.478   6.012  1.4274 -0.2532 -0.3838
10849TIP3    H154038   6.267   5.423   6.017  2.0813  0.5475 -1.2619
10849TIP3    H254039   6.155   5.463   5.924  0.0638 -1.2501  0.2866
10850TIP3   OH254040   5.379   2.355   2.191 -0.3083 -0.3904  0.3448
10850TIP3    H154041   5.402   2.327   2.103 -0.2108  1.9032 -0.4180
10850TIP3    H254042   5.306   2.298   2.216 -0.6563 -0.7660 -1.4165
10851TIP3   OH254043   2.560   6.582  10.496 -0.0642  0.1401  0.4004
10851TIP3    H154044   2.614   6.602  10.419 -0.3003 -2.3773 -0.5119
10851TIP3    H254045   2.623   6.577  10.568  0.4490  0.5061 -0.0035
10852TIP3   OH254046   3.959   2.452  11.681 -0.0905 -0.1000 -0.5536
10852TIP3    H154047   3.966   2.381  11.618 -0.8493 -0.6302 -0.0653
10852TIP3    H254048   4.043   2.454  11.726  0.6247  0.5760 -1.8597
10853TIP3   OH254049   5.411   3.566  11.865 -0.6118 -0.1745 -0.5601
10853TIP3    H154050   5.458   3.484  11.883 -0.5292 -0.0395 -0.1661
10853TIP3    H254051   5.324   3.553  11.902 -0.5955 -0.0799 -0.4882
10854TIP3   OH254052   2.339   3.673   0.671  0.1735  0.2590  0.5279
10854TIP3    H154053   2.347   3.615   0.596  0.7140  0.7131  0.2286
10854TIP3    H254054   2.245   3.680   0.687  0.0456  0.3118 -0.2226
10855TIP3   OH254055   2.761   6.093   3.292  0.7213 -0.1760  0.5249
10855TIP3    H154056   2.759   6.035   3.216  0.1112  0.2018  0.2475
10855TIP3    H254057   2.774   6.034   3.367 -1.4138 -0.8647  0.4243
10856TIP3   OH254058   1.744   2.294   3.653  0.1975  0.0636 -0.6305
10856TIP3    H154059   1.714   2.366   3.597 -0.5691 -0.6478 -1.1662
10856TIP3    H254060   1.801   2.242   3.595 -0.1370 -0.3618 -0.5781
10857TIP3   OH254061   4.015   4.523  12.710 -0.1280 -0.5037 -0.3145
10857TIP3    H154062   4.027   4.575  12.790  1.9205  0.1647 -0.9878
10857TIP3    H254063   4.042   4.435  12.734  1.8100 -0.0186 -0.5631
10858TIP3   OH254064   1.807   5.973  12.693 -0.2590 -0.1378 -0.4016
10858TIP3    H154065   1.805   5.924  12.611 -0.2877 -0.4519 -0.2178
10858TIP3    H254066   1.795   6.064  12.668 -0.5042 -0.2578 -0.7259
10859TIP3   OH254067   0.430   6.048   0.109 -0.1425  0.4853 -0.5730
10859TIP3    H154068   0.476   5.992   0.172  0.4395 -0.5705 -1.9008
10859TIP3    H254069   0.497   6.111   0.080 -0.4649  1.1021 -0.0062
10860TIP3   OH254070   3.199   5.262   4.510  0.6961 -0.3131  0.6310
10860TIP3    H154071   3.287   5.297   4.499  0.6934 -0.1503  1.1088
10860TIP3    H254072   3.207   5.170   4.485  1.1693 -0.4806  1.3452
10861TIP3   OH254073   1.940   3.780   3.735 -0.8126  0.5241  0.1949
10861TIP3    H154074   1.891   3.714   3.786 -0.3148  0.0984  0.1233
10861TIP3    H254075   2.018   3.796   3.787 -0.4746  0.3540 -0.2594
10862TIP3   OH254076   0.594   5.611   4.372 -0.2842 -0.1005 -0.1820
10862TIP3    H154077   0.526   5.575   4.315  0.5793  0.2979 -1.4948
10862TIP3    H254078   0.611   5.541   4.435 -1.6093 -0.3591 -0.0801
10863TIP3   OH254079   1.138   6.759   2.987 -0.3879 -0.2759  0.2848
10863TIP3    H154080   1.232   6.770   2.976 -0.4063  2.0503  1.7819
10863TIP3    H254081   1.101   6.794   2.905  0.0127 -0.0271  0.2055
10864TIP3   OH254082   0.226   3.351   2.241 -0.0913 -0.2772  0.5745
10864TIP3    H154083   0.173   3.354   2.321 -1.0077  1.5840 -0.0640
10864TIP3    H254084   0.214   3.262   2.208 -1.7559 -0.2909  1.1429
10865TIP3   OH254085   0.070   4.668   1.126  0.5423 -0.2619 -0.6072
10865TIP3    H154086   0.074   4.715   1.043 -0.4155 -1.1040 -1.1438
10865TIP3    H254087   0.109   4.729   1.190  0.0427  0.9328 -1.4161
10866TIP3   OH254088   4.798   1.190   0.964  0.0983 -0.7848  0.0029
10866TIP3    H154089   4.778   1.123   1.029 -0.8333  0.0420  0.5888
10866TIP3    H254090   4.718   1.241   0.957  1.6794  2.2216  1.8898
10867TIP3   OH254091   2.922   1.897   0.707  1.3762 -0.3465 -0.2666
10867TIP3    H154092   2.832   1.874   0.731  0.6973 -0.4102 -2.6136
10867TIP3    H254093   2.970   1.815   0.714  1.1101 -0.4524  0.3716
10868TIP3   OH254094   4.579   4.962   4.305 -0.7872 -0.0928  0.1748
10868TIP3    H154095   4.627   5.008   4.236  1.6340 -2.9865 -0.2900
10868TIP3    H254096   4.599   5.011   4.384 -1.8883  2.0774 -0.8113
10869TIP3   OH254097   3.394   6.231   1.898  0.3718 -0.5720 -0.0411
10869TIP3    H154098   3.383   6.220   1.803 -0.9521 -0.1953  0.0536
10869TIP3    H254099   3.457   6.303   1.906 -0.8896  0.6590 -0.6665
10870TIP3   OH254100   5.027   5.974  15.837 -0.0897  0.6616 -0.5212
10870TIP3    H154101   5.102   6.004  15.785  0.8318 -0.5360  0.0697
10870TIP3    H254102   4.955   5.970  15.775  0.8723 -0.3114 -1.6428
10871TIP3   OH254103   4.426   5.867  12.654  0.2039 -0.3971  0.3494
10871TIP3    H154104   4.436   5.776  12.682 -1.5216 -0.6922  0.1004
10871TIP3    H254105   4.379   5.909  12.725  2.0900  0.6695  1.0424
10872TIP3   OH254106   6.395   3.844   0.131  0.3265 -0.2706 -0.5417
10872TIP3    H154107   6.312   3.845   0.083  1.4227  1.3811 -2.5989
10872TIP3    H254108   6.459   3.808   0.069  1.5883  0.7436  0.1055
10873TIP3   OH254109   0.088   0.382   6.034 -0.2520 -0.0063  0.6079
10873TIP3    H154110   0.080   0.346   5.946 -3.9831 -0.9483  1.1803
10873TIP3    H254111   0.150   0.323   6.078  0.2082 -0.6433 -0.8242
10874TIP3   OH254112   1.288   2.408  11.981  0.1125 -0.1216 -0.0616
10874TIP3    H154113   1.231   2.331  11.989  1.2151 -0.8863  0.7866
10874TIP3    H254114   1.305   2.436  12.071 -1.2461  1.9055 -0.3791
10875TIP3   OH254115   4.213   0.639  14.503 -0.0290  0.3778  0.4174
10875TIP3    H154116   4.130   0.627  14.549 -1.3082  1.8918 -1.3285
10875TIP3    H254117   4.217   0.567  14.440 -0.6968  1.0167 -0.3803
10876TIP3   OH254118   1.545   0.707   5.155 -0.4018  0.3822 -0.1489
10876TIP3    H154119   1.603   0.727   5.229 -0.4368  0.5639 -0.1685
10876TIP3    H254120   1.531   0.792   5.113  2.0186 -0.0572 -2.1345
10877TIP3   OH254121   1.507   1.963   1.064 -0.2790 -0.6841  0.3484
10877TIP3    H154122   1.419   1.990   1.039 -0.8920 -1.3134  1.7272
10877TIP3    H254123   1.519   1.999   1.152  0.3819 -1.6198  0.6510
10878TIP3   OH254124   1.238   0.019   5.433  0.2175  0.3774  0.2440
10878TIP3    H154125   1.227   0.017   5.338  0.5551 -0.7293  0.2159
10878TIP3    H254126   1.182   0.091   5.462 -1.0877 -0.2482 -0.6428
10879TIP3   OH254127   3.732   5.630  14.264  0.4883 -0.0591  0.2155
10879TIP3    H154128   3.788   5.655  14.191  0.4202 -1.1033 -0.2199
10879TIP3    H254129   3.739   5.702  14.327  0.5366  0.8554 -0.8213
10880TIP3   OH254130   4.375   5.221  15.165  0.4887  0.4733  0.2075
10880TIP3    H154131   4.441   5.271  15.213  1.7554  2.4933 -3.2384
10880TIP3    H254132   4.301   5.281  15.157  0.2895  0.1674 -0.2721
10881TIP3   OH254133   2.668   4.736  11.259  0.4331 -0.5051 -1.0418
10881TIP3    H154134   2.619   4.684  11.324  3.0921  0.6509  2.1857
10881TIP3    H254135   2.727   4.673  11.218  0.2702 -0.8715 -0.7237
10882TIP3   OH254136   4.540   2.159  13.301 -0.5270 -0.0322 -0.1470
10882TIP3    H154137   4.586   2.076  13.300 -0.8333 -0.2498  1.2305
10882TIP3    H254138   4.554   2.193  13.389 -0.3493  1.4179 -0.7035
10883TIP3   OH254139   4.880   5.992   2.976 -0.0270 -0.4095  0.4236
10883TIP3    H154140   4.959   5.977   3.027 -0.4016  1.1366  1.5311
10883TIP3    H254141   4.810   5.999   3.041 -0.3003  3.0868 -0.0295
10884TIP3   OH254142   4.161   3.714   5.384 -0.0327  0.0041  0.2446
10884TIP3    H154143   4.196   3.726   5.472 -0.6124  1.9142  0.2591
10884TIP3    H254144   4.148   3.619   5.375 -2.0009 -0.1015  3.0260
10885TIP3   OH254145   3.784   6.068  12.387 -0.3237 -0.1985 -0.6762
10885TIP3    H154146   3.789   6.162  12.402  2.3571 -0.5999  1.7355
10885TIP3    H254147   3.716   6.038  12.448  0.6587 -0.1005  0.4972
10886TIP3   OH254148   2.432   6.271  14.542 -0.1081  0.2639  0.5441
10886TIP3    H154149   2.480   6.353  14.546 -0.8451  1.0528 -3.2020
10886TIP3    H254150   2.340   6.297  14.540 -0.3571 -0.6306 -0.4982
10887TIP3   OH254151   2.357   4.688  14.188 -0.2669  0.1578  0.2539
10887TIP3    H154152   2.444   4.707  14.152 -0.6286  1.0616 -0.1602
10887TIP3    H254153   2.310   4.645  14.117 -0.7620  1.3467 -0.1623
10888TIP3   OH254154   2.342   1.351   5.601  0.1794  0.0440  0.5048
10888TIP3    H154155   2.426   1.394   5.586  0.6854 -1.1783 -0.3423
10888TIP3    H254156   2.278   1.410   5.562  1.0720 -1.0027 -2.9418
10889TIP3   OH254157   5.464   0.790  15.692  0.2500 -0.0388  0.5657
10889TIP3    H154158   5.411   0.828  15.762 -0.6359  0.6790 -0.4488
10889TIP3    H254159   5.452   0.849  15.618 -1.1736 -2.2169 -1.0936
10890TIP3   OH254160   5.147   3.876   4.692 -0.6950 -0.7191  0.0376
10890TIP3    H154161   5.194   3.928   4.627 -2.1480 -0.1902 -0.6384
10890TIP3    H254162   5.174   3.913   4.776  0.9054 -1.1538 -0.2377
10891TIP3   OH254163   1.519   6.387   2.963 -0.9219 -0.4407 -0.1623
10891TIP3    H154164   1.509   6.462   3.022  2.9268 -0.3156  0.5986
10891TIP3    H254165   1.530   6.312   3.021  1.5887 -0.5088 -0.5822
10892TIP3   OH254166   3.767   4.967   2.523 -0.1428  0.5208 -0.4458
10892TIP3    H154167   3.694   5.007   2.571 -0.0442  0.2263 -0.0398
10892TIP3    H254168   3.734   4.954   2.434 -0.0359  1.8998 -0.7132
10893TIP3   OH254169   0.543   0.702  16.725  0.3003  0.0636  0.4995
10893TIP3    H154170   0.542   0.611  16.754 -1.7762 -0.6925 -1.5921
10893TIP3    H254171   0.616   0.707  16.663 -0.2524 -0.5313 -0.2266
10894TIP3   OH254172   2.191   5.547  11.796  0.3972 -0.3792 -0.4562
10894TIP3    H154173   2.206   5.485  11.724  0.5213 -1.3952  0.4183
10894TIP3    H254174   2.278   5.567  11.829  0.4076  0.8414 -1.1915
10895TIP3   OH254175   5.165   0.452  11.378 -0.7792  0.4218 -0.1559
10895TIP3    H154176   5.201   0.457  11.466 -0.0231  2.0562 -0.5072
10895TIP3    H254177   5.242   0.456  11.320 -1.2833 -0.2887 -0.9002
10896TIP3   OH254178   1.928   6.434  16.153 -0.5647 -0.2066  0.2062
10896TIP3    H154179   1.920   6.407  16.061  3.3946  0.6408 -0.6252
10896TIP3    H254180   1.924   6.353  16.203  0.6834 -1.1796 -1.1582
10897TIP3   OH254181   6.746   4.449  12.554 -0.0127 -0.2231  0.7601
10897TIP3    H154182   6.674   4.489  12.602  0.0247  0.8978 -0.0897
10897TIP3    H254183   6.799   4.522  12.523 -2.0927 -0.4370 -4.2872
10898TIP3   OH254184   0.384   6.841   3.699 -0.0857  0.1386 -0.7670
10898TIP3    H154185   0.301   6.876   3.665 -1.5142 -2.3154 -0.0834
10898TIP3    H254186   0.383   6.865   3.791 -1.4342 -2.0477 -0.1129
10899TIP3   OH254187   0.606   1.692   3.460  0.4371  0.1113  0.1774
10899TIP3    H154188   0.530   1.702   3.517  0.4561  1.7650 -0.0500
10899TIP3    H254189   0.571   1.700   3.371  0.8498  0.7769  0.0678
10900TIP3   OH254190   6.584   5.554   2.923  0.1028 -0.1259 -0.4921
10900TIP3    H154191   6.502   5.603   2.910  0.1828  0.1824  0.1401
10900TIP3    H254192   6.652   5.614   2.895  0.1441 -0.2091 -0.5697
10901TIP3   OH254193   6.843   5.682  16.724 -0.1432 -0.1485 -0.3071
10901TIP3    H154194   6.888   5.760  16.756 -0.4782  1.2068 -2.8405
10901TIP3    H254195   6.751   5.706  16.722 -0.2010 -0.3824 -1.5900
10902TIP3   OH254196   1.963   4.817  14.159 -0.3494 -0.3625  0.0158
10902TIP3    H154197   1.922   4.901  14.142 -1.7482 -1.5119 -3.0670
10902TIP3    H254198   2.053   4.827  14.127 -0.2646  0.1958  0.4304
10903TIP3   OH254199   2.323   3.379  12.763 -0.0361  0.2654  0.5353
10903TIP3    H154200   2.413   3.407  12.780  0.4851 -1.7046  1.2568
10903TIP3    H254201   2.271   3.423  12.830  0.4026  1.2311  0.2563
10904TIP3   OH254202   0.375   1.101   0.485 -0.3760  0.1645 -0.0017
10904TIP3    H154203   0.419   1.053   0.555  1.2166 -0.8809 -1.6302
10904TIP3    H254204   0.284   1.072   0.490  0.2031 -1.7759  0.1401
10905TIP3   OH254205   1.545   2.888  13.557 -0.3676  0.1482 -0.4164
10905TIP3    H154206   1.494   2.887  13.476 -0.3285 -0.4962 -0.4336
10905TIP3    H254207   1.519   2.808  13.603 -0.2452  0.4109  0.1191
10906TIP3   OH254208   0.744   0.681  10.643 -0.3059 -0.1394  0.7523
10906TIP3    H154209   0.690   0.604  10.628 -0.3661  0.3534 -2.1436
10906TIP3    H254210   0.816   0.650  10.697 -2.3692 -1.2461  3.0532
10907TIP3   OH254211   5.513   2.131   3.837  0.5689  0.5097  0.2396
10907TIP3    H154212   5.455   2.200   3.804 -0.1587 -0.4933 -0.6535
10907TIP3    H254213   5.480   2.051   3.796  2.5200 -0.1133 -0.2087
10908TIP3   OH254214   0.584   5.838  14.378 -0.0380  0.0813 -0.0116
10908TIP3    H154215   0.566   5.810  14.288  1.0111  1.9671 -0.8613
10908TIP3    H254216   0.558   5.930  14.380  0.2872  0.1648  1.5239
10909TIP3   OH254217   5.863   1.028   5.368 -0.1667  0.3699  0.5522
10909TIP3    H154218   5.891   0.982   5.289  0.9899  1.0698  0.5268
10909TIP3    H254219   5.945   1.053   5.411 -0.7808  0.5153  1.6725
10910TIP3   OH254220   2.227   4.568  13.990  0.2736 -0.6028 -0.3471
10910TIP3    H154221   2.277   4.502  13.942  0.9645 -0.5908  0.3308
10910TIP3    H254222   2.198   4.630  13.923  2.0627 -0.0435 -0.6568
10911TIP3   OH254223   6.322   5.344  10.831 -0.0022  0.5599  0.4425
10911TIP3    H154224   6.324   5.413  10.765 -0.6348  2.1546  1.9941
10911TIP3    H254225   6.229   5.338  10.856  0.4254  1.1591  2.2945
10912TIP3   OH254226   0.075   3.874  14.611 -0.2887  0.2011 -0.2466
10912TIP3    H154227   0.107   3.821  14.538  0.2124 -1.1161  0.8819
10912TIP3    H254228   0.012   3.935  14.571  0.3457 -0.1382 -1.8323
10913TIP3   OH254229   4.786   3.319  14.527 -0.0872  0.1002  0.0429
10913TIP3    H154230   4.856   3.371  14.488  0.1297 -0.7421 -0.7333
10913TIP3    H254231   4.750   3.268  14.454  1.4558 -2.8013  1.1581
10914TIP3   OH254232   2.476   0.996   3.228  0.1894 -0.1440  0.0781
10914TIP3    H154233   2.419   0.928   3.193 -0.4408  0.2290  0.3570
10914TIP3    H254234   2.485   0.974   3.321 -0.2328  0.2909  0.2274
10915TIP3   OH254235   5.402   5.218  13.857 -0.0111  0.5175  0.3710
10915TIP3    H154236   5.468   5.167  13.810  1.1903  1.8931  0.4682
10915TIP3    H254237   5.394   5.175  13.942  0.1051 -0.1827  0.0319
10916TIP3   OH254238   6.769   1.135   2.723  0.1490 -0.2371  0.6458
10916TIP3    H154239   6.839   1.165   2.781 -1.4716  3.6660  0.8923
10916TIP3    H254240   6.782   1.184   2.641 -2.2565  0.7852  0.7668
10917TIP3   OH254241   6.600   5.389  12.637  0.0406 -0.3147 -0.1543
10917TIP3    H154242   6.544   5.447  12.688  0.7924  1.6761 -1.4792
10917TIP3    H254243   6.673   5.368  12.695  0.5580  1.3893 -0.1369
10918TIP3   OH254244   0.538   5.337  16.662 -0.3431  0.7094  0.3115
10918TIP3    H154245   0.477   5.274  16.624  1.2198 -0.5714 -0.1951
10918TIP3    H254246   0.516   5.340  16.755 -1.1402  0.2612  0.1414
10919TIP3   OH254247   1.130   5.633   5.066  0.1331  0.0183 -0.0833
10919TIP3    H154248   1.131   5.610   5.159 -0.0285 -0.1701 -0.1278
10919TIP3    H254249   1.223   5.638   5.042  0.1781 -0.7300 -0.1045
10920TIP3   OH254250   2.147   4.697  16.114  0.2138 -0.2817  0.0239
10920TIP3    H154251   2.104   4.730  16.035  0.9764  0.1193 -0.2268
10920TIP3    H254252   2.139   4.602  16.107 -0.3866 -0.2230 -0.1542
10921TIP3   OH254253   3.417   1.455   1.695 -0.0872  0.4009  0.3765
10921TIP3    H154254   3.323   1.440   1.682  0.1786 -0.3798 -0.8472
10921TIP3    H254255   3.425   1.484   1.786 -1.5926  1.2184  0.2839
10922TIP3   OH254256   4.968   1.166  10.854  0.0889 -0.1351  0.0036
10922TIP3    H154257   4.886   1.140  10.812 -0.8708  2.0204  0.4340
10922TIP3    H254258   4.962   1.131  10.943  0.4229 -1.4070 -0.4446
10923TIP3   OH254259   1.139   5.925   3.199  0.3145 -0.5908  0.0246
10923TIP3    H154260   1.171   6.004   3.155 -1.7205 -0.0810 -0.6636
10923TIP3    H254261   1.058   5.902   3.153 -1.7084 -0.3203  3.0822
10924TIP3   OH254262   5.414   5.652   2.585  0.1568 -0.3191  0.0942
10924TIP3    H154263   5.379   5.614   2.665  0.2347 -2.0247 -0.6429
10924TIP3    H254264   5.344   5.639   2.520  1.0079 -1.1385 -0.6835
10925TIP3   OH254265   2.538   3.335  14.691  0.5712 -0.2390  0.2674
10925TIP3    H154266   2.583   3.377  14.618 -0.7449 -0.7398 -0.8917
10925TIP3    H254267   2.575   3.247  14.694  0.9252 -0.0830  0.4776
10926TIP3   OH254268   6.146   4.695   2.351  0.5911  0.2096  0.3236
10926TIP3    H154269   6.140   4.623   2.289 -0.1929 -0.6052  1.3089
10926TIP3    H254270   6.214   4.667   2.413  0.8679  0.7022  0.2545
10927TIP3   OH254271   2.594   5.481  11.622  0.6008 -0.8936  0.0957
10927TIP3    H154272   2.665   5.544  11.637  0.4652 -0.2080 -1.7995
10927TIP3    H254273   2.638   5.396  11.614  1.3986 -0.3373 -2.0917
10928TIP3   OH254274   0.927   4.522   1.137 -0.1117  0.7229 -0.2389
10928TIP3    H154275   0.975   4.504   1.217  0.1752  1.2538 -0.2888
10928TIP3    H254276   0.843   4.479   1.149 -0.4545  1.6343  0.7693
10929TIP3   OH254277   5.004   3.572  10.694  0.1268 -0.0476  0.3479
10929TIP3    H154278   4.950   3.532  10.626  0.1798  0.0104  0.2704
10929TIP3    H254279   5.031   3.656  10.657 -0.1385  0.1442  0.5855
10930TIP3   OH254280   6.793   0.618   4.664 -0.8585  0.2716  0.5267
10930TIP3    H154281   6.833   0.552   4.607 -0.1579 -0.1783  1.4894
10930TIP3    H254282   6.866   0.674   4.691 -1.2053  0.5764  0.8441
10931TIP3   OH254283   3.332   0.388  12.379 -0.3504  0.2158 -0.3164
10931TIP3    H154284   3.308   0.297  12.396 -0.2415  0.3772  0.8002
10931TIP3    H254285   3.427   0.388  12.372 -0.3538  0.2370 -0.3638
10932TIP3   OH254286   0.004   3.677  12.483  0.3485 -0.2091 -0.6621
10932TIP3    H154287   0.022   3.583  12.481  2.1220  0.0917 -0.9501
10932TIP3    H254288   0.043   3.710  12.402 -0.1515  0.7922 -0.5039
10933TIP3   OH254289   0.393   5.733  12.014  0.6286  0.4010  0.0431
10933TIP3    H154290   0.437   5.665  12.064  1.8627  0.6460 -0.6462
10933TIP3    H254291   0.380   5.805  12.076 -2.6435 -1.1584  1.3676
10934TIP3   OH254292   2.049   1.365  10.936  0.1924  0.2390  0.7639
10934TIP3    H154293   1.967   1.316  10.928  0.4506 -0.0199 -0.5210
10934TIP3    H254294   2.118   1.301  10.917  0.6264  0.7362  0.6209
10935TIP3   OH254295   4.808   6.057   0.817 -0.3599 -0.6477 -0.8359
10935TIP3    H154296   4.799   6.005   0.897 -3.1797 -0.0362 -0.6577
10935TIP3    H254297   4.864   6.130   0.842 -2.4971  0.4422  1.1823
10936TIP3   OH254298   3.979   3.567   0.745  0.8894  0.4713  0.4765
10936TIP3    H154299   3.997   3.572   0.839  0.9975  0.0868  0.4807
10936TIP3    H254300   3.935   3.482   0.734  0.1457  0.8675  0.2958
10937TIP3   OH254301   0.459   1.366   1.322  0.2923 -0.1496  0.2296
10937TIP3    H154302   0.551   1.378   1.345  0.4859 -0.0460 -0.5781
10937TIP3    H254303   0.440   1.276   1.347  0.5847 -0.1375  0.5000
10938TIP3   OH254304   3.507   4.448   1.069 -0.1342 -0.4864 -0.2083
10938TIP3    H154305   3.528   4.537   1.041  1.0885 -1.5359 -3.0147
10938TIP3    H254306   3.518   4.395   0.990  1.5039 -3.4954  1.8408
10939TIP3   OH254307   1.296   2.849  16.395  0.1536 -0.4717  0.1730
10939TIP3    H154308   1.226   2.870  16.332 -2.2718 -3.2012  1.6888
10939TIP3    H254309   1.259   2.872  16.480  1.7766 -0.5145  0.9253
10940TIP3   OH254310   6.523   2.191  14.998 -0.0215 -0.3798  0.8315
10940TIP3    H154311   6.553   2.227  14.914 -3.4317 -0.5190 -0.6015
10940TIP3    H254312   6.539   2.097  14.990 -4.0424 -1.1049 -1.6887
10941TIP3   OH254313   2.353   4.229   0.127  0.0012  0.2131  0.0546
10941TIP3    H154314   2.271   4.182   0.146 -0.2492  0.5873 -0.0761
10941TIP3    H254315   2.420   4.179   0.173 -0.1901 -0.5218 -0.4418
10942TIP3   OH254316   3.464   5.183  11.299  0.0014  0.4049 -0.0495
10942TIP3    H154317   3.428   5.259  11.346 -1.4669  0.1221 -0.6558
10942TIP3    H254318   3.403   5.112  11.320  0.5304 -0.2410 -0.6877
10943TIP3   OH254319   2.308   1.353   3.855 -0.2199  0.2613 -0.4353
10943TIP3    H154320   2.352   1.398   3.927  1.4185 -1.8905 -0.0061
10943TIP3    H254321   2.215   1.368   3.871  0.1582  1.0055  1.3174
10944TIP3   OH254322   0.802   4.043  14.393  0.4430 -0.1509 -0.2210
10944TIP3    H154323   0.761   4.122  14.357  1.1469  0.8120  0.9942
10944TIP3    H254324   0.838   4.071  14.477  0.7301 -1.7782  0.2414
10945TIP3   OH254325   3.715   4.447   0.437  0.5045  0.8082  0.3577
10945TIP3    H154326   3.775   4.389   0.484 -0.9730 -0.1619  1.1224
10945TIP3    H254327   3.728   4.427   0.345 -1.4060 -2.3192  0.6444
10946TIP3   OH254328   5.614   3.152   0.515  0.5261 -0.0093 -0.0898
10946TIP3    H154329   5.528   3.169   0.476  0.7590  1.2793 -0.1130
10946TIP3    H254330   5.673   3.140   0.440  0.3326 -1.1795 -0.0719
10947TIP3   OH254331   2.068   0.637  14.390  0.4684 -0.0651 -0.2359
10947TIP3    H154332   2.138   0.697  14.367  0.1583  0.3027 -0.2247
10947TIP3    H254333   1.992   0.693  14.406  0.4032 -0.3945  0.6530
10948TIP3   OH254334   2.115   3.573  11.038 -0.1471  0.8921 -0.7514
10948TIP3    H154335   2.132   3.666  11.056 -1.7182  1.4245 -1.8273
10948TIP3    H254336   2.024   3.571  11.010 -1.5916 -1.5732  3.3836
10949TIP3   OH254337   2.652   6.611  13.493  0.5171  0.6353 -0.1566
10949TIP3    H154338   2.574   6.666  13.490  0.5654  0.7448  0.3650
10949TIP3    H254339   2.680   6.615  13.585  0.8254  0.1660 -0.2264
10950TIP3   OH254340   6.014   1.780   5.181  0.7775 -0.4022  0.1809
10950TIP3    H154341   6.020   1.701   5.128  1.5193  1.1118 -2.1518
10950TIP3    H254342   6.023   1.749   5.271  0.0288 -3.0478 -0.5510
10951TIP3   OH254343   1.799   1.722  13.745  0.1580  0.3008  0.2443
10951TIP3    H154344   1.818   1.693  13.656  2.5248 -1.4731  1.2416
10951TIP3    H254345   1.726   1.665  13.773  0.3110 -0.0726 -0.0995
10952TIP3   OH254346   6.199   5.938   6.730  0.1952  0.0976 -0.8907
10952TIP3    H154347   6.129   5.916   6.791  0.3719  0.8427 -0.4111
10952TIP3    H254348   6.258   5.863   6.732 -0.2502 -0.2512 -0.8089
10953TIP3   OH254349   5.850   4.303  15.302 -0.0447 -0.2655  0.0481
10953TIP3    H154350   5.825   4.290  15.211 -1.6040  0.5366  0.3401
10953TIP3    H254351   5.851   4.215  15.340 -1.7770 -0.3889 -0.1565
10954TIP3   OH254352   6.082   1.063   1.489  0.3889  0.9393  0.0796
10954TIP3    H154353   6.140   0.988   1.502  0.8180  0.9949 -1.3125
10954TIP3    H254354   6.002   1.040   1.537  0.6708 -0.2160  0.0407
10955TIP3   OH254355   2.233   0.272  13.293 -0.1704  0.1831 -0.4609
10955TIP3    H154356   2.175   0.346  13.309 -0.0818 -0.0036  0.8911
10955TIP3    H254357   2.188   0.220  13.227 -0.6830  0.9485 -0.7333
10956TIP3   OH254358   0.446   0.407   2.194 -0.1739 -0.4602  0.5156
10956TIP3    H154359   0.433   0.498   2.219  0.8166 -0.7754  2.3113
10956TIP3    H254360   0.504   0.411   2.118 -1.3422  0.4350 -0.3644
10957TIP3   OH254361   5.125   6.757   6.039  0.3011  0.4371  0.1105
10957TIP3    H154362   5.191   6.690   6.024 -0.7967 -0.6276 -0.2195
10957TIP3    H254363   5.119   6.765   6.135  1.0040  0.6573  0.1366
10958TIP3   OH254364   4.701   3.659   4.923  0.3425 -0.7270 -0.0764
10958TIP3    H154365   4.647   3.647   4.846  0.3067  1.1767 -0.3899
10958TIP3    H254366   4.657   3.609   4.992 -1.3373  0.0607 -0.5419
10959TIP3   OH254367   2.299   5.442  16.434  0.3179 -0.4484  0.6965
10959TIP3    H154368   2.306   5.352  16.404 -0.7290 -0.5757  0.7838
10959TIP3    H254369   2.377   5.485  16.399  0.3609 -1.1687 -0.1370
10960TIP3   OH254370   4.682   5.887  14.134  0.2045 -0.1454 -0.2600
10960TIP3    H154371   4.760   5.868  14.081 -0.3772  2.2246 -2.1091
10960TIP3    H254372   4.715   5.938  14.208  0.7818 -1.9825  0.8231
10961TIP3   OH254373   1.015   2.876   1.020  0.2309 -0.1855 -0.5023
10961TIP3    H154374   1.076   2.943   1.050 -0.4708 -0.7823  2.4967
10961TIP3    H254375   0.964   2.920   0.951  0.8117  1.8489  0.2998
10962TIP3   OH254376   2.690   1.095  13.572 -0.0585  0.2856  0.4784
10962TIP3    H154377   2.631   1.069  13.501 -0.4258  2.3544 -0.0282
10962TIP3    H254378   2.668   1.036  13.644 -0.6569 -0.9241 -0.6481
10963TIP3   OH254379   0.691   5.767   3.417  0.5874  0.3512 -0.4291
10963TIP3    H154380   0.708   5.674   3.402  0.6603  0.2692  0.1576
10963TIP3    H254381   0.771   5.799   3.460 -0.1166  0.2983  0.9550
10964TIP3   OH254382   1.434   3.357  10.853  0.0581  0.5063  0.2874
10964TIP3    H154383   1.370   3.425  10.833  1.1830  2.2569  2.2574
10964TIP3    H254384   1.386   3.275  10.846 -0.9986  1.2478 -3.7583
10965TIP3   OH254385   5.663   2.261  12.623 -0.1353  0.8440  0.1974
10965TIP3    H154386   5.588   2.315  12.597 -0.4316 -0.2645 -1.4123
10965TIP3    H254387   5.659   2.185  12.565  1.4535  0.0892  1.0113
10966TIP3   OH254388   1.531   0.573  16.242 -0.1141  0.6853  0.0229
10966TIP3    H154389   1.571   0.529  16.316 -1.0476 -2.5310 -1.2242
10966TIP3    H254390   1.451   0.613  16.278 -1.2801 -1.9763  0.5987
10967TIP3   OH254391   3.413   0.535  12.649 -0.3325  0.2145 -0.4306
10967TIP3    H154392   3.360   0.499  12.578 -1.6228 -0.2943  0.7349
10967TIP3    H254393   3.464   0.604  12.608 -0.0667 -0.9041 -2.1129
10968TIP3   OH254394   5.134   4.783   1.947  0.4689 -0.0321  0.2114
10968TIP3    H154395   5.194   4.710   1.931  2.1172  0.5622  2.9868
10968TIP3    H254396   5.136   4.795   2.042 -1.3981  2.2880  0.0530
10969TIP3   OH254397   5.619   3.240   6.019  0.4862 -0.0782 -0.0625
10969TIP3    H154398   5.528   3.242   6.050  0.7896  0.7836  0.8423
10969TIP3    H254399   5.667   3.194   6.088  1.0299  1.0938  0.3705
10970TIP3   OH254400   0.516   1.419  16.379  0.6463 -0.4869  0.0329
10970TIP3    H154401   0.461   1.344  16.356  0.0083 -0.9427  2.6859
10970TIP3    H254402   0.494   1.486  16.315  0.7783 -2.3079 -2.0454
10971TIP3   OH254403   4.448   4.394  16.946 -0.2744  0.1954  0.1265
10971TIP3    H154404   4.536   4.358  16.941 -0.5512 -1.0513  2.7317
10971TIP3    H254405   4.404   4.359  16.868  1.4312  0.6712 -1.0994
10972TIP3   OH254406   4.482   6.601   4.738  0.5945  0.2187  0.0404
10972TIP3    H154407   4.459   6.690   4.764 -0.1005  0.6220 -1.7850
10972TIP3    H254408   4.399   6.553   4.740  0.8852 -0.2705  0.5575
10973TIP3   OH254409   3.125   3.635   6.167  0.2517  0.2580  0.1004
10973TIP3    H154410   3.165   3.684   6.239 -0.8852 -0.0659  0.9796
10973TIP3    H254411   3.199   3.612   6.110  1.2554  0.0194  1.4502
10974TIP3   OH254412   0.465   6.162   4.400  0.4947 -0.1263  0.4161
10974TIP3    H154413   0.375   6.150   4.368  1.4341 -1.9609 -1.7951
10974TIP3    H254414   0.468   6.254   4.426 -1.9607  0.0395  0.3680
10975TIP3   OH254415   1.301   1.621  13.987 -0.3717  0.5298 -0.0344
10975TIP3    H154416   1.309   1.679  14.062  2.6206 -0.0218  0.2036
10975TIP3    H254417   1.381   1.636  13.936 -1.1117 -0.9236 -1.7659
10976TIP3   OH254418   1.827   0.519  16.303 -0.7458  0.1419  0.0621
10976TIP3    H154419   1.849   0.589  16.242 -0.5204  1.9494  2.1062
10976TIP3    H254420   1.894   0.523  16.370 -1.4004 -1.2887  0.8487
10977TIP3   OH254421   2.000   6.678   5.958 -0.1279  0.2074  0.3201
10977TIP3    H154422   1.979   6.636   5.874 -0.1849  0.3360  0.2707
10977TIP3    H254423   2.096   6.679   5.960 -0.1272  0.3225  0.1982
10978TIP3   OH254424   3.419   0.713   4.404  0.1884  0.1363  0.0518
10978TIP3    H154425   3.391   0.701   4.313  0.8509  0.4985 -0.2017
10978TIP3    H254426   3.406   0.807   4.421  1.9405  0.4680 -0.3116
10979TIP3   OH254427   0.079   1.695   1.449 -0.2203 -0.3629 -0.0471
10979TIP3    H154428   0.104   1.741   1.529 -1.8955 -0.6404  0.6888
10979TIP3    H254429   0.114   1.606   1.460  0.6860 -0.0469 -0.2508
10980TIP3   OH254430   0.774   4.412  13.393  0.4554 -0.1782  0.1309
10980TIP3    H154431   0.774   4.385  13.302 -2.0804 -0.1955  0.0661
10980TIP3    H254432   0.783   4.507  13.390  2.3846 -0.3315  0.0103
10981TIP3   OH254433   3.981   1.131  16.665  0.2308 -0.2753 -0.2501
10981TIP3    H154434   4.045   1.062  16.684  0.1632  0.2853  2.2971
10981TIP3    H254435   3.998   1.153  16.573  0.6133 -3.2492 -1.0215
10982TIP3   OH254436   1.256   3.127  13.414 -0.4358  0.0223  0.6031
10982TIP3    H154437   1.318   3.078  13.360  0.9304 -1.9856  3.6720
10982TIP3    H254438   1.296   3.214  13.423 -1.7190  1.1715 -3.0118
10983TIP3   OH254439   0.169   2.858   2.043 -0.1150 -0.2721  0.5472
10983TIP3    H154440   0.257   2.822   2.038  0.2585  0.1176  2.9060
10983TIP3    H254441   0.123   2.819   1.969  1.4809 -2.1048  0.4219
10984TIP3   OH254442   1.112   3.305   3.192 -0.4584  0.1843 -0.2224
10984TIP3    H154443   1.201   3.291   3.224 -1.0236  0.1307  1.4240
10984TIP3    H254444   1.117   3.387   3.142  0.6015 -0.0745 -0.5655
10985TIP3   OH254445   0.404   3.020   1.186  0.0147 -0.3488  0.4238
10985TIP3    H154446   0.491   3.044   1.155  0.4030  0.2848  1.9253
10985TIP3    H254447   0.386   2.937   1.142  0.5272  0.4358 -1.4125
10986TIP3   OH254448   3.312   0.453   4.365  0.1969 -0.1596 -0.6774
10986TIP3    H154449   3.378   0.486   4.426  0.1598  0.4183 -0.9464
10986TIP3    H254450   3.355   0.452   4.280  0.8722 -2.7602 -0.3923
10987TIP3   OH254451   4.668   1.879   3.040 -0.5370  0.3422  0.2608
10987TIP3    H154452   4.592   1.821   3.030 -0.9408  1.0877 -1.3822
10987TIP3    H254453   4.634   1.954   3.090 -0.7628  0.4387 -0.0319
10988TIP3   OH254454   1.411   1.328   4.374  0.4244  0.1434  1.2026
10988TIP3    H154455   1.421   1.422   4.359  0.2124  0.0191  0.2248
10988TIP3    H254456   1.410   1.319   4.469  1.2651  1.0403  1.3108
10989TIP3   OH254457   2.141   0.948  13.327  0.0016 -0.1391  0.9001
10989TIP3    H154458   2.084   0.900  13.387 -0.1812 -0.7570  0.2410
10989TIP3    H254459   2.212   0.888  13.308 -1.0940 -0.8482 -1.2639
10990TIP3   OH254460   3.656   4.598  14.640 -0.5758  0.3893 -0.4873
10990TIP3    H154461   3.688   4.676  14.596 -1.3036  1.1811  0.3399
10990TIP3    H254462   3.618   4.630  14.722  0.4602 -0.9957  0.5950
10991TIP3   OH254463   6.575   3.056  10.909 -0.0798 -0.0809  0.3469
10991TIP3    H154464   6.537   2.979  10.867 -0.8932  0.6824 -0.3879
10991TIP3    H254465   6.537   3.057  10.997  0.5092 -0.9060  0.6216
10992TIP3   OH254466   6.206   0.728   2.297  0.3123  0.3212 -0.1974
10992TIP3    H154467   6.161   0.738   2.213 -0.0829  1.9495  0.1763
10992TIP3    H254468   6.296   0.753   2.279  0.8395 -1.6785 -0.6442
10993TIP3   OH254469   1.538   2.372   2.963  0.3441  0.1875  0.0928
10993TIP3    H154470   1.626   2.334   2.961  0.5243  0.6345 -0.6288
10993TIP3    H254471   1.479   2.296   2.968  0.7520 -0.1289  0.1209
10994TIP3   OH254472   0.533   4.372   3.398  1.1172  0.0314  0.6699
10994TIP3    H154473   0.474   4.446   3.414  0.2849 -0.7499  1.3464
10994TIP3    H254474   0.603   4.408   3.344  0.6606  1.2793  0.8829
10995TIP3   OH254475   2.538   3.378   2.948 -0.1895 -0.7778 -0.1053
10995TIP3    H154476   2.467   3.360   2.885  0.3137 -2.3258 -0.2640
10995TIP3    H254477   2.532   3.472   2.963 -1.7416 -0.7295 -0.7715
10996TIP3   OH254478   0.050   6.789  12.173  0.1087  0.3008 -0.3005
10996TIP3    H154479   0.059   6.816  12.265  0.5156 -0.1192 -0.2082
10996TIP3    H254480   0.130   6.821  12.131 -0.7030  1.7056 -0.8316
10997TIP3   OH254481   1.852   6.022   3.779 -0.2591  0.1533 -0.4522
10997TIP3    H154482   1.858   5.927   3.769 -3.1982 -0.1299 -0.3145
10997TIP3    H254483   1.862   6.037   3.873  3.0332  0.3814 -0.7033
10998TIP3   OH254484   3.759   0.012  11.683  0.5514  0.1756  0.5860
10998TIP3    H154485   3.812   0.003  11.763  1.4045 -0.8090 -0.0631
10998TIP3    H254486   3.804  -0.042  11.618  1.2062  2.7771 -1.2590
10999TIP3   OH254487   2.241   0.145  11.685  0.1914  0.3964  0.2595
10999TIP3    H154488   2.227   0.229  11.642 -1.0183  0.3138  0.4352
10999TIP3    H254489   2.334   0.127  11.675  0.3950  1.5792 -0.1033
11000TIP3   OH254490   5.744   6.168   5.764  0.4391 -0.1047  0.2735
11000TIP3    H154491   5.719   6.084   5.724 -0.3232  0.8742 -1.4487
11000TIP3    H254492   5.660   6.210   5.783  0.7247  1.4861 -1.6813
11001TIP3   OH254493   1.809   4.853  12.499 -0.2177 -0.3110  0.7731
11001TIP3    H154494   1.848   4.916  12.439  0.4399 -0.2828  1.2170
11001TIP3    H254495   1.845   4.877  12.585  1.4415 -2.3545  0.7133
11002TIP3   OH254496   2.644   3.469  16.419 -0.2004  0.0050 -0.5393
11002TIP3    H154497   2.735   3.467  16.449 -0.7837  1.8251  1.6706
11002TIP3    H254498   2.647   3.435  16.330  2.2666 -2.2993  0.2910
11003TIP3   OH254499   3.915   2.370   5.584  0.5694  0.1258 -0.1494
11003TIP3    H154500   3.824   2.347   5.597  0.9664 -0.9717  0.9016
11003TIP3    H254501   3.917   2.465   5.585 -0.6220  0.1653 -0.7239
11004TIP3   OH254502   3.915   0.090  15.851 -0.0155 -0.4704  0.5273
11004TIP3    H154503   3.956   0.128  15.929 -0.7278 -0.3287  0.8379
11004TIP3    H254504   3.831   0.135  15.844  0.9820  1.2257 -1.6577
11005TIP3   OH254505   5.189   0.771   0.337 -0.0066 -0.0558 -0.0530
11005TIP3    H154506   5.109   0.745   0.291  0.6560 -0.6711 -0.9007
11005TIP3    H254507   5.249   0.797   0.267  0.4183  0.7460  0.5958
11006TIP3   OH254508   3.074   1.279  11.096 -0.2555 -0.0028 -0.1492
11006TIP3    H154509   3.025   1.337  11.037 -0.8265 -1.4745 -1.1945
11006TIP3    H254510   3.165   1.307  11.086 -0.3360 -0.1766 -1.7612
11007TIP3   OH254511   3.767   4.584   0.814  0.4827 -0.3220  0.1895
11007TIP3    H154512   3.704   4.547   0.752 -0.4067  2.9481 -1.0816
11007TIP3    H254513   3.719   4.590   0.897 -0.8305  1.6177 -0.6288
11008TIP3   OH254514   3.035   0.360  14.516 -0.2141 -0.2315  0.0880
11008TIP3    H154515   3.117   0.408  14.531 -0.7106  0.5966  0.2085
11008TIP3    H254516   3.002   0.341  14.604  0.4414 -1.6334  0.0564
11009TIP3   OH254517   1.871   2.290   0.227  0.1886  0.2896  0.1412
11009TIP3    H154518   1.847   2.302   0.319 -1.4027  3.3249 -0.5163
11009TIP3    H254519   1.787   2.297   0.180  1.0025 -0.8582 -1.5649
11010TIP3   OH254520   2.325   5.220  12.489 -0.1341  0.7442  0.4431
11010TIP3    H154521   2.377   5.299  12.496  0.2650  0.3850  1.9353
11010TIP3    H254522   2.243   5.240  12.534  0.2765  0.0951  1.5313
11011TIP3   OH254523   5.458   1.750  10.590 -0.3655 -0.2885  0.4135
11011TIP3    H154524   5.392   1.798  10.639 -0.9735  0.5078 -1.0927
11011TIP3    H254525   5.530   1.813  10.579 -0.0059 -0.6373  0.7389
11012TIP3   OH254526   2.915   1.807  15.197  0.1887  0.5546  0.3592
11012TIP3    H154527   2.961   1.890  15.206 -1.3429  1.5163 -0.3431
11012TIP3    H254528   2.963   1.759  15.129 -0.2788  1.8702 -0.9417
11013TIP3   OH254529   0.472   6.829  15.819  0.5631  0.2965  0.9164
11013TIP3    H154530   0.473   6.793  15.730  1.5505 -0.2659  1.1486
11013TIP3    H254531   0.456   6.754  15.875  0.2365  0.6060  1.2387
11014TIP3   OH254532   2.574   1.538  14.223  0.6899 -0.0961 -0.0188
11014TIP3    H154533   2.525   1.599  14.168  0.4472  0.4373  0.7695
11014TIP3    H254534   2.666   1.556  14.204  0.6053  0.0242 -0.3100
11015TIP3   OH254535   1.184   5.548  15.047  0.0130 -0.4943  0.1695
11015TIP3    H154536   1.166   5.466  15.002 -2.0191  0.9743 -2.0028
11015TIP3    H254537   1.261   5.531  15.100 -0.7143 -3.9487  0.3466
11016TIP3   OH254538   1.505   1.802   3.988  0.2531  0.3795 -0.5802
11016TIP3    H154539   1.507   1.898   3.993 -1.1071  0.3725  1.6294
11016TIP3    H254540   1.412   1.780   3.998  0.4863 -1.1725 -1.5815
11017TIP3   OH254541   0.816   2.592   5.002 -0.3424  0.9027 -0.1586
11017TIP3    H154542   0.800   2.579   5.096 -1.1419 -0.3953 -0.4481
11017TIP3    H254543   0.729   2.600   4.963 -0.0392  0.7638 -0.8826
11018TIP3   OH254544   2.031   6.179   1.587 -0.2643  0.7540  0.0542
11018TIP3    H154545   2.100   6.203   1.525  0.4403  4.5868  2.0591
11018TIP3    H254546   1.965   6.247   1.578 -0.2458  1.3457  3.2151
11019TIP3   OH254547   1.590   2.238  11.355 -0.2404 -0.2153  0.1280
11019TIP3    H154548   1.543   2.273  11.279 -1.2213 -0.8623  0.4327
11019TIP3    H254549   1.617   2.316  11.404  0.4484  0.2198 -0.8853
11020TIP3   OH254550   1.647   4.639  16.915  0.0752 -0.0981 -0.3102
11020TIP3    H154551   1.678   4.695  16.985 -3.0574  2.6775 -0.8744
11020TIP3    H254552   1.552   4.652  16.914 -0.4059 -2.6400 -2.9033
11021TIP3   OH254553   3.174   0.854   4.258  0.1934  0.2990  0.3293
11021TIP3    H154554   3.181   0.816   4.170 -0.7397  0.7032  0.0639
11021TIP3    H254555   3.200   0.945   4.246  3.1689 -0.3405  1.1041
11022TIP3   OH254556   5.354   2.792  14.326 -0.0270  0.2786 -0.1001
11022TIP3    H154557   5.384   2.870  14.279  1.7216 -0.0202  0.4793
11022TIP3    H254558   5.419   2.725  14.307 -0.8652 -0.7131  0.3911
11023TIP3   OH254559   4.025   0.005  11.305  0.4860 -0.2441  0.1252
11023TIP3    H154560   4.044   0.087  11.351 -1.1410 -0.6983  1.7071
11023TIP3    H254561   3.943   0.022  11.258  0.2290 -0.8947  0.3259
11024TIP3   OH254562   2.867   0.243   5.655 -0.1945 -0.0450 -0.6880
11024TIP3    H154563   2.859   0.191   5.735 -0.6174  2.2540  0.8793
11024TIP3    H254564   2.812   0.198   5.591 -0.8595 -1.2873  0.7038
11025TIP3   OH254565   5.882   2.690  13.737 -0.3013  0.2896 -0.2882
11025TIP3    H154566   5.977   2.685  13.732 -0.2354  1.7894 -0.8119
11025TIP3    H254567   5.853   2.598  13.739  1.0820 -0.1944 -1.3247
11026TIP3   OH254568   0.125   1.471  11.442  0.4660  0.1039 -0.3039
11026TIP3    H154569   0.055   1.482  11.507  0.9511 -1.6195  0.5882
11026TIP3    H254570   0.198   1.522  11.477 -0.1846  1.6056 -1.0503
11027TIP3   OH254571   2.504   0.263   2.861 -0.2052 -0.4497  0.0246
11027TIP3    H154572   2.432   0.322   2.836  0.6081  1.6899  2.3935
11027TIP3    H254573   2.561   0.262   2.784 -1.3160  0.0697 -0.8493
11028TIP3   OH254574   1.367   6.379  11.272  0.4267  0.6984  0.2723
11028TIP3    H154575   1.376   6.299  11.325  0.6943  1.0761  0.8072
11028TIP3    H254576   1.331   6.443  11.333 -1.4552  0.5334 -0.5775
11029TIP3   OH254577   0.333   1.974  14.190  1.3992 -0.0326 -0.6960
11029TIP3    H154578   0.418   2.016  14.203  1.0784  1.0051 -1.8021
11029TIP3    H254579   0.338   1.937  14.102  0.2140  1.2707 -1.3448
11030TIP3   OH254580   2.225   4.318   3.344  0.2124  0.9148 -0.6786
11030TIP3    H154581   2.165   4.382   3.381 -0.0333  0.1068  0.3641
11030TIP3    H254582   2.302   4.369   3.317  0.1361  1.6212  0.3811
11031TIP3   OH254583   6.412   0.925  16.703  0.1542 -0.1595 -0.3507
11031TIP3    H154584   6.478   0.978  16.747  0.6398  1.2288 -2.5694
11031TIP3    H254585   6.331   0.942  16.751  0.6805  1.1577  0.1060
11032TIP3   OH254586   2.782   6.107  15.790  0.4152 -0.8503 -0.6586
11032TIP3    H154587   2.723   6.033  15.800 -0.1978 -0.2634  0.2136
11032TIP3    H254588   2.728   6.184  15.807  1.2584 -0.2524 -0.5752
11033TIP3   OH254589   5.542   2.358  12.910  0.0990 -0.1679  0.1188
11033TIP3    H154590   5.460   2.386  12.869 -0.6289 -2.5292 -0.1948
11033TIP3    H254591   5.602   2.347  12.837  1.1852  2.6966  0.4343
11034TIP3   OH254592   5.994   5.124  16.210 -0.1707  0.7374  0.3994
11034TIP3    H154593   5.979   5.089  16.122 -0.9349  1.5213  0.2072
11034TIP3    H254594   5.912   5.168  16.233 -0.3533 -0.3536  1.9358
11035TIP3   OH254595   6.059   0.753   5.588  0.1866 -0.0362 -0.2801
11035TIP3    H154596   6.104   0.834   5.564  0.5517 -0.6307 -1.7664
11035TIP3    H254597   6.128   0.696   5.622  0.1463 -0.1125 -0.3247
11036TIP3   OH254598   4.031   3.830   4.653 -0.6016 -0.1519 -0.5943
11036TIP3    H154599   4.084   3.752   4.670 -0.9538 -0.5895 -1.4460
11036TIP3    H254600   4.017   3.869   4.739  2.9786  1.2428 -0.4650
11037TIP3   OH254601   6.056   2.376  15.067 -0.0603 -0.0485 -0.3033
11037TIP3    H154602   6.141   2.399  15.105  0.8367 -1.5227 -1.3420
11037TIP3    H254603   6.031   2.295  15.111 -1.4429  0.8563  0.6905
11038TIP3   OH254604   1.128   5.942   6.107 -0.8285 -1.2498  0.1077
11038TIP3    H154605   1.193   5.924   6.175 -0.1636 -0.7312 -0.3775
11038TIP3    H254606   1.159   6.022   6.066 -1.9111 -0.8686  0.0189
11039TIP3   OH254607   0.637   5.380   2.241  0.1470 -0.0047 -0.1453
11039TIP3    H154608   0.609   5.449   2.182  1.9332  1.6229  0.8208
11039TIP3    H254609   0.704   5.332   2.193 -0.2227 -0.3074 -0.3641
11040TIP3   OH254610   0.545   3.276   5.928  0.3926 -0.0260 -0.1009
11040TIP3    H154611   0.559   3.287   6.022  0.9539  1.4846 -0.3414
11040TIP3    H254612   0.522   3.363   5.896 -0.4757 -0.6526 -1.2680
11041TIP3   OH254613   6.375   5.511  12.709  0.0308  0.3509  0.5982
11041TIP3    H154614   6.335   5.451  12.646  0.1285  0.4151  0.4764
11041TIP3    H254615   6.327   5.494  12.790  1.6785 -1.6657  1.2357
11042TIP3   OH254616   0.566   1.085   4.947  0.1138 -0.3570 -0.2849
11042TIP3    H154617   0.606   1.171   4.958  0.1440  0.1106 -3.2774
11042TIP3    H254618   0.472   1.103   4.942  0.1718 -0.3689 -1.6668
11043TIP3   OH254619   1.600   3.856   5.451  0.0296  0.7217  0.8734
11043TIP3    H154620   1.666   3.788   5.445 -0.8163 -0.2810  2.4508
11043TIP3    H254621   1.530   3.827   5.393  0.0150  0.6733  0.9165
11044TIP3   OH254622   4.739   5.677  13.497  0.4028  1.0345  0.5381
11044TIP3    H154623   4.734   5.764  13.457 -3.4519  0.6304 -0.2280
11044TIP3    H254624   4.711   5.617  13.429 -3.0555 -0.0484  2.6397
11045TIP3   OH254625   4.176   1.263   1.968 -0.1257  0.3390 -0.0864
11045TIP3    H154626   4.264   1.229   1.984  0.4410  1.1174 -1.4030
11045TIP3    H254627   4.188   1.357   1.953 -1.2460  0.5502  0.2052
11046TIP3   OH254628   3.120   2.356   0.941  0.3550 -0.2204  0.2398
11046TIP3    H154629   3.187   2.294   0.970  0.7870  0.1285 -0.0116
11046TIP3    H254630   3.115   2.343   0.846 -0.0114 -0.3200  0.2708
11047TIP3   OH254631   2.960   1.500   2.051 -0.1585  0.1829  0.0823
11047TIP3    H154632   2.874   1.531   2.023  0.0177  0.4027 -0.2171
11047TIP3    H254633   2.984   1.558   2.123 -0.5126 -0.2416  0.5498
11048TIP3   OH254634   3.351   2.154   6.066  0.3473 -0.3299  0.0062
11048TIP3    H154635   3.318   2.071   6.100 -1.1594  0.1870 -0.1443
11048TIP3    H254636   3.273   2.206   6.049  1.2569  1.0778 -0.0364
11049TIP3   OH254637   0.226   2.381  14.912  0.1737 -0.7123  0.2048
11049TIP3    H154638   0.186   2.366  14.826  0.0506 -0.0074  0.1295
11049TIP3    H254639   0.153   2.377  14.973  0.1164 -0.3357  0.1691
11050TIP3   OH254640   6.067   4.611  15.726 -0.4007 -0.5324  0.2582
11050TIP3    H154641   6.105   4.523  15.727 -0.3849 -0.5155  1.0910
11050TIP3    H254642   6.131   4.664  15.678  0.3313 -0.6426  1.0962
11051TIP3   OH254643   0.390   3.146  15.854  0.2857  0.1096 -0.0141
11051TIP3    H154644   0.438   3.072  15.818  0.4397 -0.1883  0.7792
11051TIP3    H254645   0.319   3.106  15.904  0.7971  0.4628  1.0186
11052TIP3   OH254646   3.846   3.632  16.936 -0.2566 -0.2419 -0.2177
11052TIP3    H154647   3.899   3.557  16.910 -0.6408 -0.1799 -1.2165
11052TIP3    H254648   3.910   3.703  16.947  0.0461 -0.5735  0.2160
11053TIP3   OH254649   4.198   5.913  15.777  0.7783  0.0949  0.3796
11053TIP3    H154650   4.290   5.906  15.752  0.2426  2.3589 -2.9153
11053TIP3    H254651   4.186   6.004  15.802 -0.5430 -0.2030  0.9176
11054TIP3   OH254652   1.710   1.328  12.421 -0.8178  0.0591  0.2727
11054TIP3    H154653   1.772   1.278  12.368 -0.9199  0.7968 -0.5720
11054TIP3    H254654   1.626   1.284  12.409 -1.0889  0.8932 -1.1746
11055TIP3   OH254655   3.079   1.554  14.048  0.1471  0.1062  0.0176
11055TIP3    H154656   2.985   1.570  14.062  0.1892  1.2787 -0.9007
11055TIP3    H254657   3.114   1.540  14.136 -0.4267  2.3854  0.6700
11056TIP3   OH254658   4.755   5.225   0.623  0.1146 -0.3372 -0.0126
11056TIP3    H154659   4.806   5.306   0.621  2.5064 -1.6889  1.5835
11056TIP3    H254660   4.687   5.241   0.688  0.0782  0.6183 -0.2683
11057TIP3   OH254661   2.635   5.730  11.164 -0.3700  0.0035  0.4747
11057TIP3    H154662   2.703   5.693  11.109 -0.3410  0.7445  0.0079
11057TIP3    H254663   2.664   5.819  11.183 -2.2130  1.1533 -1.5830
11058TIP3   OH254664   4.348   4.918  11.481 -0.0957  0.1709  0.2135
11058TIP3    H154665   4.269   4.902  11.534 -1.1205  1.3001 -0.8966
11058TIP3    H254666   4.317   4.971  11.408  1.4892 -0.4052 -0.9345
11059TIP3   OH254667   0.062   4.455  13.800 -0.5709 -0.2973 -0.9345
11059TIP3    H154668   0.011   4.377  13.823 -0.1693 -0.0587  1.0118
11059TIP3    H254669   0.150   4.420  13.781 -0.0470 -0.2937  1.1715
11060TIP3   OH254670   3.271   5.401   5.440  0.2605 -0.1364  0.3183
11060TIP3    H154671   3.332   5.439   5.503  0.8277 -1.1289  0.3925
11060TIP3    H254672   3.260   5.310   5.469 -0.4621 -0.2507 -0.2829
11061TIP3   OH254673   0.820   6.825   5.778 -0.1290 -0.8297  0.2374
11061TIP3    H154674   0.801   6.909   5.821  0.2674 -1.0059  0.7679
11061TIP3    H254675   0.758   6.821   5.705 -0.8091 -0.5134  0.7888
11062TIP3   OH254676   1.270   4.863  12.047  0.2844 -0.2347  0.0643
11062TIP3    H154677   1.177   4.842  12.038  0.6051 -1.1973 -1.1362
11062TIP3    H254678   1.275   4.908  12.132 -1.1909 -0.6096  0.3895
11063TIP3   OH254679   2.199   1.635  11.924 -0.0136 -0.0579 -0.0593
11063TIP3    H154680   2.121   1.644  11.869 -0.2238  0.0468  0.2561
11063TIP3    H254681   2.217   1.724  11.955  0.3122 -0.0587 -0.2356
11064TIP3   OH254682   6.461   2.314   0.046  0.0945 -0.4345 -0.3123
11064TIP3    H154683   6.528   2.251   0.021 -2.3037 -2.8677 -1.0766
11064TIP3    H254684   6.442   2.295   0.138 -0.4374 -0.6674 -0.4636
11065TIP3   OH254685   4.962   2.771  17.119  0.0577  0.0773 -0.1740
11065TIP3    H154686   5.043   2.811  17.088  0.6092  0.8798  2.1378
11065TIP3    H254687   4.897   2.793  17.051  1.6287 -0.2530 -1.8693
11066TIP3   OH254688   4.408   1.209  14.453 -0.0827 -0.2155 -0.7401
11066TIP3    H154689   4.318   1.197  14.423 -0.0528 -1.1124 -0.5021
11066TIP3    H254690   4.408   1.179  14.544  0.2380  0.7502 -0.3975
11067TIP3   OH254691   4.212   6.072   2.877  0.0937  0.3959 -0.1699
11067TIP3    H154692   4.271   5.998   2.887 -0.1070 -0.0161 -1.7647
11067TIP3    H254693   4.269   6.148   2.867  0.3500  0.1239 -0.8090
11068TIP3   OH254694   4.931   2.076   5.757 -0.4737 -0.1351  0.1354
11068TIP3    H154695   4.974   2.052   5.839  0.3438  0.2645 -0.1647
11068TIP3    H254696   4.847   2.115   5.784  0.4262  1.3629  0.8656
11069TIP3   OH254697   4.853   5.249  12.396  0.0650 -0.0039  0.4249
11069TIP3    H154698   4.859   5.307  12.473 -0.0299  1.0907 -0.3653
11069TIP3    H254699   4.808   5.171  12.429 -0.2364  0.5658  1.4179
11070TIP3   OH254700   6.659   0.501  14.267 -0.1378 -0.6310 -0.1058
11070TIP3    H154701   6.632   0.430  14.325 -0.0023  0.6431  1.6266
11070TIP3    H254702   6.753   0.512  14.285 -0.3907  0.7185  0.5670
11071TIP3   OH254703   2.550   6.263   3.720 -0.3948  0.1122  0.2858
11071TIP3    H154704   2.491   6.248   3.795  0.0432 -0.6245  0.4965
11071TIP3    H254705   2.519   6.203   3.653  1.2864 -1.7663  1.0829
11072TIP3   OH254706   4.358   6.037  16.104 -0.1842  0.5861 -0.0555
11072TIP3    H154707   4.427   5.983  16.065 -0.0378  0.1131  0.8384
11072TIP3    H254708   4.384   6.127  16.083  0.8611  0.4305  0.4917
11073TIP3   OH254709   4.730   4.978   1.506 -0.4342 -0.0594  0.1296
11073TIP3    H154710   4.823   4.978   1.483 -0.4575 -1.6182 -0.0711
11073TIP3    H254711   4.727   5.005   1.597  0.2056  0.1375  0.0951
11074TIP3   OH254712   3.858   1.388   3.119 -0.6478  0.3718 -0.3953
11074TIP3    H154713   3.903   1.398   3.036 -0.0114 -0.5226 -0.1769
11074TIP3    H254714   3.775   1.345   3.097  0.2164 -1.3569 -0.4142
11075TIP3   OH254715   0.959   1.151  14.114  0.6619  0.4073  0.1255
11075TIP3    H154716   1.000   1.192  14.038 -1.1547  0.7118 -0.7443
11075TIP3    H254717   0.866   1.150  14.094 -0.0593  1.5842  2.8249
11076TIP3   OH254718   2.547   3.188   4.225  0.5700  0.0743 -0.5418
11076TIP3    H154719   2.535   3.235   4.307  1.2043  1.5589 -1.2626
11076TIP3    H254720   2.634   3.149   4.233 -0.6711 -2.6872  0.8231
11077TIP3   OH254721   3.261   0.842  11.956 -0.5215 -0.7051  0.0217
11077TIP3    H154722   3.293   0.794  12.033 -1.1712 -0.5299  0.4089
11077TIP3    H254723   3.263   0.934  11.983  2.1167 -0.2965 -1.2028
11078TIP3   OH254724   1.242   4.567   0.374 -0.3055  0.3169  0.4363
11078TIP3    H154725   1.276   4.493   0.323  0.9713  0.5187  0.9382
11078TIP3    H254726   1.187   4.527   0.441 -0.5825 -0.0889 -0.0306
11079TIP3   OH254727   6.650   2.214  11.542  0.1359 -0.2960  0.2402
11079TIP3    H154728   6.707   2.137  11.549 -0.1614 -0.6048 -0.6379
11079TIP3    H254729   6.645   2.232  11.448 -0.7587  0.0750  0.3524
11080TIP3   OH254730   3.184   5.868  13.609  0.3152  0.3892  0.7340
11080TIP3    H154731   3.222   5.781  13.612 -0.6671 -0.0812  0.1206
11080TIP3    H254732   3.139   5.872  13.524  0.5650  1.5897  0.6301
11081TIP3   OH254733   0.578   3.803   1.255 -0.1602 -0.8916 -0.0020
11081TIP3    H154734   0.670   3.798   1.230 -0.1340  1.7024 -0.6884
11081TIP3    H254735   0.555   3.713   1.281  2.3435 -1.7361 -0.4641
11082TIP3   OH254736   1.635   2.016  11.186  0.1786 -0.1177 -0.1826
11082TIP3    H154737   1.638   2.066  11.268  0.4949 -0.8441  0.2594
11082TIP3    H254738   1.558   2.050  11.141  1.3899  2.0688 -0.7507
11083TIP3   OH254739   0.127   1.954   6.447 -0.2199 -0.1907  0.1000
11083TIP3    H154740   0.165   1.884   6.502 -0.8646 -1.0105 -0.4677
11083TIP3    H254741   0.109   1.911   6.363 -0.2115  0.7862 -0.4098
11084TIP3   OH254742   6.234   5.880  13.693  0.3467  0.4395  0.3686
11084TIP3    H154743   6.318   5.899  13.735 -0.7021  0.5205  2.5889
11084TIP3    H254744   6.211   5.793  13.725 -1.0537  0.9957  0.9543
11085TIP3   OH254745   4.374   6.533  15.256  0.8742 -0.1492  0.0708
11085TIP3    H154746   4.294   6.557  15.303  1.0572  0.6201 -0.0015
11085TIP3    H254747   4.343   6.514  15.167  0.9065  1.3652 -0.2985
11086TIP3   OH254748   2.732   3.917  13.644  0.4655 -0.0111  0.0131
11086TIP3    H154749   2.671   3.862  13.594 -0.5481 -0.2756  1.4745
11086TIP3    H254750   2.678   3.986  13.681  1.1266  0.0106  0.9832
11087TIP3   OH254751   5.127   0.084   1.878  0.0229 -0.4849  0.2429
11087TIP3    H154752   5.034   0.102   1.868 -0.2085 -0.0543  2.6164
11087TIP3    H254753   5.160   0.154   1.934  1.3635 -1.6642  1.0004
11088TIP3   OH254754   4.863   3.673  15.098 -0.5487  0.2197 -0.4657
11088TIP3    H154755   4.772   3.671  15.067 -0.3481 -0.2651 -1.0472
11088TIP3    H254756   4.912   3.710  15.026 -0.4191  1.4971  0.2546
11089TIP3   OH254757   5.372   4.128   2.229 -0.1826  0.1325 -0.1124
11089TIP3    H154758   5.461   4.100   2.209  1.2195  2.7043  1.9374
11089TIP3    H254759   5.376   4.224   2.228 -2.0980  0.3836  3.0186
11090TIP3   OH254760   4.339   1.290  11.586  0.0169 -1.2655  0.0508
11090TIP3    H154761   4.263   1.232  11.575 -0.6374 -0.7953  1.7311
11090TIP3    H254762   4.349   1.298  11.681  0.4941  0.8288 -0.1277
11091TIP3   OH254763   0.243   1.314   6.376  0.0236  0.0937 -0.4090
11091TIP3    H154764   0.310   1.292   6.441 -0.2199  0.8171  0.0959
11091TIP3    H254765   0.218   1.404   6.396  0.7418  0.7396 -2.1908
11092TIP3   OH254766   0.738   0.190   4.954  0.6453 -0.4127 -0.7487
11092TIP3    H154767   0.728   0.099   4.925  0.0987 -0.1895 -1.2879
11092TIP3    H254768   0.669   0.238   4.908 -0.3337 -0.0466  1.0155
11093TIP3   OH254769   5.068   6.256  14.061 -0.2463  0.3222  0.6987
11093TIP3    H154770   5.100   6.215  14.141 -0.6232  3.1301  2.4344
11093TIP3    H254771   5.044   6.345  14.088  0.0117  1.5369 -2.6370
11094TIP3   OH254772   4.393   1.066  14.037 -0.2290  0.3220 -0.3262
11094TIP3    H154773   4.425   1.038  14.122  0.2273  1.7149  0.0018
11094TIP3    H254774   4.298   1.072  14.047 -0.2660 -0.4381 -0.2140
11095TIP3   OH254775   6.349   4.627   1.442 -0.7015  0.1491  0.2034
11095TIP3    H154776   6.330   4.543   1.400  0.9268 -0.8567  1.3516
11095TIP3    H254777   6.277   4.684   1.415 -2.8878 -2.1173  0.8617
11096TIP3   OH254778   0.358   3.956   3.601  0.4299 -0.4642  0.0570
11096TIP3    H154779   0.274   3.999   3.583 -0.5575 -2.7354 -1.0408
11096TIP3    H254780   0.422   4.027   3.595 -1.0513  0.7931 -2.1844
11097TIP3   OH254781   3.934   0.001   5.961 -0.4503  0.2338  0.6168
11097TIP3    H154782   3.977  -0.061   5.902 -1.7537  0.0151 -0.1474
11097TIP3    H254783   3.932   0.083   5.912 -2.9893 -0.3396 -0.4095
11098TIP3   OH254784   2.659   6.020   4.036  0.1888  0.0039  0.1863
11098TIP3    H154785   2.632   5.928   4.041 -0.2154 -0.0824 -2.1654
11098TIP3    H254786   2.585   6.069   4.071  0.0789 -0.5346  0.7228
11099TIP3   OH254787   4.420   6.137  15.030 -0.0820 -0.0793  0.2286
11099TIP3    H154788   4.459   6.075  14.969  2.0242  0.5270  0.8717
11099TIP3    H254789   4.326   6.132  15.013  0.1823 -2.1448 -0.9271
11100TIP3   OH254790   2.694   2.835  14.897 -0.1500  0.5699  0.2076
11100TIP3    H154791   2.636   2.880  14.957 -1.4220  0.6460 -1.0344
11100TIP3    H254792   2.734   2.905  14.844 -1.8708  0.3569 -1.4935
11101TIP3   OH254793   3.683   3.834  17.034 -0.0313  0.0062 -0.2543
11101TIP3    H154794   3.705   3.831  17.127 -1.2486 -0.0560  0.0475
11101TIP3    H254795   3.717   3.752  16.999  0.4187  0.0193  0.1342
11102TIP3   OH254796   2.439   1.138   1.333  0.2859 -0.3278  0.5729
11102TIP3    H154797   2.390   1.064   1.370  0.7177  0.2757  2.4319
11102TIP3    H254798   2.384   1.169   1.261 -0.8176 -1.2617  0.9695
11103TIP3   OH254799   2.555   5.879  15.917 -0.3468  0.0204 -0.2447
11103TIP3    H154800   2.506   5.952  15.880  0.4030 -0.3108 -2.0523
11103TIP3    H254801   2.563   5.898  16.010 -0.1140  2.2674 -0.6776
11104TIP3   OH254802   0.976   6.300  13.719  0.2975  0.1810  0.3748
11104TIP3    H154803   0.973   6.392  13.746  1.8340  0.1333  0.8279
11104TIP3    H254804   1.049   6.263  13.769  1.3197 -0.6718 -1.6481
11105TIP3   OH254805   4.974   3.231  14.878  0.6996 -0.5965 -0.0288
11105TIP3    H154806   5.044   3.245  14.815  1.4291  0.0307  0.8946
11105TIP3    H254807   5.011   3.260  14.962 -0.3969 -0.9815  0.6076
11106TIP3   OH254808   2.561   6.380   1.887  0.0233  0.8178  0.2292
11106TIP3    H154809   2.529   6.344   1.969  0.0323  1.4589  0.5257
11106TIP3    H254810   2.650   6.409   1.905  0.7105 -0.7188 -0.5260
11107TIP3   OH254811   3.588   1.357  11.838 -0.1663  0.5574 -0.3512
11107TIP3    H154812   3.618   1.425  11.898 -0.8396  1.0601 -0.5617
11107TIP3    H254813   3.603   1.394  11.751  0.9176 -0.2176 -0.5106
11108TIP3   OH254814   6.593   6.631   5.051  0.3350 -0.7695 -0.7255
11108TIP3    H154815   6.639   6.714   5.062  2.2405 -1.8222 -0.3762
11108TIP3    H254816   6.500   6.654   5.063  0.9519  0.9454  1.5812
11109TIP3   OH254817   6.833   4.528  14.681  0.0283 -0.1859  0.5261
11109TIP3    H154818   6.813   4.620  14.701 -0.3188 -0.1515  0.0592
11109TIP3    H254819   6.908   4.507  14.735  0.5627  0.6028  0.1162
11110TIP3   OH254820   5.611   3.345  11.583 -0.7509  0.7267 -0.4466
11110TIP3    H154821   5.590   3.284  11.511  0.3806  0.9258 -0.9745
11110TIP3    H254822   5.538   3.335  11.644 -1.2794 -0.1458 -1.1751
11111TIP3   OH254823   1.916   4.177   2.041 -0.1513 -0.5613 -0.1665
11111TIP3    H154824   1.956   4.094   2.018 -1.6008 -1.0290 -1.1655
11111TIP3    H254825   1.873   4.206   1.961 -0.6698  0.5597  0.4924
11112TIP3   OH254826   6.029   0.199   4.327  0.0439 -0.3871  0.4210
11112TIP3    H154827   6.073   0.114   4.336 -1.7057 -1.4450 -0.4392
11112TIP3    H254828   6.000   0.220   4.416 -0.7320 -1.4268  0.4416
11113TIP3   OH254829   2.044   2.733   1.941 -0.1739 -0.1529 -0.4591
11113TIP3    H154830   1.998   2.794   2.000  0.3212  0.4093 -0.6415
11113TIP3    H254831   2.041   2.776   1.856  0.9648  0.0510 -0.4095
11114TIP3   OH254832   6.630   3.631  11.711 -0.1321 -0.5410  0.1991
11114TIP3    H154833   6.671   3.632  11.797 -1.8941 -2.0453  1.1359
11114TIP3    H254834   6.676   3.563  11.663 -0.0990 -0.7199  0.4818
11115TIP3   OH254835   6.058   5.245   1.569  0.3159 -0.5189  0.0438
11115TIP3    H154836   6.133   5.301   1.550  0.9434 -0.9073  1.2804
11115TIP3    H254837   5.990   5.305   1.600  1.0254 -0.4175  1.4765
11116TIP3   OH254838   4.546   0.554  15.078 -0.3784 -0.5846 -0.2951
11116TIP3    H154839   4.564   0.547  14.984 -1.6977  0.6685 -0.6778
11116TIP3    H254840   4.587   0.636  15.105 -0.3517 -0.7385  0.1443
11117TIP3   OH254841   4.397   2.827  16.495  0.0064 -0.0460 -0.2602
11117TIP3    H154842   4.426   2.917  16.480  0.7912 -0.1473  0.5796
11117TIP3    H254843   4.478   2.778  16.510 -0.5269 -0.5044  1.2781
11118TIP3   OH254844   6.703   3.919  12.432  0.2893 -0.2201 -0.0931
11118TIP3    H154845   6.760   3.845  12.451  0.8992  0.3893  0.4975
11118TIP3    H254846   6.761   3.995  12.436  0.2180  0.1040 -3.1551
11119TIP3   OH254847   2.217   6.758   4.617  0.7116 -0.2708  0.2896
11119TIP3    H154848   2.134   6.710   4.611  1.7244 -1.9704 -1.0800
11119TIP3    H254849   2.276   6.699   4.664  1.0851  1.0801  1.5995
11120TIP3   OH254850   1.222   3.453   1.862  0.0875 -0.2918  0.3423
11120TIP3    H154851   1.167   3.482   1.935 -0.0685  1.4399 -0.4217
11120TIP3    H254852   1.245   3.533   1.816  0.8883 -1.2722 -1.0329
11121TIP3   OH254853   0.469   1.350  16.839  0.4916 -0.0174 -0.1572
11121TIP3    H154854   0.515   1.432  16.828  2.4484 -1.0270  0.1328
11121TIP3    H254855   0.455   1.342  16.933 -0.5076  0.3815 -0.2607
11122TIP3   OH254856   1.042   6.535   3.557  0.3174  0.3115 -0.2315
11122TIP3    H154857   1.116   6.535   3.497  0.9069 -2.3332  0.3583
11122TIP3    H254858   0.969   6.503   3.504  0.5743 -0.9087  0.1056
11123TIP3   OH254859   0.803   3.560  10.950  0.5238  0.0492  0.5485
11123TIP3    H154860   0.819   3.616  10.874  2.0478 -0.3753  0.5118
11123TIP3    H254861   0.709   3.563  10.963  0.4810  2.1220  0.1615
11124TIP3   OH254862   0.151   6.229   5.350  0.0422  0.6432  0.0255
11124TIP3    H154863   0.160   6.322   5.330  0.4336  0.5102 -0.4302
11124TIP3    H254864   0.077   6.224   5.411 -0.7213  1.1335 -0.8374
11125TIP3   OH254865   3.641   1.251   6.088 -0.0150 -0.3040  0.2961
11125TIP3    H154866   3.628   1.329   6.034  0.4454  0.0181  0.6538
11125TIP3    H254867   3.736   1.242   6.095 -0.0444 -1.3884 -0.4544
11126TIP3   OH254868   2.987   3.474   2.488  0.2313 -0.1067  0.1199
11126TIP3    H154869   2.982   3.447   2.397 -1.2262  0.0694  0.1278
11126TIP3    H254870   3.047   3.411   2.528 -1.0913 -1.7889 -0.4230
11127TIP3   OH254871   1.399   4.538  16.287  0.0693 -0.0504 -0.2809
11127TIP3    H154872   1.335   4.470  16.266  0.2196 -0.1589 -0.3906
11127TIP3    H254873   1.429   4.515  16.375 -0.0823  0.0300 -0.2080
11128TIP3   OH254874   0.852   3.456  15.486  0.1195  0.1302 -0.2039
11128TIP3    H154875   0.770   3.490  15.522  0.9717  2.6541 -0.4731
11128TIP3    H254876   0.872   3.380  15.542 -2.3907 -0.6470 -0.1982
11129TIP3   OH254877   3.082   0.427   0.336  0.2133  0.3545  0.0088
11129TIP3    H154878   3.113   0.357   0.279 -1.9246  1.1969 -2.4123
11129TIP3    H254879   3.129   0.505   0.305  0.4895  0.5004  0.7757
11130TIP3   OH254880   0.652   3.787  15.364 -0.8618  0.2294 -0.0381
11130TIP3    H154881   0.614   3.869  15.334 -0.5545  1.2829  2.2588
11130TIP3    H254882   0.653   3.731  15.286  0.3626  2.8740 -2.0681
11131TIP3   OH254883   1.222   2.223   5.212 -0.5037  0.6028  0.6190
11131TIP3    H154884   1.273   2.143   5.223 -1.8540 -0.1650  1.6012
11131TIP3    H254885   1.259   2.264   5.134 -0.4249 -1.4900 -0.5388
11132TIP3   OH254886   1.191   1.682  15.164 -0.5451  0.3294  0.3549
11132TIP3    H154887   1.250   1.657  15.094  0.2712  0.7545  0.8686
11132TIP3    H254888   1.119   1.727  15.120  0.1309  0.9083 -0.1820
11133TIP3   OH254889   2.217   1.168  15.701 -0.2488 -0.1044 -0.1668
11133TIP3    H154890   2.159   1.131  15.767 -0.3291 -0.2503 -0.3172
11133TIP3    H254891   2.234   1.096  15.640  0.9639 -0.3713  0.4506
11134TIP3   OH254892   5.148   4.071  16.289 -0.0508  0.1312  0.0962
11134TIP3    H154893   5.201   4.150  16.276 -1.9073  1.3369 -0.4712
11134TIP3    H254894   5.060   4.096  16.262 -0.4011 -2.6282 -1.6580
11135TIP3   OH254895   5.986   6.395  12.215  0.1946  0.2369 -0.1081
11135TIP3    H154896   5.915   6.458  12.203  0.7394  0.7998 -0.4683
11135TIP3    H254897   5.964   6.349  12.296 -0.6867  0.2484 -0.3320
11136TIP3   OH254898   6.535   3.274   2.537 -0.3230  0.0148 -0.0310
11136TIP3    H154899   6.601   3.313   2.480  0.8457 -0.7745  0.7617
11136TIP3    H254900   6.529   3.334   2.612 -2.8904  1.8400 -1.5092
11137TIP3   OH254901   4.087   3.580  13.823 -0.4300 -0.0211 -0.3693
11137TIP3    H154902   4.112   3.489  13.837 -0.4801 -0.0005 -0.1509
11137TIP3    H254903   3.993   3.576  13.804 -0.6685  0.0909  0.7416
11138TIP3   OH254904   4.609   0.541  11.505  0.0156  0.4411 -0.0100
11138TIP3    H154905   4.599   0.631  11.475  0.4502  0.0674 -1.3145
11138TIP3    H254906   4.695   0.514  11.474 -0.3357 -0.6015 -0.1114
11139TIP3   OH254907   2.582   4.518   6.255  0.1034  0.8191 -0.2214
11139TIP3    H154908   2.556   4.434   6.292  0.9189  0.3207 -0.7440
11139TIP3    H254909   2.638   4.496   6.181 -0.7688  1.8042 -1.2139
11140TIP3   OH254910   2.253   5.390   4.361 -0.2171  0.0835 -0.3334
11140TIP3    H154911   2.332   5.444   4.357  0.8308 -1.3747 -0.2542
11140TIP3    H254912   2.257   5.336   4.282 -0.9942 -0.1994 -0.1849
11141TIP3   OH254913   5.617   5.960  11.339  0.8649 -0.2468 -0.3185
11141TIP3    H154914   5.596   5.895  11.407 -0.9033  2.0479  1.5053
11141TIP3    H254915   5.712   5.970  11.344  0.7468  0.3165  2.3609
11142TIP3   OH254916   6.746   5.070   5.435 -0.3923 -0.0704 -0.6411
11142TIP3    H154917   6.799   5.137   5.476  0.6224 -0.7797 -0.7372
11142TIP3    H254918   6.802   4.992   5.433 -1.7041 -1.0870 -0.0524
11143TIP3   OH254919   1.268   1.300   1.871  0.1302 -0.1756 -0.0943
11143TIP3    H154920   1.319   1.225   1.842 -0.9981 -0.9508 -0.1553
11143TIP3    H254921   1.179   1.282   1.840 -0.3233  0.8153  0.5618
11144TIP3   OH254922   2.648   5.682   0.763 -0.3457  0.0590  0.0920
11144TIP3    H154923   2.574   5.676   0.824 -2.2190  0.6625 -1.9846
11144TIP3    H254924   2.676   5.773   0.768 -0.3101  0.0389  0.2591
11145TIP3   OH254925   0.126   3.652   3.584 -0.4816  0.3072  0.0247
11145TIP3    H154926   0.220   3.642   3.596 -0.2966  1.8926  0.1053
11145TIP3    H254927   0.091   3.656   3.673 -0.5097  0.6207  0.0005
11146TIP3   OH254928   2.961   3.768  11.232  0.0825 -0.3304 -0.0634
11146TIP3    H154929   3.052   3.743  11.251  0.0928 -1.4005 -1.3677
11146TIP3    H254930   2.926   3.694  11.183 -1.8506 -0.4037  1.3354
11147TIP3   OH254931   4.170   2.033   4.020 -0.2769  0.4579 -0.0574
11147TIP3    H154932   4.248   2.022   4.076 -1.0802 -1.6459  0.7599
11147TIP3    H254933   4.104   1.977   4.060 -1.3954  0.0897 -2.2691
11148TIP3   OH254934   5.238   3.231  13.811  0.4427 -1.4548 -0.1852
11148TIP3    H154935   5.233   3.255  13.719  0.2634 -1.2567 -0.1255
11148TIP3    H254936   5.291   3.152  13.813  2.8057  0.0285 -0.1917
11149TIP3   OH254937   1.035   4.188   0.968 -0.2591  0.0651  0.4867
11149TIP3    H154938   1.064   4.278   0.981 -2.1322  0.8028 -0.1225
11149TIP3    H254939   0.989   4.188   0.884 -1.3551 -1.1503  1.0257
11150TIP3   OH254940   4.367   3.712  12.125 -0.3958 -0.0518 -0.0373
11150TIP3    H154941   4.460   3.702  12.143 -0.3726  0.3234  0.0555
11150TIP3    H254942   4.333   3.622  12.124 -0.1670 -0.1558  0.6598
11151TIP3   OH254943   1.533   5.571   3.569  0.2897 -0.0767 -0.0133
11151TIP3    H154944   1.453   5.620   3.548  0.6061  1.6751  2.4637
11151TIP3    H254945   1.506   5.507   3.634  0.6794 -0.3163 -0.0828
11152TIP3   OH254946   6.166   4.030   0.034 -0.0042  0.0225 -0.3303
11152TIP3    H154947   6.134   4.019  -0.055 -1.0029  1.0589 -0.1117
11152TIP3    H254948   6.097   3.994   0.090 -0.2715  1.1750  0.0976
11153TIP3   OH254949   4.140   3.259   5.626 -0.6508  0.2687 -0.1092
11153TIP3    H154950   4.111   3.190   5.685 -0.4725  0.2169 -0.0831
11153TIP3    H254951   4.217   3.297   5.669 -0.8728  0.6210 -0.0200
11154TIP3   OH254952   2.138   4.944  15.005  0.3512 -0.3901 -0.0402
11154TIP3    H154953   2.097   4.962  15.090 -0.5799 -0.7799 -0.3913
11154TIP3    H254954   2.116   5.021  14.952  0.9642 -0.1297  0.0716
11155TIP3   OH254955   0.583   3.545  12.590 -0.0463  0.3438 -0.4795
11155TIP3    H154956   0.493   3.515  12.574  0.2019  0.1942 -1.7042
11155TIP3    H254957   0.582   3.637  12.562 -0.5312  1.2688  2.2600
11156TIP3   OH254958   4.639   2.437   3.107  0.3780 -0.1963  0.0523
11156TIP3    H154959   4.566   2.494   3.133  1.2801  1.9832 -1.8625
11156TIP3    H254960   4.716   2.494   3.109  2.1798 -2.4701  2.2012
11157TIP3   OH254961   3.795   5.523   4.208  0.3403  0.2448  0.3830
11157TIP3    H154962   3.816   5.603   4.161  2.2876  0.4217  1.4675
11157TIP3    H254963   3.748   5.552   4.286  2.6543  0.6088  1.7473
11158TIP3   OH254964   6.518   5.369   3.883 -0.3724 -0.0564 -0.4659
11158TIP3    H154965   6.550   5.445   3.834  0.7148  1.3427  2.1906
11158TIP3    H254966   6.431   5.394   3.912  0.4523  0.7799  1.4407
11159TIP3   OH254967   2.837   4.189  12.630 -0.0243  0.6632 -0.3207
11159TIP3    H154968   2.798   4.157  12.549 -0.1342  0.1154 -0.0537
11159TIP3    H254969   2.922   4.224  12.604  1.1557 -1.9740 -0.3096
11160TIP3   OH254970   5.494   6.466   3.450  0.1901 -0.0141  0.5313
11160TIP3    H154971   5.502   6.551   3.406 -1.7456  0.0979  0.3349
11160TIP3    H254972   5.453   6.486   3.534  0.1292 -0.7123  0.6740
11161TIP3   OH254973   6.133   5.274  15.333 -0.2326 -0.7219  0.1313
11161TIP3    H154974   6.201   5.332  15.299  0.3122 -1.5569 -0.2668
11161TIP3    H254975   6.169   5.186  15.320 -0.6764 -1.1213  1.4811
11162TIP3   OH254976   1.387   5.670  16.177 -0.5015 -0.1524  0.2888
11162TIP3    H154977   1.394   5.660  16.271  0.6837  3.6257  0.7891
11162TIP3    H254978   1.302   5.711  16.163 -0.1199  0.5374 -0.0903
11163TIP3   OH254979   6.402   0.769  11.288  0.1635  0.3540 -0.0172
11163TIP3    H154980   6.400   0.753  11.382  1.3926 -0.1523 -0.0603
11163TIP3    H254981   6.446   0.854  11.280  0.8460 -0.0069 -0.1652
11164TIP3   OH254982   4.877   4.033   2.785 -0.4773  0.2032 -0.0447
11164TIP3    H154983   4.856   3.941   2.766 -1.1751  0.2586  0.3901
11164TIP3    H254984   4.905   4.070   2.702 -0.1175 -0.4291 -0.2060
11165TIP3   OH254985   2.070   4.931  12.982 -0.1426  0.1476  0.1094
11165TIP3    H154986   2.150   4.969  12.944  0.5139 -1.5255 -0.2865
11165TIP3    H254987   2.097   4.845  13.013 -1.1908  0.5953  2.4666
11166TIP3   OH254988   1.614   0.393  11.980  0.1364  0.1245  0.0076
11166TIP3    H154989   1.654   0.392  12.067  2.4541  1.2312 -0.9667
11166TIP3    H254990   1.676   0.346  11.924  0.0384  1.6983 -1.5271
11167TIP3   OH254991   5.117   1.553  14.792 -0.4092  0.5633  0.6369
11167TIP3    H154992   5.069   1.512  14.720  1.6609 -0.8470 -0.0123
11167TIP3    H254993   5.181   1.610  14.748  1.5287 -1.0532  1.2596
11168TIP3   OH254994   0.037   6.479  11.473  0.2953 -0.3617 -0.4443
11168TIP3    H154995   0.042   6.421  11.549 -0.2320  0.0000 -0.1210
11168TIP3    H254996  -0.045   6.456  11.431 -0.3891  0.7529  0.2129
11169TIP3   OH254997   0.108   3.827   2.675  0.1620 -0.2805 -0.3232
11169TIP3    H154998   0.016   3.813   2.657 -0.3333  4.2591 -2.5580
11169TIP3    H254999   0.154   3.768   2.615 -1.2025 -1.6826 -0.0546
11170TIP3   OH255000   5.933   2.361   5.807 -0.0684  0.0778 -0.8476
11170TIP3    H155001   5.910   2.316   5.725  0.6832 -0.7730 -0.6124
11170TIP3    H255002   6.021   2.329   5.827 -0.7026 -0.6722  0.9401
11171TIP3   OH255003   3.641   4.633   3.911 -0.3347 -0.8075  0.4106
11171TIP3    H155004   3.625   4.723   3.941  0.2662 -1.0373  1.4618
11171TIP3    H255005   3.646   4.640   3.816 -0.9869  0.1623  0.4316
11172TIP3   OH255006   5.307   5.741   5.235 -0.4632 -0.4900 -0.0521
11172TIP3    H155007   5.326   5.835   5.231 -1.2587 -0.3569 -1.6036
11172TIP3    H255008   5.360   5.703   5.164 -2.8163 -0.6381 -1.8751
11173TIP3   OH255009   5.004   5.286   5.010  1.0143 -0.2140 -0.3002
11173TIP3    H155010   4.978   5.206   5.056  2.7996 -1.2488 -0.9477
11173TIP3    H255011   5.029   5.347   5.079  1.7396 -1.0340  0.1858
11174TIP3   OH255012   6.078   6.700   1.099 -1.0069  0.0700 -0.0713
11174TIP3    H155013   5.985   6.687   1.118 -0.6571  0.5253  2.2999
11174TIP3    H255014   6.123   6.664   1.175  0.8322 -0.7542 -1.4789
11175TIP3   OH255015   1.513   6.767   5.189  0.0066  0.0180  0.0173
11175TIP3    H155016   1.454   6.832   5.153 -0.4682 -0.8992 -0.9182
11175TIP3    H255017   1.457   6.712   5.244  0.0026 -0.7347 -0.7142
11176TIP3   OH255018   6.823   3.787   3.965  0.3396 -0.3068 -0.1395
11176TIP3    H155019   6.849   3.742   4.046 -0.2937  0.8169  0.7206
11176TIP3    H255020   6.782   3.718   3.912  0.1596 -0.9306  0.7825
11177TIP3   OH255021   2.262   5.498  15.217  0.0348  0.7705 -0.0775
11177TIP3    H155022   2.180   5.504  15.266  0.4549  0.6831  0.6392
11177TIP3    H255023   2.301   5.585  15.224  1.1358  0.1777  1.5879
11178TIP3   OH255024   0.404   1.282  16.031  0.3926  0.2965  0.4117
11178TIP3    H155025   0.500   1.284  16.035  0.3421  0.8139  2.4570
11178TIP3    H255026   0.378   1.238  16.112 -1.1129  0.0060 -0.2016
11179TIP3   OH255027   3.114   5.565   3.516 -0.6558 -0.0635  0.0726
11179TIP3    H155028   3.192   5.590   3.566 -0.7083 -1.5302  0.9441
11179TIP3    H255029   3.148   5.533   3.433 -0.2419 -1.3775  0.7222
11180TIP3   OH255030   2.782   5.233   1.849 -0.3743 -0.1862 -0.1538
11180TIP3    H155031   2.749   5.172   1.915  1.5216 -0.5668  0.4998
11180TIP3    H255032   2.764   5.191   1.765 -1.9817 -0.1201  0.1274
11181TIP3   OH255033   0.108   4.179   3.006  0.4712  0.3224  0.0550
11181TIP3    H155034   0.118   4.124   3.083  2.1539  0.0063 -0.3579
11181TIP3    H255035   0.105   4.117   2.932  4.4473  0.7133 -0.6209
11182TIP3   OH255036   0.250   0.017   5.631 -0.0335 -0.4950  0.2751
11182TIP3    H155037   0.214   0.033   5.544  1.3824  0.0796 -0.2280
11182TIP3    H255038   0.325  -0.040   5.616  0.3175 -0.2691  1.1090
11183TIP3   OH255039   6.450   4.925   6.779 -0.3423  0.3833  0.0861
11183TIP3    H155040   6.388   4.901   6.710 -0.6081  0.0545  0.4337
11183TIP3    H255041   6.417   5.008   6.814 -0.5058  0.2857  0.1668
11184TIP3   OH255042   6.538   3.220   0.802  0.3888  0.5300  0.3775
11184TIP3    H155043   6.516   3.311   0.784  1.6625  0.9016  0.5803
11184TIP3    H255044   6.490   3.170   0.736 -0.6262  1.3065  0.5077
11185TIP3   OH255045   1.464   3.118  11.624  0.0901  0.1679 -0.1837
11185TIP3    H155046   1.478   3.152  11.536 -0.0389 -0.4303 -0.4383
11185TIP3    H255047   1.387   3.062  11.615  1.0494 -1.1967 -0.0381
11186TIP3   OH255048   1.320   2.692  14.753  0.0225 -0.2186  0.0322
11186TIP3    H155049   1.256   2.626  14.778  0.1812 -0.3926 -0.0125
11186TIP3    H255050   1.297   2.769  14.804  0.5262 -0.6554  0.9497
11187TIP3   OH255051   6.408   5.487   0.863 -0.3043  0.0480  0.4058
11187TIP3    H155052   6.409   5.410   0.920  1.3400 -0.4851 -0.2785
11187TIP3    H255053   6.405   5.561   0.923  0.2886 -0.5196  1.1565
11188TIP3   OH255054   3.866   6.838   5.004  0.1818  0.1253 -0.5074
11188TIP3    H155055   3.848   6.849   5.097 -1.5677 -2.2061 -0.4843
11188TIP3    H255056   3.784   6.863   4.961  0.2345 -0.9226 -1.2360
11189TIP3   OH255057   4.368   2.475  15.016  0.1682  0.0334  0.7988
11189TIP3    H155058   4.392   2.478  15.108  3.4474 -0.6679  0.1040
11189TIP3    H255059   4.349   2.383  14.999  0.3392  0.0294  0.6196
11190TIP3   OH255060   0.714   6.763  15.040  0.4398 -0.2283 -0.4587
11190TIP3    H155061   0.795   6.731  15.080  0.6959  1.9005  0.8913
11190TIP3    H255062   0.742   6.803  14.958  0.6835 -0.0704 -0.3009
11191TIP3   OH255063   4.304   6.526   3.538 -0.0287  0.1640  0.0326
11191TIP3    H155064   4.266   6.589   3.600 -1.4467 -0.9064  0.2991
11191TIP3    H255065   4.296   6.442   3.582  0.1578 -0.4435 -1.0731
11192TIP3   OH255066   5.301   3.448   2.760  0.7390  0.0990  0.3220
11192TIP3    H155067   5.296   3.466   2.854 -1.7038  0.5314  0.1896
11192TIP3    H255068   5.226   3.390   2.743  1.7898 -0.8952 -1.1935
11193TIP3   OH255069   6.114   1.963   3.179 -0.0133 -0.0257  0.1123
11193TIP3    H155070   6.115   2.058   3.188  0.0190  0.0952 -1.0367
11193TIP3    H255071   6.134   1.947   3.087 -0.6231 -1.1305  0.1497
11194TIP3   OH255072   3.630   2.773   0.082  0.3288  0.0943 -0.7295
11194TIP3    H155073   3.611   2.768   0.176  2.2639 -3.1547 -0.3512
11194TIP3    H255074   3.674   2.857   0.071  1.8964 -0.2777  1.7539
11195TIP3   OH255075   1.867   1.507  12.099 -0.0830 -0.2457 -0.6466
11195TIP3    H155076   1.907   1.436  12.149  0.2751 -0.6360 -1.4693
11195TIP3    H255077   1.776   1.481  12.088 -0.5525  0.5413  1.0435
11196TIP3   OH255078   0.227   3.201  12.830  0.2805  0.8562  0.0760
11196TIP3    H155079   0.157   3.164  12.776  0.5725  0.0816  0.2137
11196TIP3    H255080   0.249   3.131  12.892  0.0314  1.6797  1.1262
11197TIP3   OH255081   2.719   4.489  17.055 -0.4700  0.2135 -0.2479
11197TIP3    H155082   2.794   4.547  17.070 -0.8196  0.3406  1.1697
11197TIP3    H255083   2.650   4.548  17.026 -0.6887  0.4594  0.7367
11198TIP3   OH255084   1.422   4.132   4.977  0.8879 -0.3015 -0.0341
11198TIP3    H155085   1.450   4.052   4.931  0.6052 -0.8802  0.7794
11198TIP3    H255086   1.399   4.193   4.906  1.0636 -0.9523 -0.6678
11199TIP3   OH255087   2.091   1.739   2.870  0.2548  0.1198  0.3696
11199TIP3    H155088   2.093   1.812   2.808 -0.4742 -1.3365 -1.4484
11199TIP3    H255089   2.011   1.755   2.922 -0.1478  0.3913 -0.3182
11200TIP3   OH255090   0.910   1.801   4.293  0.4940 -0.5261 -0.4954
11200TIP3    H155091   0.884   1.793   4.201 -1.1391  0.1708 -0.1350
11200TIP3    H255092   0.874   1.886   4.320  2.2382 -0.0259  0.4043
11201TIP3   OH255093   2.256   1.625  12.753  0.2249 -0.3307  0.2682
11201TIP3    H155094   2.272   1.716  12.729 -1.3297 -0.2790 -0.7093
11201TIP3    H255095   2.161   1.615  12.750  0.2026 -1.4667  2.4120
11202TIP3   OH255096   0.728   1.995   5.845 -0.0008  0.0608 -0.1026
11202TIP3    H155097   0.795   2.055   5.813  0.9417 -0.5397  0.6474
11202TIP3    H255098   0.777   1.915   5.867 -0.9825 -0.4305  0.3550
11203TIP3   OH255099   1.064   5.445   3.799  0.4048  0.4065 -0.4461
11203TIP3    H155100   1.139   5.482   3.845  0.9240 -1.2300  0.1153
11203TIP3    H255101   1.102   5.400   3.724 -0.0866  0.1355 -0.5375
11204TIP3   OH255102   5.089   1.200  13.777  0.1973 -0.3000  0.2902
11204TIP3    H155103   4.999   1.168  13.783 -0.1743  0.3043 -1.5141
11204TIP3    H255104   5.089   1.283  13.825  0.1805 -0.9792  1.5202
11205TIP3   OH255105   5.276   5.208   3.999 -0.5415 -0.0128 -0.5888
11205TIP3    H155106   5.310   5.122   3.975 -2.2939 -0.6523 -0.8868
11205TIP3    H255107   5.185   5.192   4.024  0.0047  1.1953  2.7740
11206TIP3   OH255108   0.375   3.381  11.833 -0.3239  0.3869 -0.4278
11206TIP3    H155109   0.329   3.452  11.788  0.5541  2.0653  1.1881
11206TIP3    H255110   0.322   3.364  11.911  0.1875  0.1932 -0.1224
11207TIP3   OH255111   6.218   3.202  11.695 -0.2311 -0.8549  0.0552
11207TIP3    H155112   6.197   3.276  11.752  0.5662 -0.3131 -0.3389
11207TIP3    H255113   6.258   3.242  11.618 -0.8233 -1.6110 -0.6716
11208TIP3   OH255114   4.929   4.567  14.546  0.1312  0.1860  0.1096
11208TIP3    H155115   4.865   4.501  14.573 -0.6905  0.6629 -0.6080
11208TIP3    H255116   4.992   4.570  14.618  0.4580 -1.7123 -0.0468
11209TIP3   OH255117   4.583   5.266   6.618 -0.0401 -0.4172  0.1077
11209TIP3    H155118   4.521   5.325   6.662  1.0500  0.4506  0.5370
11209TIP3    H255119   4.629   5.322   6.555  1.7281 -0.5360  1.2262
11210TIP3   OH255120   1.571   0.078  13.989  0.1788 -0.2195 -0.1151
11210TIP3    H155121   1.642   0.138  14.016  2.0372 -2.1422 -0.4254
11210TIP3    H255122   1.539   0.042  14.072 -0.9216  1.1209  0.0703
11211TIP3   OH255123   0.232   0.691  13.105  0.0897 -0.2861 -0.4432
11211TIP3    H155124   0.277   0.771  13.130  1.4307 -1.5367  1.3770
11211TIP3    H255125   0.143   0.719  13.084  0.2662  1.5669  1.0360
11212TIP3   OH255126   1.874   1.211  15.937 -0.1346 -0.2992  0.2166
11212TIP3    H155127   1.835   1.281  15.884  1.4023  0.3349 -0.1273
11212TIP3    H255128   1.884   1.249  16.024 -0.2521 -0.4395  0.2911
11213TIP3   OH255129   0.575   0.686   2.586 -0.4009  0.2107 -0.5871
11213TIP3    H155130   0.490   0.686   2.628  1.0745 -0.9535  2.7340
11213TIP3    H255131   0.618   0.607   2.618  1.7421  0.4626 -2.5876
11214TIP3   OH255132   0.129   1.080   5.972  0.0346  0.1162  0.2733
11214TIP3    H155133   0.052   1.118   5.929  0.9053  1.1659 -0.4280
11214TIP3    H255134   0.117   0.986   5.965 -1.5833  0.2489  0.9099
11215TIP3   OH255135   4.772   3.502   4.441 -0.2474 -0.2185 -0.1250
11215TIP3    H155136   4.804   3.427   4.391  1.9589  0.1567  0.6141
11215TIP3    H255137   4.815   3.493   4.526 -0.0941  1.7733  0.0410
11216TIP3   OH255138   1.148   1.557   6.357  0.1478 -0.3589 -0.1303
11216TIP3    H155139   1.149   1.475   6.307  1.2472  0.1881 -1.0405
11216TIP3    H255140   1.059   1.561   6.394  0.1754 -2.1350  0.2531
11217TIP3   OH255141   5.582   6.186   2.749 -0.0536  0.3936  0.3872
11217TIP3    H155142   5.552   6.258   2.692 -2.2529 -0.6123  0.1447
11217TIP3    H255143   5.609   6.229   2.830 -1.6845  1.5096  0.3874
11218TIP3   OH255144   5.895   5.139   1.975 -0.5432 -0.1898  0.4384
11218TIP3    H155145   5.909   5.099   1.889  1.8173  0.0193  0.6727
11218TIP3    H255146   5.922   5.072   2.037  0.5910  0.6908  0.9185
11219TIP3   OH255147   3.910   0.787   3.617 -0.0538  0.5454 -0.1702
11219TIP3    H155148   3.959   0.712   3.651 -0.2527 -0.7645 -2.5544
11219TIP3    H255149   3.819   0.769   3.641  0.0489  0.6128  0.2673
11220TIP3   OH255150   3.538   2.289   6.206  0.1730  0.3565 -0.2016
11220TIP3    H155151   3.549   2.227   6.278  0.4923  0.4717 -0.1518
11220TIP3    H255152   3.492   2.238   6.138 -1.8581  0.7810  0.7808
11221TIP3   OH255153   1.634   1.224  14.529  0.2173 -0.2228 -0.3709
11221TIP3    H155154   1.640   1.179  14.613  1.8124 -0.1387 -0.3977
11221TIP3    H255155   1.543   1.213  14.502 -0.2277 -0.5719  1.1757
11222TIP3   OH255156   3.853   3.709  15.785 -0.4894 -0.2966 -0.1068
11222TIP3    H155157   3.853   3.794  15.829 -0.8367  0.3927 -1.3970
11222TIP3    H255158   3.836   3.729  15.694 -1.0051 -1.8040 -0.3685
11223TIP3   OH255159   2.148   1.416   1.758 -0.1216 -0.2769 -0.0845
11223TIP3    H155160   2.239   1.445   1.766  1.0041 -3.5605  0.4982
11223TIP3    H255161   2.133   1.410   1.663  0.4706 -0.2534 -0.1856
11224TIP3   OH255162   4.319   5.683  14.994  0.2834  0.2008 -0.4481
11224TIP3    H155163   4.248   5.720  15.047  1.7903  0.2924  1.6462
11224TIP3    H255164   4.355   5.757  14.946  0.5012  0.6431  0.3759
11225TIP3   OH255165   4.245   6.686  13.309 -0.4216 -0.0696  0.0756
11225TIP3    H155166   4.229   6.604  13.354 -0.9149 -0.6767 -1.1505
11225TIP3    H255167   4.336   6.681  13.281  0.4590  1.1010  2.5087
11226TIP3   OH255168   1.014   4.392   2.005 -0.3740 -0.1031  0.3243
11226TIP3    H155169   1.041   4.481   1.980 -0.7322  0.3046  1.3549
11226TIP3    H255170   1.093   4.339   1.990 -0.4832  0.1522 -1.3741
11227TIP3   OH255171   2.262   4.941   1.422  0.4646 -0.0270 -0.1563
11227TIP3    H155172   2.206   4.987   1.484  1.6138  0.0367  0.8971
11227TIP3    H255173   2.219   4.857   1.408 -0.1941  0.2554  0.1594
11228TIP3   OH255174   2.676   3.277   3.952 -0.1463  0.1023 -1.0479
11228TIP3    H155175   2.581   3.268   3.941 -0.3271  0.2493  0.2453
11228TIP3    H255176   2.708   3.187   3.961 -0.5137  0.1202  0.9421
11229TIP3   OH255177   1.479   3.263   6.267 -0.4589 -0.3250  0.6309
11229TIP3    H155178   1.411   3.331   6.272  0.1230  0.3188  0.0777
11229TIP3    H255179   1.477   3.221   6.353 -0.7023  0.5269  1.0527
11230TIP3   OH255180   5.934   4.857   3.894  0.4642  0.1826  0.1237
11230TIP3    H155181   5.995   4.881   3.963  2.3282  1.2453 -1.7771
11230TIP3    H255182   5.967   4.901   3.816 -3.0392  1.2557 -0.9613
11231TIP3   OH255183   4.118   5.791  10.550 -0.2209  0.0414 -0.3319
11231TIP3    H155184   4.068   5.872  10.544  0.3319  0.4218  0.0687
11231TIP3    H255185   4.128   5.775  10.644  0.0180 -0.2753 -0.4086
11232TIP3   OH255186   1.420   3.669   3.318  0.4399 -0.1069  0.0217
11232TIP3    H155187   1.379   3.727   3.382 -1.0588 -1.2095  0.1173
11232TIP3    H255188   1.415   3.582   3.357 -1.3297 -0.9540 -1.8929
11233TIP3   OH255189   1.722   3.774   0.682  0.4621 -0.4356 -0.4664
11233TIP3    H155190   1.751   3.718   0.611  1.9222  0.1336 -0.3484
11233TIP3    H255191   1.675   3.715   0.742 -1.5174 -0.7834 -2.2269
11234TIP3   OH255192   3.063   6.648  11.563  0.0620  0.0768  0.1677
11234TIP3    H155193   3.111   6.687  11.489 -0.7721 -0.7158 -0.8128
11234TIP3    H255194   3.125   6.654  11.636  0.9032  0.9000 -0.5698
11235TIP3   OH255195   6.455   5.798   3.730  0.1047 -1.1627 -0.3407
11235TIP3    H155196   6.407   5.825   3.808 -0.5937 -0.3061 -1.0496
11235TIP3    H255197   6.544   5.832   3.744 -0.5650  0.9426 -0.8747
11236TIP3   OH255198   5.127   3.880   4.979 -0.2472  0.1269 -0.1324
11236TIP3    H155199   5.060   3.949   4.981 -0.0556  0.2954  0.5568
11236TIP3    H255200   5.084   3.804   5.018  0.3433  0.5879  1.4751
11237TIP3   OH255201   5.068   0.982   0.896  0.2104 -0.4807 -0.2263
11237TIP3    H155202   5.143   0.927   0.875  0.8294  0.7656 -1.4319
11237TIP3    H255203   5.033   1.009   0.811 -1.2619 -0.5623  0.3194
11238TIP3   OH255204   4.228   5.868   3.226 -0.2595  0.2695 -0.4017
11238TIP3    H155205   4.226   5.821   3.142 -0.5620  1.3937 -1.0397
11238TIP3    H255206   4.150   5.838   3.272  1.2384 -2.3688  0.6486
11239TIP3   OH255207   3.801   4.509  15.531 -0.0433  0.0426 -0.1596
11239TIP3    H155208   3.811   4.604  15.539 -0.2468 -0.0364  1.2073
11239TIP3    H255209   3.737   4.486  15.598 -0.9190 -0.9189 -1.2800
11240TIP3   OH255210   1.440   5.918   1.006  0.2297 -0.1058  0.4852
11240TIP3    H155211   1.526   5.959   1.018  0.3818  0.4062 -1.9097
11240TIP3    H255212   1.455   5.850   0.940 -1.3834  0.8102 -0.9237
11241TIP3   OH255213   0.481   5.105   6.132 -0.1782 -0.0099  0.0368
11241TIP3    H155214   0.509   5.142   6.216 -1.4806  1.6649 -0.2023
11241TIP3    H255215   0.475   5.181   6.074  1.6696 -1.2469 -1.9078
11242TIP3   OH255216   4.329   0.547   6.541  0.2462  0.2255 -0.1332
11242TIP3    H155217   4.301   0.587   6.623  1.8584  2.0192 -0.3794
11242TIP3    H255218   4.263   0.575   6.477  0.0821  0.5408  0.1688
11243TIP3   OH255219   5.644   6.232  12.013 -0.2085  0.5748  0.3059
11243TIP3    H155220   5.584   6.305  12.028 -0.2140  0.5103  0.6073
11243TIP3    H255221   5.727   6.263  12.050  0.0901  0.8770 -0.5861
11244TIP3   OH255222   3.404   1.774  14.850  0.5437  0.1671  0.4327
11244TIP3    H155223   3.481   1.761  14.795  1.1240  1.0607  1.0087
11244TIP3    H255224   3.439   1.791  14.937 -0.3243  0.1236  0.8050
11245TIP3   OH255225   3.375   4.838   2.414 -0.1432  0.2342  0.3749
11245TIP3    H155226   3.296   4.848   2.467 -0.3864  1.4806 -0.1600
11245TIP3    H255227   3.378   4.745   2.391 -1.2383  0.0946  0.7406
11246TIP3   OH255228   0.364   3.544   1.012 -0.9708 -0.1778 -0.1446
11246TIP3    H155229   0.327   3.523   1.098  0.1906 -1.9295 -0.0257
11246TIP3    H255230   0.442   3.490   1.006  1.8959  3.5574 -0.2157
11247TIP3   OH255231   6.232   4.270  12.715  0.1811  0.6173 -0.3346
11247TIP3    H155232   6.289   4.232  12.783  1.2807  1.5168 -0.7143
11247TIP3    H255233   6.180   4.197  12.684 -0.5576  0.2248  1.6631
11248TIP3   OH255234   2.007   1.458  15.716 -0.1129  0.4445 -0.4020
11248TIP3    H155235   2.025   1.525  15.781 -0.2411  0.3094 -0.2269
11248TIP3    H255236   1.915   1.435  15.730  0.1074 -0.2288 -0.0310
11249TIP3   OH255237   4.861   0.165   2.555  0.5077  0.6400 -0.1869
11249TIP3    H155238   4.801   0.181   2.629  0.3187  1.1457 -0.4435
11249TIP3    H255239   4.946   0.198   2.586  0.2246  1.7367 -0.5321
11250TIP3   OH255240   0.608   2.294   4.281  0.6377 -0.1758 -0.4311
11250TIP3    H155241   0.646   2.283   4.368  1.0792 -0.6695 -0.6841
11250TIP3    H255242   0.632   2.382   4.255 -0.4338  0.3892  0.3988
11251TIP3   OH255243   4.317   3.848  12.367 -0.1677  0.5021 -0.3566
11251TIP3    H155244   4.314   3.804  12.282  0.4001  0.3702 -0.3101
11251TIP3    H255245   4.244   3.911  12.364 -2.1498 -1.6109  0.2430
11252TIP3   OH255246   1.663   3.547  14.601  0.2213 -0.1610 -0.3875
11252TIP3    H155247   1.643   3.590  14.684 -2.1851 -4.1351  1.4036
11252TIP3    H255248   1.733   3.485  14.623  0.4448 -0.3787 -1.6677
11253TIP3   OH255249   5.378   2.721  12.764  0.0437 -0.0719 -0.2195
11253TIP3    H155250   5.333   2.774  12.830  0.4429  0.8449 -0.6790
11253TIP3    H255251   5.358   2.631  12.789 -1.6064  0.2975 -0.1038
11254TIP3   OH255252   5.126   1.279   3.813  0.0387  0.0656  0.5174
11254TIP3    H155253   5.186   1.239   3.876 -1.1408 -0.5295  1.3044
11254TIP3    H255254   5.075   1.342   3.865 -0.1797  0.3941 -0.0846
11255TIP3   OH255255   2.203   1.364  14.891  0.4263 -0.3442  0.5199
11255TIP3    H155256   2.245   1.283  14.860 -0.4307 -0.9716  0.9417
11255TIP3    H255257   2.115   1.336  14.917 -0.3114  0.9762 -0.5014
11256TIP3   OH255258   5.806   4.280  11.268  0.2366  0.0685  0.0118
11256TIP3    H155259   5.784   4.369  11.238  0.5122  0.6394  1.4454
11256TIP3    H255260   5.871   4.249  11.204 -0.4696  0.5670 -0.9739
11257TIP3   OH255261   4.349   6.546   5.897 -0.0531 -0.2136 -0.5863
11257TIP3    H155262   4.311   6.474   5.847  0.5022 -2.0148  1.4083
11257TIP3    H255263   4.322   6.529   5.988  0.7395  1.6767  0.0576
11258TIP3   OH255264   4.850   5.467  14.325 -0.4312  0.3557  0.3628
11258TIP3    H155265   4.813   5.522  14.255 -3.0806  0.2438  1.5495
11258TIP3    H255266   4.790   5.393  14.331  0.5064 -0.3181  1.8700
11259TIP3   OH255267   0.307   1.463   1.507 -0.9508 -0.0556  0.6387
11259TIP3    H155268   0.369   1.438   1.438  0.7466 -1.1150  2.4482
11259TIP3    H255269   0.304   1.387   1.565 -1.2027  1.3178  2.5083
11260TIP3   OH255270   1.633   5.159  15.426  0.0873 -0.1430  0.0286
11260TIP3    H155271   1.708   5.103  15.445  0.9748  1.1795  0.5998
11260TIP3    H255272   1.619   5.209  15.507 -0.1809  0.9739 -0.6778
11261TIP3   OH255273   3.674   4.177   2.351 -0.5983  0.2950 -0.6893
11261TIP3    H155274   3.676   4.088   2.387 -1.9736  0.1540 -0.8879
11261TIP3    H255275   3.674   4.233   2.428 -1.1159  0.0699 -0.5183
11262TIP3   OH255276   4.771   1.919   3.714  0.8909  0.7059  0.6464
11262TIP3    H155277   4.729   2.000   3.685 -1.0163 -0.6647 -0.6762
11262TIP3    H255278   4.702   1.871   3.760  2.1037 -0.0045  1.8047
11263TIP3   OH255279   1.878   0.682  13.695  0.5471  0.1838  0.1074
11263TIP3    H155280   1.892   0.629  13.773  0.5765 -1.3261 -0.8877
11263TIP3    H255281   1.792   0.722  13.708 -0.6867 -2.1903 -0.2244
11264TIP3   OH255282   4.608   4.430   4.760  0.2641 -0.3588 -0.4071
11264TIP3    H155283   4.701   4.411   4.748  0.6519  0.3898  1.2233
11264TIP3    H255284   4.589   4.404   4.850 -1.5322 -2.0286 -1.1799
11265TIP3   OH255285   3.085   4.577  15.764  0.0060 -0.1402 -0.4981
11265TIP3    H155286   3.085   4.499  15.820  0.3593  0.3175  0.1534
11265TIP3    H255287   3.017   4.560  15.699  0.2691 -1.1090 -0.5302
11266TIP3   OH255288   2.349   3.259  13.601  0.8467 -0.0989  0.3569
11266TIP3    H155289   2.409   3.312  13.549  1.4864 -1.1527 -0.0159
11266TIP3    H255290   2.326   3.186  13.543 -0.3858  0.0116  0.6880
11267TIP3   OH255291   6.826   0.872  15.368 -0.1401  0.2677 -0.3731
11267TIP3    H155292   6.868   0.844  15.287 -0.7155 -1.1151 -0.2224
11267TIP3    H255293   6.899   0.894  15.427  0.2986  0.2671 -0.9057
11268TIP3   OH255294   0.407   1.438   4.290 -0.2327 -0.1608 -0.4008
11268TIP3    H155295   0.441   1.349   4.290 -0.0395 -0.1187  1.3051
11268TIP3    H255296   0.463   1.485   4.227 -0.6531 -1.3144 -1.7002
11269TIP3   OH255297   2.763   3.453  16.146 -0.5830  0.7263  0.2324
11269TIP3    H155298   2.853   3.454  16.116 -0.0720  1.2368  1.6969
11269TIP3    H255299   2.720   3.524  16.097 -0.8108 -0.8657 -2.0737
11270TIP3   OH255300   1.758   5.559   1.532 -0.4762 -0.4948  0.3444
11270TIP3    H155301   1.773   5.561   1.437  1.7872 -1.9532  0.5908
11270TIP3    H255302   1.699   5.485   1.545  0.7487 -1.5453  0.1778
11271TIP3   OH255303   5.562   1.504   3.407  0.1716  0.1369 -0.5351
11271TIP3    H155304   5.608   1.469   3.331  1.2451  0.2455  0.0387
11271TIP3    H255305   5.508   1.432   3.438 -0.5239  0.1874 -1.5699
11272TIP3   OH255306   2.715   4.523  12.466  0.2565 -0.0575  0.2770
11272TIP3    H155307   2.777   4.459  12.433 -1.8949 -0.9185 -2.4877
11272TIP3    H255308   2.737   4.604  12.421 -1.4000 -0.7382 -1.9713
11273TIP3   OH255309   5.973   6.410   6.495 -0.1512  0.0568 -0.0680
11273TIP3    H155310   5.919   6.416   6.416  0.3020 -0.8500 -0.4497
11273TIP3    H255311   5.922   6.355   6.555  1.1134 -2.3919 -1.1129
11274TIP3   OH255312   6.347   3.355  17.152 -0.1979  0.3411  0.0523
11274TIP3    H155313   6.400   3.419  17.103 -0.4503  0.1312 -0.5060
11274TIP3    H255314   6.378   3.362  17.242  1.1810 -0.1583 -0.3525
11275TIP3   OH255315   6.490   1.022   2.575  0.5759 -0.1282  0.0895
11275TIP3    H155316   6.566   0.971   2.604  0.7736  0.5389  0.7731
11275TIP3    H255317   6.416   0.961   2.584  0.4470  0.2892  3.0130
11276TIP3   OH255318   0.970   6.287   4.391 -0.8214  0.0589  0.3562
11276TIP3    H155319   1.007   6.204   4.420  0.6258 -0.5252 -2.8134
11276TIP3    H255320   0.892   6.263   4.342  0.4310  0.3189 -1.8952
11277TIP3   OH255321   3.645   5.428  11.062 -0.2088 -0.0225  0.1668
11277TIP3    H155322   3.587   5.504  11.065  0.4700  0.5126 -0.0062
11277TIP3    H255323   3.587   5.354  11.047 -0.6515  0.7650 -2.4900
11278TIP3   OH255324   0.580   5.705  14.620 -0.6432 -0.3141  0.2492
11278TIP3    H155325   0.587   5.770  14.550 -1.6665  1.5144  1.7343
11278TIP3    H255326   0.643   5.637  14.597 -0.1075  0.8076 -1.8115
11279TIP3   OH255327   3.923   3.699  14.208 -0.3232 -0.2786  0.1213
11279TIP3    H155328   3.896   3.768  14.147  1.1249 -0.6309 -0.9819
11279TIP3    H255329   3.938   3.745  14.291 -0.5334  0.5342 -0.2795
11280TIP3   OH255330   0.252   6.118   4.228  0.2416  0.4057 -0.2616
11280TIP3    H155331   0.239   6.135   4.134 -0.6652 -1.8308 -0.6082
11280TIP3    H255332   0.305   6.038   4.230  2.0111  1.5453  1.1910
11281TIP3   OH255333   6.459   2.543  12.611  0.3717 -0.3551  0.3106
11281TIP3    H155334   6.402   2.480  12.567  0.4256 -0.3089  0.1740
11281TIP3    H255335   6.399   2.609  12.646  0.4817  1.2581 -2.2648
11282TIP3   OH255336   1.789   4.256  17.046 -0.4751 -0.1956  0.0949
11282TIP3    H155337   1.765   4.202  16.971  0.2140  0.6911 -0.7934
11282TIP3    H255338   1.752   4.210  17.121 -0.3513 -1.6320 -0.6736
11283TIP3   OH255339   2.163   3.294   1.376 -0.2483  0.5061 -0.2183
11283TIP3    H155340   2.206   3.354   1.315 -0.2387  1.1644  0.4251
11283TIP3    H255341   2.070   3.300   1.354 -0.0110 -1.5687 -2.1948
11284TIP3   OH255342   1.191   4.391  16.154 -0.0087  0.5503  0.1432
11284TIP3    H155343   1.235   4.306  16.157  1.3411  1.2298  0.7756
11284TIP3    H255344   1.101   4.373  16.179  1.0934 -0.2065  4.1727
11285TIP3   OH255345   0.837   1.661   4.588  0.1508  0.0151  0.7018
11285TIP3    H155346   0.803   1.749   4.571 -0.3934 -0.2282  0.5017
11285TIP3    H255347   0.787   1.631   4.664  0.8814  0.1726  1.2482
11286TIP3   OH255348   6.030   4.309  16.754 -0.0557  0.2692  0.1107
11286TIP3    H155349   6.093   4.341  16.818 -0.0419  0.2858  0.0885
11286TIP3    H255350   6.066   4.334  16.669  0.0108  0.0990  0.0885
11287TIP3   OH255351   2.779   0.723   0.934 -0.4406  0.3577  0.1652
11287TIP3    H155352   2.775   0.652   0.998 -1.0525  0.7870  0.6093
11287TIP3    H255353   2.788   0.678   0.850  3.0929 -0.2076  0.6577
11288TIP3   OH255354   0.451   0.268  10.863 -0.1981  0.3243 -0.2996
11288TIP3    H155355   0.457   0.280  10.768  3.4496  1.8179 -0.0652
11288TIP3    H255356   0.511   0.195  10.882  0.4721  1.1731  0.9830
11289TIP3   OH255357   3.215   4.258  14.306 -0.0846  0.4912  0.1375
11289TIP3    H155358   3.187   4.350  14.300 -0.5200  0.4799  1.4997
11289TIP3    H255359   3.263   4.254  14.389 -0.1516 -0.5385  0.1328
11290TIP3   OH255360   5.325   5.097   0.099  0.0697 -0.1547  0.2809
11290TIP3    H155361   5.298   5.170   0.043  1.7343  1.4025  1.3888
11290TIP3    H255362   5.328   5.021   0.041 -2.5919  0.4155 -0.7241
11291TIP3   OH255363   4.707   3.582  16.674  0.4043 -0.6801 -0.4562
11291TIP3    H155364   4.788   3.531  16.676 -0.3084 -1.8473 -0.5193
11291TIP3    H255365   4.638   3.517  16.688 -0.6542 -0.0174 -2.2774
11292TIP3   OH255366   3.108   2.856  11.045 -0.0691  0.0578 -0.0622
11292TIP3    H155367   3.033   2.811  11.008 -0.7545  1.0501  0.0734
11292TIP3    H255368   3.110   2.941  11.000  0.3754  0.4291  0.6300
11293TIP3   OH255369   3.810   2.420  11.105  0.0836  0.1296  0.7166
11293TIP3    H155370   3.837   2.393  11.018 -0.2551 -0.4851  0.7948
11293TIP3    H255371   3.716   2.437  11.097  0.3462  1.6010  0.5983
11294TIP3   OH255372   4.176   3.167  15.576  0.1853  0.1584 -0.5104
11294TIP3    H155373   4.163   3.079  15.613  2.0001 -0.1557 -0.5410
11294TIP3    H255374   4.246   3.156  15.512  0.5933  1.6788 -0.3632
11295TIP3   OH255375   5.133   5.331   2.388  0.2946 -0.7161 -0.1963
11295TIP3    H155376   5.182   5.413   2.389 -1.8172  0.6261  0.5379
11295TIP3    H255377   5.070   5.341   2.316 -0.7287 -1.1928  0.6039
11296TIP3   OH255378   6.778   0.713  15.615  0.1667 -0.0934 -0.1458
11296TIP3    H155379   6.860   0.755  15.588  0.0827  0.5521  0.5606
11296TIP3    H255380   6.711   0.759  15.564  0.1879 -0.2535 -0.3219
11297TIP3   OH255381   5.267   5.729   0.992 -0.4466 -0.0549 -0.0978
11297TIP3    H155382   5.287   5.820   1.012  0.9982 -0.4708  0.4799
11297TIP3    H255383   5.233   5.693   1.074  2.4720 -0.9378  0.8398
11298TIP3   OH255384   0.723   4.712  14.624  0.0622 -0.0069 -0.4285
11298TIP3    H155385   0.722   4.638  14.564  0.8090 -0.7829  0.4763
11298TIP3    H255386   0.775   4.682  14.699  1.3499  1.8236 -0.5203
11299TIP3   OH255387   0.566   4.530  13.159  0.2347  0.1370 -0.1196
11299TIP3    H155388   0.480   4.560  13.131 -0.1776 -0.0007  0.9286
11299TIP3    H255389   0.589   4.460  13.098 -0.4043  0.1641 -0.3938
11300TIP3   OH255390   4.729   1.718  11.685 -0.2074  0.1496 -0.5471
11300TIP3    H155391   4.645   1.758  11.662  0.4093  1.0873 -1.2375
11300TIP3    H255392   4.756   1.764  11.765 -0.9501 -1.0683  0.4496
11301TIP3   OH255393   2.147   0.391  12.062  0.2572 -0.5277 -0.6741
11301TIP3    H155394   2.132   0.316  12.005  2.6081  0.4020 -2.7073
11301TIP3    H255395   2.096   0.462  12.023  0.2229 -0.3820 -0.3703
11302TIP3   OH255396   3.995   2.403   0.639  0.0791 -0.8386  0.1721
11302TIP3    H155397   4.045   2.377   0.561  1.3192 -0.2580  0.7581
11302TIP3    H255398   3.928   2.463   0.605  0.1818 -1.1189 -0.5385
11303TIP3   OH255399   6.624   4.639   1.500 -0.1527  0.6066  0.4966
11303TIP3    H155400   6.627   4.733   1.518 -0.3172  0.3768  1.7800
11303TIP3    H255401   6.531   4.617   1.497 -0.1219  0.5299 -0.1231
11304TIP3   OH255402   6.605   0.655   5.295 -0.4147  0.3084 -0.4056
11304TIP3    H155403   6.569   0.674   5.382 -0.9645 -0.9683 -0.3300
11304TIP3    H255404   6.687   0.610   5.313 -0.9681 -0.7803 -0.5141
11305TIP3   OH255405   3.231   0.132  16.549 -0.1336 -0.1586 -0.3033
11305TIP3    H155406   3.172   0.076  16.600  0.2580  0.4017  0.8210
11305TIP3    H255407   3.319   0.104  16.575  0.0651  0.8856  0.2033
11306TIP3   OH255408   1.326   5.698   3.460 -0.0709 -0.2504 -0.0111
11306TIP3    H155409   1.278   5.634   3.407 -0.1411  0.4506 -0.8166
11306TIP3    H255410   1.271   5.776   3.460  0.7070  0.3181 -0.3173
11307TIP3   OH255411   5.954   5.962  12.904  0.3068 -0.4238  0.6451
11307TIP3    H155412   5.872   6.012  12.905  0.2465 -0.4193 -0.9564
11307TIP3    H255413   5.930   5.878  12.864  1.6142  0.7550 -2.9971
11308TIP3   OH255414   5.147   2.210   0.146  0.0056 -0.1145 -0.0074
11308TIP3    H155415   5.146   2.173   0.234  1.3167  1.3253  0.6711
11308TIP3    H255416   5.240   2.215   0.123 -0.3229 -0.5061 -1.4987
11309TIP3   OH255417   1.744   4.640   3.364  0.2096 -0.3963  0.3059
11309TIP3    H155418   1.700   4.618   3.446  1.6309  1.1115  1.5514
11309TIP3    H255419   1.801   4.713   3.387 -0.9042  1.5322 -2.5086
11310TIP3   OH255420   3.245   1.363  11.790  0.3465  0.3480 -0.7158
11310TIP3    H155421   3.309   1.404  11.847  0.0266  0.4904 -0.4565
11310TIP3    H255422   3.169   1.347  11.846  0.4043 -0.4469 -0.8534
11311TIP3   OH255423   1.182   2.831   6.179  0.1317  0.5322 -0.1383
11311TIP3    H155424   1.237   2.796   6.249  0.2592 -0.4787 -0.7203
11311TIP3    H255425   1.102   2.860   6.222 -0.4496 -1.5129  0.2683
11312TIP3   OH255426   2.451   1.428   0.520 -0.5402  0.4227  0.5128
11312TIP3    H155427   2.415   1.426   0.432  1.7638 -0.6044 -0.4926
11312TIP3    H255428   2.403   1.360   0.567 -0.0633 -0.8363 -0.7355
11313TIP3   OH255429   3.008   5.939   0.512  0.1900  0.4751  0.8318
11313TIP3    H155430   3.057   5.857   0.510 -0.9547 -0.2305 -0.8413
11313TIP3    H255431   3.074   6.007   0.500  1.3340 -0.0355  3.6473
11314TIP3   OH255432   3.276   0.179  15.797  0.4767 -0.2024  0.5012
11314TIP3    H155433   3.258   0.192  15.890 -0.4745 -1.2980  0.4952
11314TIP3    H255434   3.339   0.248  15.775  0.5287  0.2295  1.8874
11315TIP3   OH255435   3.547   4.698  13.786 -0.0737 -0.3906 -0.0600
11315TIP3    H155436   3.526   4.609  13.758  1.2719 -0.0226 -2.5205
11315TIP3    H255437   3.510   4.754  13.717  2.9010  0.6167 -0.9962
11316TIP3   OH255438   4.679   0.649   6.123  0.3339 -0.1789 -0.5735
11316TIP3    H155439   4.647   0.565   6.090  0.6245 -0.4642 -0.1372
11316TIP3    H255440   4.621   0.670   6.196 -0.3077  0.4514 -1.2541
11317TIP3   OH255441   3.372   0.277  12.811  0.2319  0.4091  0.3923
11317TIP3    H155442   3.348   0.301  12.901  1.5173 -0.5477  1.0207
11317TIP3    H255443   3.384   0.361  12.767  0.3191  0.9108  1.3349
11318TIP3   OH255444   6.589   0.430   3.537 -0.1092 -0.3191 -0.2517
11318TIP3    H155445   6.557   0.350   3.495 -1.3854  0.8897 -1.6682
11318TIP3    H255446   6.681   0.411   3.557 -0.6321 -2.4827  0.3681
11319TIP3   OH255447   0.987   4.024   4.073  0.2396  0.0300  0.3525
11319TIP3    H155448   0.981   4.014   4.168 -0.3513  1.4847  0.4922
11319TIP3    H255449   1.031   4.108   4.061 -0.3443  0.1994 -0.6536
11320TIP3   OH255450   1.792   4.824   5.285 -0.7547 -0.6111 -0.2266
11320TIP3    H155451   1.817   4.902   5.334 -0.3780 -0.0046 -1.3599
11320TIP3    H255452   1.873   4.793   5.246 -0.4347 -2.8954  1.9613
11321TIP3   OH255453   0.776   0.462  15.158  0.2711 -0.1698  0.1237
11321TIP3    H155454   0.812   0.541  15.199  3.0217 -0.8525 -0.7708
11321TIP3    H255455   0.714   0.427  15.223  0.1033  1.8967  1.1359
11322TIP3   OH255456   0.616   1.579  14.190  0.1338  0.4565  0.2977
11322TIP3    H155457   0.541   1.520  14.188 -0.4058  1.1526 -1.7252
11322TIP3    H255458   0.599   1.636  14.265 -0.6239 -0.2819  0.7134
11323TIP3   OH255459   1.369   3.873  15.406  0.3666 -0.0447  0.5937
11323TIP3    H155460   1.436   3.825  15.357  0.0185 -0.6360  0.6799
11323TIP3    H255461   1.297   3.884  15.343  0.3213  0.0824  0.6688
11324TIP3   OH255462   6.313   0.420   0.695 -0.0381 -0.7997  0.3150
11324TIP3    H155463   6.249   0.405   0.765  0.0954  1.9556  1.1496
11324TIP3    H255464   6.260   0.452   0.621  0.0043 -2.1926 -0.3550
11325TIP3   OH255465   0.680   2.390   6.110 -0.0757 -0.5706 -0.6070
11325TIP3    H155466   0.610   2.455   6.113  1.3205  0.9293  1.6005
11325TIP3    H255467   0.724   2.406   6.027 -0.6464  0.3081 -0.7493
11326TIP3   OH255468   3.749   2.485   2.789 -0.9443  0.4909 -0.5841
11326TIP3    H155469   3.683   2.417   2.801  1.7293 -2.4221 -0.7437
11326TIP3    H255470   3.725   2.528   2.707 -3.5190  0.7926  0.2415
11327TIP3   OH255471   2.985   1.317  11.553  0.1271  0.0917 -0.1738
11327TIP3    H155472   2.939   1.287  11.475 -0.4677  1.7856 -0.5189
11327TIP3    H255473   3.030   1.397  11.526 -2.7433  2.6488  1.8849
11328TIP3   OH255474   1.573   0.415   2.654  0.3529 -0.0896 -1.0126
11328TIP3    H155475   1.643   0.431   2.591  0.0900 -2.0160 -1.8542
11328TIP3    H255476   1.508   0.364   2.605 -0.7327 -0.0299  0.3021
11329TIP3   OH255477   5.596   3.326  10.508 -0.0922 -0.4113 -0.3789
11329TIP3    H155478   5.512   3.372  10.505 -0.7516 -1.5645 -0.5415
11329TIP3    H255479   5.627   3.337  10.598 -0.5848 -0.2458 -0.2267
11330TIP3   OH255480   1.757   1.699  12.594  0.3720 -0.2458  0.1207
11330TIP3    H155481   1.806   1.781  12.580 -0.5357  0.1132 -1.1330
11330TIP3    H255482   1.789   1.641  12.525  0.6576 -0.7927  0.7075
11331TIP3   OH255483   2.439   5.380   0.919 -0.3177  0.0145  0.1111
11331TIP3    H155484   2.485   5.372   0.835 -1.6678 -1.3729 -0.5310
11331TIP3    H255485   2.346   5.375   0.897 -0.7343  0.5339  1.6057
11332TIP3   OH255486   0.709   0.622  12.088  0.3380 -0.3905  0.1895
11332TIP3    H155487   0.690   0.702  12.137  0.6130 -1.0719  1.4597
11332TIP3    H255488   0.639   0.562  12.111  1.5248 -1.3895  1.3443
11333TIP3   OH255489   6.535   4.954   0.998 -0.8232  0.0329  0.4898
11333TIP3    H155490   6.519   4.924   1.088  1.2722 -1.4393  0.4419
11333TIP3    H255491   6.619   5.000   1.003 -1.6884  1.8060 -0.3760
11334TIP3   OH255492   4.436   2.723  15.859 -0.1554  0.3520  0.0145
11334TIP3    H155493   4.467   2.782  15.928  0.9522  0.7771 -0.8145
11334TIP3    H255494   4.436   2.636  15.899  1.2990  0.4712  0.3095
11335TIP3   OH255495   2.154   0.414  14.504  1.2624  0.1515 -0.4025
11335TIP3    H155496   2.148   0.359  14.426  0.8226  2.0420 -1.7713
11335TIP3    H255497   2.130   0.501  14.474  1.7799  1.0915  1.7135
11336TIP3   OH255498   2.785   1.936  14.900 -0.1499  0.1478  0.2923
11336TIP3    H155499   2.807   1.860  14.954 -1.0978 -0.1462  0.2770
11336TIP3    H255500   2.746   1.900  14.821  2.0295  0.5405 -1.0306
11337TIP3   OH255501   3.766   5.132  12.430 -0.3915 -0.3877 -0.2942
11337TIP3    H155502   3.777   5.079  12.509 -0.5657 -1.6341 -1.0632
11337TIP3    H255503   3.671   5.141  12.420 -0.3513  1.1411  0.4886
11338TIP3   OH255504   4.151   5.070  13.836  0.0797  0.5658  0.2019
11338TIP3    H155505   4.180   5.123  13.762  0.9254  0.5167  0.4880
11338TIP3    H255506   4.064   5.039  13.811  0.7827 -0.3564 -1.2427
11339TIP3   OH255507   2.230   3.750  12.763  0.4971  0.0146 -0.2711
11339TIP3    H155508   2.200   3.823  12.708 -1.3927 -0.7164 -0.2849
11339TIP3    H255509   2.200   3.672  12.718  2.8408 -0.8459 -0.4518
11340TIP3   OH255510   3.272   5.988   3.973  0.1464 -0.0576  0.7656
11340TIP3    H155511   3.319   5.983   4.056  1.1507 -0.1809  0.2115
11340TIP3    H255512   3.336   6.024   3.912 -0.6465  0.2420  0.0916
11341TIP3   OH255513   2.471   5.754  14.981  0.0138  0.1427 -0.4847
11341TIP3    H155514   2.414   5.738  15.056  1.3116  1.6125  0.8925
11341TIP3    H255515   2.476   5.669  14.936 -0.5297 -0.8785  1.2941
11342TIP3   OH255516   3.527   6.676  13.107 -0.2124 -0.1467  0.0574
11342TIP3    H155517   3.565   6.729  13.178 -2.9668  2.9976 -0.5895
11342TIP3    H255518   3.500   6.595  13.150  3.2073 -0.7782  1.3372
11343TIP3   OH255519   3.617   5.297   4.044 -0.1530 -0.2334 -0.0625
11343TIP3    H155520   3.647   5.210   4.072  0.4304  0.1162  0.4118
11343TIP3    H255521   3.533   5.309   4.088  1.1509  0.6765  2.3437
11344TIP3   OH255522   4.408   2.658  15.542  0.2014  0.9769  0.1195
11344TIP3    H155523   4.399   2.577  15.592  1.0377  0.9193  0.1928
11344TIP3    H255524   4.319   2.689  15.531 -0.5428 -1.6272 -2.7033
11345TIP3   OH255525   0.992   4.517  15.237  0.1089 -0.0092  0.8756
11345TIP3    H155526   0.957   4.430  15.257  0.8831 -0.5750 -0.1184
11345TIP3    H255527   1.087   4.505  15.237  0.2099  0.6840  0.1252
11346TIP3   OH255528   3.076   2.272  11.566 -0.0222  0.1854 -0.1943
11346TIP3    H155529   3.011   2.265  11.636  1.0539  0.9112  0.9259
11346TIP3    H255530   3.122   2.188  11.568 -2.5041 -1.3814 -2.7112
11347TIP3   OH255531   3.442   0.678  15.243 -0.3394  0.0719 -0.2652
11347TIP3    H155532   3.386   0.714  15.313 -2.2754  1.7156 -2.4935
11347TIP3    H255533   3.445   0.584  15.261 -1.1065  0.3910  1.7791
11348TIP3   OH255534   6.443   4.616   0.747 -0.5130  0.7527 -0.3593
11348TIP3    H155535   6.526   4.664   0.749  0.6863 -1.1973 -1.0246
11348TIP3    H255536   6.381   4.674   0.791  1.3078  2.0496  0.6233
11349TIP3   OH255537   6.139   6.743  13.027 -0.3582  0.2651  0.1692
11349TIP3    H155538   6.157   6.713  13.116  2.8234  0.1800 -0.3720
11349TIP3    H255539   6.073   6.682  12.994  0.2180 -1.2411  1.6570
11350TIP3   OH255540   4.711   1.257  15.071 -0.2001  0.1707  0.2745
11350TIP3    H155541   4.697   1.234  14.979 -1.5910  0.1587  0.4611
11350TIP3    H255542   4.689   1.176  15.119 -1.4996  0.7503  0.7123
11351TIP3   OH255543   4.713   0.090   0.159  0.5473  0.1805  1.2660
11351TIP3    H155544   4.620   0.072   0.172 -0.4205  2.9928 -0.8435
11351TIP3    H255545   4.755   0.005   0.173 -2.7693 -2.2567 -1.6800
11352TIP3   OH255546   1.534   5.108   6.225  0.2121  0.5624  0.6609
11352TIP3    H155547   1.608   5.164   6.203  0.4521 -0.6325 -1.9858
11352TIP3    H255548   1.566   5.052   6.296  1.7593  0.2998 -0.2085
11353TIP3   OH255549   3.283   5.240   0.750  0.0403  0.5537 -0.5720
11353TIP3    H155550   3.299   5.278   0.836  2.3855 -2.2188  0.3577
11353TIP3    H255551   3.192   5.211   0.754  0.4533 -0.6416  1.4995
11354TIP3   OH255552   0.273   3.257  12.415 -0.5320  0.2365  0.7265
11354TIP3    H155553   0.302   3.287  12.329  0.2357 -0.0852  0.8719
11354TIP3    H255554   0.302   3.166  12.420 -2.2494 -0.3729  0.5646
11355TIP3   OH255555   6.209   1.868  17.048 -0.2132 -0.7679 -0.5678
11355TIP3    H155556   6.230   1.821  17.128 -0.2981 -0.2969 -0.2640
11355TIP3    H255557   6.268   1.831  16.982 -0.4504 -1.4643 -0.3959
11356TIP3   OH255558   2.394   3.765  10.942  0.5565 -0.3562 -0.2567
11356TIP3    H155559   2.443   3.810  10.874  0.4303 -0.3615 -0.3507
11356TIP3    H255560   2.461   3.722  10.995  0.7939  1.1147  0.7009
11357TIP3   OH255561   2.547   2.068  14.715 -0.0902  0.6114  0.1651
11357TIP3    H155562   2.614   2.006  14.742 -0.0107 -0.2461 -1.8345
11357TIP3    H255563   2.591   2.153  14.719  0.3665  0.3464  1.1406
11358TIP3   OH255564   0.734   2.534  13.149 -0.2540  0.3528  0.0849
11358TIP3    H155565   0.694   2.561  13.232  0.0461  0.1948  0.2813
11358TIP3    H255566   0.661   2.500  13.098 -0.2242 -0.9471  0.8525
11359TIP3   OH255567   6.748   1.902  15.573  0.2171  0.2001  0.9902
11359TIP3    H155568   6.811   1.836  15.601  0.4187  0.1050  0.3432
11359TIP3    H255569   6.663   1.866  15.598 -0.0599 -2.0999 -2.4779
11360TIP3   OH255570   1.778   0.328   0.870  0.2787  0.6051  0.0485
11360TIP3    H155571   1.713   0.393   0.897 -0.6237 -0.5005  0.6362
11360TIP3    H255572   1.734   0.279   0.800 -0.2795 -1.3278  1.6733
11361TIP3   OH255573   5.911   5.896  12.645  0.3914  0.7583 -0.0036
11361TIP3    H155574   5.898   5.866  12.555  2.7268  0.1507 -0.1866
11361TIP3    H255575   5.898   5.991  12.640 -0.1780  0.6531 -0.8193
11362TIP3   OH255576   2.240   3.873   5.989 -0.2631 -0.5497  0.5031
11362TIP3    H155577   2.162   3.926   5.973 -0.9010 -1.3268  0.9677
11362TIP3    H255578   2.239   3.856   6.083  1.1805  0.4996  0.7409
11363TIP3   OH255579   3.418   1.528   1.112  0.4404 -0.1791  0.0279
11363TIP3    H155580   3.386   1.512   1.023 -0.7098  2.8435 -0.2146
11363TIP3    H255581   3.513   1.519   1.105  0.4010  0.2887 -1.5804
11364TIP3   OH255582   2.268   1.232  12.724  0.5197  0.0098 -0.3388
11364TIP3    H155583   2.303   1.154  12.682 -0.2283 -0.5779  0.1025
11364TIP3    H255584   2.250   1.205  12.814 -0.1241  0.5709 -0.2916
11365TIP3   OH255585   2.408   6.573   5.633  0.1289  0.3962 -0.5550
11365TIP3    H155586   2.413   6.507   5.703  0.4661  0.7850 -0.2066
11365TIP3    H255587   2.440   6.653   5.674 -0.0877  0.7286 -1.0380
11366TIP3   OH255588   2.934   0.985   5.154  0.4512  0.2540 -1.0600
11366TIP3    H155589   2.954   1.070   5.194 -0.3050 -0.3101  0.6443
11366TIP3    H255590   2.840   0.987   5.140 -0.0901 -1.2591  1.6249
11367TIP3   OH255591   1.958   2.945   5.846 -0.3203  0.1166 -0.5145
11367TIP3    H155592   1.947   3.030   5.803  0.3443  1.3535  1.6318
11367TIP3    H255593   2.012   2.964   5.923  0.8713 -2.4656 -0.6135
11368TIP3   OH255594   1.645   6.462  12.524  0.3017 -0.3527 -0.2774
11368TIP3    H155595   1.692   6.486  12.604  0.5425  0.2231 -0.5897
11368TIP3    H255596   1.616   6.372  12.540  1.8167 -0.8576 -0.2212
11369TIP3   OH255597   2.789   5.251  11.115  0.1441  0.3312 -0.0543
11369TIP3    H155598   2.819   5.302  11.040 -0.8033 -0.0993 -0.7551
11369TIP3    H255599   2.848   5.176  11.120  0.5792  0.6806  0.0029
11370TIP3   OH255600   3.192   0.863  16.344 -0.3908 -0.1238 -0.0049
11370TIP3    H155601   3.153   0.930  16.287  1.3546 -0.3555 -1.5676
11370TIP3    H255602   3.216   0.792  16.285 -0.0028 -1.1038  1.2795
11371TIP3   OH255603   6.668   2.618  11.922 -0.0559 -0.4460  0.1981
11371TIP3    H155604   6.761   2.609  11.906  0.0638  1.0445 -0.1203
11371TIP3    H255605   6.631   2.531  11.906  1.2067 -0.9335 -0.1084
11372TIP3   OH255606   2.599   3.935   2.874 -0.3346 -0.1662  0.1290
11372TIP3    H155607   2.509   3.943   2.843 -0.3002 -2.3973 -0.7117
11372TIP3    H255608   2.649   3.910   2.796  1.0052  0.8800  0.6203
11373TIP3   OH255609   3.860   6.614   1.790  0.3398 -0.3211 -0.4940
11373TIP3    H155610   3.861   6.686   1.853  2.6886  1.3651 -2.2749
11373TIP3    H255611   3.786   6.633   1.733 -0.9888 -1.1366  0.8891
11374TIP3   OH255612   5.671   6.810   0.005  0.1894 -0.4267 -0.3390
11374TIP3    H155613   5.728   6.832   0.078 -1.3002  0.4789  0.5873
11374TIP3    H255614   5.583   6.823   0.038 -0.5298  0.6856 -2.5116
11375TIP3   OH255615   4.478   4.485   2.805 -0.0707 -0.8580 -0.2223
11375TIP3    H155616   4.561   4.435   2.805 -0.4090 -1.4584 -1.4642
11375TIP3    H255617   4.466   4.510   2.897  2.1809  0.4422 -0.1951
11376TIP3   OH255618   2.486   4.597  11.429 -0.6936  0.0627  0.0897
11376TIP3    H155619   2.465   4.582  11.521 -0.1103 -0.8003  0.0869
11376TIP3    H255620   2.475   4.512  11.387  0.6265  0.0684 -0.3252
11377TIP3   OH255621   0.260   0.019   0.982  0.0571 -0.3360 -0.0252
11377TIP3    H155622   0.320   0.082   1.021  0.5371 -1.0696  0.4464
11377TIP3    H255623   0.283   0.020   0.889  1.7322 -1.5443  0.3196
11378TIP3   OH255624   5.884   5.360   0.868  0.0082  0.6235 -0.2610
11378TIP3    H155625   5.858   5.408   0.790  2.3830 -0.6023 -1.9343
11378TIP3    H255626   5.967   5.399   0.894  0.0419 -0.0436  0.7015
11379TIP3   OH255627   4.661   6.209  12.433 -0.3972 -0.2418 -0.2846
11379TIP3    H155628   4.644   6.117  12.450 -0.4385 -0.2878 -0.5845
11379TIP3    H255629   4.740   6.228  12.485  0.2290 -0.7116 -1.0367
11380TIP3   OH255630   6.843   1.500   2.664 -0.1922  0.2010  0.3153
11380TIP3    H155631   6.795   1.425   2.699  1.2492 -0.8657  0.1243
11380TIP3    H255632   6.785   1.536   2.597 -0.7640 -0.9956  0.1298
11381TIP3   OH255633   5.542   0.793  13.846  0.2103 -0.4031 -0.2922
11381TIP3    H155634   5.609   0.730  13.816 -0.4598 -0.2933 -2.1874
11381TIP3    H255635   5.459   0.755  13.816 -0.2154  1.3257 -1.4700
11382TIP3   OH255636   4.034   6.416   4.800 -0.0966  0.4201 -0.0470
11382TIP3    H155637   4.094   6.490   4.804 -0.1506  0.4082  1.1690
11382TIP3    H255638   4.090   6.342   4.775  0.4287  0.3914  1.1594
11383TIP3   OH255639   3.439   6.709   1.885  0.2275 -0.1225 -0.5238
11383TIP3    H155640   3.471   6.770   1.952  2.4148  0.5122 -2.0654
11383TIP3    H255641   3.359   6.750   1.853  1.0810  1.4454 -0.7835
11384TIP3   OH255642   3.257   0.286   0.177 -0.0441  0.5621  0.1013
11384TIP3    H155643   3.333   0.309   0.124 -0.0008  2.7788  1.0295
11384TIP3    H255644   3.210   0.222   0.124  0.7433  1.6263 -2.0095
11385TIP3   OH255645   4.945   4.991  13.548  0.4012 -0.3152 -0.4485
11385TIP3    H155646   4.919   4.901  13.529  0.5354 -0.1966 -1.2217
11385TIP3    H255647   4.864   5.034  13.576  0.3739 -0.7164  0.1199
11386TIP3   OH255648   1.613   0.288  15.614 -0.3440  0.6330  0.4386
11386TIP3    H155649   1.615   0.207  15.665  1.3578 -0.8683 -1.7744
11386TIP3    H255650   1.607   0.258  15.523  0.1911  3.0148 -0.4565
11387TIP3   OH255651   6.118   5.913  14.523  0.0602  0.3511 -0.1426
11387TIP3    H155652   6.090   5.964  14.447 -0.5933 -0.9555 -0.8168
11387TIP3    H255653   6.185   5.854  14.490 -0.4096 -0.4071  0.2311
11388TIP3   OH255654   0.261   0.123  14.175 -0.2516 -0.2390  0.0616
11388TIP3    H155655   0.236   0.179  14.101 -0.7558 -1.8565 -1.0348
11388TIP3    H255656   0.178   0.090  14.209 -0.0043  0.2704  1.2018
11389TIP3   OH255657   1.623   5.734  16.928 -0.5698  0.6314 -0.5211
11389TIP3    H155658   1.609   5.772  16.842 -0.3509  0.6515 -0.5486
11389TIP3    H255659   1.538   5.743  16.972 -1.1767 -0.8633 -1.3044
11390TIP3   OH255660   3.994   3.817  14.436 -0.0484  0.2808 -0.3368
11390TIP3    H155661   3.991   3.803  14.531 -0.9216  0.3419 -0.3490
11390TIP3    H255662   4.088   3.815  14.414  0.2390  1.3472  0.6806
11391TIP3   OH255663   1.298   0.002  12.688  0.3688  0.3948 -0.7702
11391TIP3    H155664   1.282  -0.053  12.765 -0.6141  1.6541 -0.0175
11391TIP3    H255665   1.282  -0.055  12.613 -0.6095 -0.3497 -0.0183
11392TIP3   OH255666   6.173   2.841  14.026 -0.0896  0.3635 -0.4318
11392TIP3    H155667   6.241   2.813  13.964  0.8521  1.1350  0.2113
11392TIP3    H255668   6.206   2.925  14.060 -0.0987 -0.4951  1.8056
11393TIP3   OH255669   0.020   1.075  12.580 -0.1690 -0.0963 -0.1054
11393TIP3    H155670   0.041   1.005  12.642  0.0105  0.8671  0.9641
11393TIP3    H255671  -0.059   1.115  12.615  1.3117  2.0821  0.9738
11394TIP3   OH255672   6.180   4.907  12.969  0.0106  0.1196 -0.2797
11394TIP3    H155673   6.123   4.901  12.893  0.0604  0.6335 -0.3655
11394TIP3    H255674   6.269   4.910  12.933  0.0819 -0.4592 -0.1577
11395TIP3   OH255675   6.732   0.343  14.629  0.5491  0.0139 -0.1900
11395TIP3    H155676   6.821   0.325  14.659 -0.0425 -0.7726  1.1871
11395TIP3    H255677   6.715   0.434  14.656  0.9622  0.2207 -0.5972
11396TIP3   OH255678   0.042   2.581   5.006 -0.6335  0.7124  0.0145
11396TIP3    H155679   0.045   2.653   5.069  1.3795  0.0027  0.8137
11396TIP3    H255680   0.114   2.524   5.032 -0.8455 -0.5047 -1.8978
11397TIP3   OH255681   2.480   3.965  16.889  0.8422  0.1054  0.0750
11397TIP3    H155682   2.529   4.007  16.960  1.2881  0.5644 -0.4982
11397TIP3    H255683   2.546   3.920  16.836  0.3308 -1.8710  0.9978
11398TIP3   OH255684   4.802   3.534  17.049  0.7620 -0.2960 -0.0965
11398TIP3    H155685   4.813   3.439  17.058  1.0064 -0.5291 -2.2352
11398TIP3    H255686   4.708   3.549  17.063  0.8263 -0.7514  0.8704
11399TIP3   OH255687   5.041   5.612  14.089 -0.2056 -0.4537  0.2311
11399TIP3    H155688   4.970   5.592  14.028  0.3149 -0.9412 -0.2259
11399TIP3    H255689   5.101   5.538  14.080  1.8331  1.2873 -1.5375
11400TIP3   OH255690   5.548   6.667  11.312 -0.5893  0.0951  0.0536
11400TIP3    H155691   5.454   6.659  11.295 -0.3835 -3.0942 -0.2370
11400TIP3    H255692   5.587   6.680  11.225 -0.6031 -1.1080 -0.1408
11401TIP3   OH255693   4.773   5.968  15.348  0.2338  0.3465  0.2754
11401TIP3    H155694   4.741   6.043  15.298 -0.8475 -0.5210 -0.3724
11401TIP3    H255695   4.750   5.892  15.295  2.2879 -0.4170  0.3908
11402TIP3   OH255696   0.960   3.333  12.556  0.0124  0.1063  0.3101
11402TIP3    H155697   0.972   3.341  12.651  1.4948 -4.1808  0.7370
11402TIP3    H255698   0.889   3.270  12.546 -0.4412  0.8519 -1.4742
11403TIP3   OH255699   6.802   5.491  16.893  0.7828 -0.8542 -0.0114
11403TIP3    H155700   6.876   5.440  16.860 -0.0099 -0.8288 -1.9516
11403TIP3    H255701   6.801   5.570  16.839 -0.6873 -0.8724 -0.0458
11404TIP3   OH255702   1.919   0.107   4.909 -0.0995  0.5431  0.2545
11404TIP3    H155703   1.975   0.049   4.960  0.3408  0.3974 -0.3789
11404TIP3    H255704   1.863   0.048   4.858  1.1261  0.6241 -1.2530
11405TIP3   OH255705   1.709   2.216   1.950 -0.1192  0.2693 -0.4631
11405TIP3    H155706   1.665   2.301   1.942  0.1227  0.4550  0.0707
11405TIP3    H255707   1.658   2.157   1.896 -0.2052  0.7925 -0.9618
11406TIP3   OH255708   6.689   2.930  13.492 -0.0141  0.3933 -0.0506
11406TIP3    H155709   6.662   3.009  13.445  1.8569  1.9926  1.4112
11406TIP3    H255710   6.765   2.956  13.543  0.6743 -2.3726  0.5432
11407TIP3   OH255711   0.169   6.643  15.391 -0.1883 -0.1155 -0.1006
11407TIP3    H155712   0.198   6.719  15.340 -0.8148  0.2502  0.0614
11407TIP3    H255713   0.248   6.593  15.409  0.3597  0.9151  0.4508
11408TIP3   OH255714   6.681   1.113   3.621 -0.2651 -0.4058 -0.1700
11408TIP3    H155715   6.748   1.182   3.619 -0.2875 -0.3902 -0.3828
11408TIP3    H255716   6.607   1.150   3.573 -0.0620 -0.7991 -0.8026
11409TIP3   OH255717   5.421   4.875  11.736 -0.5556 -0.7503  0.4347
11409TIP3    H155718   5.427   4.797  11.681  0.1658 -0.8463  0.6382
11409TIP3    H255719   5.508   4.915  11.730  0.0253 -1.5435  2.6359
11410TIP3   OH255720   5.374   6.280  12.675 -0.1752 -0.3217 -0.6626
11410TIP3    H155721   5.451   6.319  12.716 -0.1616  0.2162 -1.1855
11410TIP3    H255722   5.318   6.254  12.748  0.2183 -0.1362 -0.2927
11411TIP3   OH255723   6.353   3.107   0.641 -0.3986 -0.0389 -0.1334
11411TIP3    H155724   6.301   3.150   0.573 -1.2947  0.3335  0.7598
11411TIP3    H255725   6.288   3.063   0.696  0.2616  0.1214  0.7958
11412TIP3   OH255726   6.538   3.213   2.176  0.3282 -0.4401 -0.1911
11412TIP3    H155727   6.524   3.225   2.082 -0.2084 -0.2995 -0.0998
11412TIP3    H255728   6.624   3.252   2.193  0.1477  0.1193 -0.5118
11413TIP3   OH255729   3.547   2.654   4.722  0.1216  0.3952  0.1005
11413TIP3    H155730   3.578   2.591   4.657 -1.4715 -0.2909 -0.0441
11413TIP3    H255731   3.484   2.605   4.775  1.4881  0.8809  2.3142
11414TIP3   OH255732   6.388   1.676  11.514 -0.0725 -0.5170  0.4622
11414TIP3    H155733   6.450   1.717  11.574  0.7723  0.2086 -0.8449
11414TIP3    H255734   6.438   1.607  11.470 -0.8320 -1.4186  0.9727
11415TIP3   OH255735   6.073   4.474  14.972 -0.4341  0.7390 -0.3890
11415TIP3    H155736   6.080   4.535  15.046 -1.4567 -1.4390  1.6348
11415TIP3    H255737   6.124   4.398  14.999 -2.0044 -0.6930 -1.2616
11416TIP3   OH255738   2.636   5.265   0.306  0.4608 -0.1497 -0.8585
11416TIP3    H155739   2.595   5.344   0.271 -0.5675 -0.1468  0.2720
11416TIP3    H255740   2.575   5.194   0.283 -0.4884 -0.0859  1.2170
11417TIP3   OH255741   3.046   4.642   4.662  0.4741  0.3263  0.6302
11417TIP3    H155742   3.000   4.681   4.587 -1.8045 -0.9700  1.2788
11417TIP3    H255743   3.084   4.561   4.627 -0.4457 -0.1936  0.8156
11418TIP3   OH255744   1.126   6.082  15.656 -0.2057  0.6321  0.0561
11418TIP3    H155745   1.049   6.132  15.630 -0.6925  0.0122  0.2641
11418TIP3    H255746   1.194   6.108  15.594 -1.0700 -0.1291 -1.2642
11419TIP3   OH255747   1.530   4.451  15.955  0.2779  0.2566 -0.1189
11419TIP3    H155748   1.618   4.463  15.991  0.4333 -0.8214 -0.0940
11419TIP3    H255749   1.472   4.459  16.031  0.1312  2.8900 -0.4026
11420TIP3   OH255750   5.697   1.893  12.494  0.0393  0.3039 -0.2459
11420TIP3    H155751   5.622   1.943  12.526 -0.4725  0.3103 -1.3908
11420TIP3    H255752   5.772   1.948  12.511 -0.4923  1.4071 -1.2985
11421TIP3   OH255753   5.432   1.822  16.002 -0.2582  0.3218 -0.3374
11421TIP3    H155754   5.510   1.867  15.968  0.9979 -0.4556  1.3488
11421TIP3    H255755   5.467   1.742  16.042 -1.8119  0.3905  1.2577
11422TIP3   OH255756   6.733   3.647  14.687  0.0297 -0.4939 -0.5044
11422TIP3    H155757   6.806   3.708  14.669 -0.8856  1.2802  1.3066
11422TIP3    H255758   6.776   3.567  14.717  1.3368  1.1982  2.5544
11423TIP3   OH255759   3.061   6.078  13.785  0.4943 -0.4128 -0.1401
11423TIP3    H155760   2.993   6.107  13.725  0.5707 -0.7144 -0.3792
11423TIP3    H255761   3.091   5.994  13.748  0.9354 -0.3230  0.0040
11424TIP3   OH255762   6.688   2.300  13.741  0.1007 -0.4902  0.5743
11424TIP3    H155763   6.632   2.374  13.760 -2.0778 -1.3032 -2.1178
11424TIP3    H255764   6.737   2.325  13.663 -0.2481 -1.6396 -0.0423
11425TIP3   OH255765   5.424   1.018  13.196 -0.5650  0.2086  0.2608
11425TIP3    H155766   5.364   0.945  13.186 -1.3006  0.6548  1.2892
11425TIP3    H255767   5.369   1.096  13.194 -0.0136  0.6359  1.0166
11426TIP3   OH255768   3.264   3.629  11.074 -0.2704  0.1664  0.2313
11426TIP3    H155769   3.336   3.685  11.045  0.8194 -0.6722  1.2168
11426TIP3    H255770   3.240   3.664  11.160  1.5280 -1.7383  1.6352
11427TIP3   OH255771   5.500   1.613  13.469  0.4916 -0.0066 -0.2233
11427TIP3    H155772   5.572   1.673  13.487  0.6635  1.0972 -3.7720
11427TIP3    H255773   5.541   1.537  13.429 -0.0909 -0.6790  0.4312
11428TIP3   OH255774   0.417   0.332   3.906  0.0604 -0.1129 -0.6555
11428TIP3    H155775   0.365   0.252   3.903 -0.3456  0.0920  0.3655
11428TIP3    H255776   0.370   0.393   3.849 -0.8483  0.0644  0.2462
11429TIP3   OH255777   3.288   3.252   5.416 -0.4698  0.0789 -0.2048
11429TIP3    H155778   3.193   3.243   5.424 -0.5066 -0.1888 -0.8414
11429TIP3    H255779   3.301   3.299   5.334 -0.0967  1.7357  0.7745
11430TIP3   OH255780   5.625   2.876  16.210 -0.2644  0.2122  0.7425
11430TIP3    H155781   5.598   2.958  16.167 -2.5029 -0.7750  0.1242
11430TIP3    H255782   5.596   2.807  16.150  1.6298 -1.0762  1.2301
11431TIP3   OH255783   3.402   4.881  13.624 -0.7041  0.3246 -0.1902
11431TIP3    H155784   3.427   4.929  13.545 -0.4659  1.0848  0.3360
11431TIP3    H255785   3.327   4.828  13.597 -0.4315  0.3325 -1.0026
11432TIP3   OH255786   3.656   4.651  14.051  0.1286  0.1427 -0.5685
11432TIP3    H155787   3.728   4.709  14.025  1.4556 -1.4508 -0.6121
11432TIP3    H255788   3.592   4.661  13.981 -0.5255  2.8504  0.2871
11433TIP3   OH255789   3.570   5.558   4.943  0.5672 -0.1822 -0.1271
11433TIP3    H155790   3.610   5.640   4.972 -1.4241  1.0302 -0.5830
11433TIP3    H255791   3.523   5.526   5.020 -1.5227  1.0028 -0.8260
11434TIP3   OH255792   2.338   6.834   6.410  0.2903  0.2988  0.5522
11434TIP3    H155793   2.364   6.817   6.501  0.4397 -2.7675  0.0168
11434TIP3    H255794   2.243   6.818   6.409  0.5550 -1.3193 -0.1410
11435TIP3   OH255795   0.444   5.771  14.938 -0.2050 -0.0337  0.1781
11435TIP3    H155796   0.515   5.824  14.902 -0.4491  0.7057  0.7573
11435TIP3    H255797   0.456   5.684  14.899 -0.1508  0.5980 -1.2437
11436TIP3   OH255798   5.393   4.902   1.106  0.3947  0.1429  0.2225
11436TIP3    H155799   5.463   4.851   1.066 -0.9274 -2.3121  0.8052
11436TIP3    H255800   5.341   4.933   1.032  0.0253 -1.2430 -0.1338
11437TIP3   OH255801   2.987   0.716  10.649  0.4202 -0.3073  0.5591
11437TIP3    H155802   3.068   0.707  10.598  0.9259 -1.1713  1.4673
11437TIP3    H255803   2.999   0.797  10.698 -0.2165  0.7141 -0.9020
11438TIP3   OH255804   1.874   2.229  14.666  0.2600 -0.2193  0.2103
11438TIP3    H155805   1.818   2.254  14.739 -0.8871 -0.9570 -0.3869
11438TIP3    H255806   1.865   2.301  14.603  0.9538  0.2354  0.6140
11439TIP3   OH255807   4.503   3.540   1.702  0.1228 -0.4954  0.0437
11439TIP3    H155808   4.593   3.525   1.733  0.6716 -0.5060 -1.4622
11439TIP3    H255809   4.493   3.636   1.705 -0.3294 -0.5725  1.5326
11440TIP3   OH255810   0.731   4.603  15.232 -0.0028 -0.4546 -0.3214
11440TIP3    H155811   0.754   4.689  15.267  0.9942 -0.2025 -1.5151
11440TIP3    H255812   0.815   4.562  15.213 -0.3968 -2.2737  1.4579
11441TIP3   OH255813   3.425   3.073  13.587 -0.2116  0.1709  0.5831
11441TIP3    H155814   3.390   3.131  13.520 -1.3017 -0.1460  0.8538
11441TIP3    H255815   3.358   3.073  13.656  0.1280 -0.7929  0.9297
11442TIP3   OH255816   2.395   5.701  11.311 -0.0641  0.1718  0.0280
11442TIP3    H155817   2.488   5.705  11.288  0.4343 -0.6140  1.6886
11442TIP3    H255818   2.393   5.728  11.403 -1.8338  2.6129 -0.6356
11443TIP3   OH255819   4.270   1.737   1.793  0.3552  0.2313 -0.3880
11443TIP3    H155820   4.285   1.733   1.699 -0.0864  2.3102 -0.5977
11443TIP3    H255821   4.178   1.761   1.801 -0.4544 -2.8050  0.6821
11444TIP3   OH255822   1.315   4.053   0.680  0.4825 -0.2878 -0.5128
11444TIP3    H155823   1.404   4.043   0.647  0.5858 -0.5796 -0.1518
11444TIP3    H255824   1.322   4.038   0.775 -0.0166 -0.7750 -0.5433
11445TIP3   OH255825   0.346   2.275   5.927  0.2302  0.7436 -0.5168
11445TIP3    H155826   0.392   2.358   5.920  2.1499 -0.3183 -1.4415
11445TIP3    H255827   0.416   2.210   5.941 -1.3181 -0.5738  1.6905
11446TIP3   OH255828   3.177   5.067  11.345 -0.1412  0.3438  0.2860
11446TIP3    H155829   3.082   5.074  11.349 -0.2018 -0.6668  1.1091
11446TIP3    H255830   3.195   4.974  11.359  0.9092  0.2364 -1.4132
11447TIP3   OH255831   6.198   4.457   3.482  0.2014  0.4968  0.5861
11447TIP3    H155832   6.104   4.439   3.488  0.3490 -0.9379 -0.7366
11447TIP3    H255833   6.236   4.375   3.451  1.8965  1.0783  1.0202
11448TIP3   OH255834   0.185   1.287  16.799 -0.3122  0.1765  0.4762
11448TIP3    H155835   0.183   1.224  16.727 -0.0514 -0.3976  0.9734
11448TIP3    H255836   0.278   1.307  16.811 -0.3743  0.4746  0.4868
11449TIP3   OH255837   5.146   0.502  16.385 -0.1211  0.0373 -0.4472
11449TIP3    H155838   5.170   0.503  16.477  0.0315 -0.5722 -0.4702
11449TIP3    H255839   5.089   0.578  16.373  0.5927  0.6488 -0.0565
11450TIP3   OH255840   4.663   1.530   1.844  0.6509  0.5739 -0.1618
11450TIP3    H155841   4.663   1.553   1.751 -0.9150 -1.9398 -0.9124
11450TIP3    H255842   4.750   1.495   1.860  0.9472  1.0535 -0.6722
11451TIP3   OH255843   0.635   4.422   1.594  0.6118  0.1496  0.1135
11451TIP3    H155844   0.648   4.350   1.533 -1.6664  0.5380 -0.9192
11451TIP3    H255845   0.681   4.395   1.674  2.6117 -0.9269 -1.3114
11452TIP3   OH255846   4.603   4.543  13.515 -0.2065 -0.3032 -0.0977
11452TIP3    H155847   4.530   4.589  13.555 -0.2035  2.4894 -2.9363
11452TIP3    H255848   4.676   4.605  13.520  1.6085 -2.3635  1.1547
11453TIP3   OH255849   1.010   4.554   3.344 -0.0233 -0.2938  0.2750
11453TIP3    H155850   0.997   4.626   3.283  0.9782 -0.6048 -0.3231
11453TIP3    H255851   1.087   4.508   3.311  0.2203 -0.7774  1.4881
11454TIP3   OH255852   5.978   4.306   0.267 -0.4511  0.1592  0.1468
11454TIP3    H155853   5.924   4.247   0.215 -0.5038 -1.1692  1.6645
11454TIP3    H255854   6.067   4.270   0.261  0.0957  1.5945 -1.2622
11455TIP3   OH255855   5.524   2.713  13.862 -0.5848  1.2332 -0.6922
11455TIP3    H155856   5.451   2.656  13.887 -0.3649  0.9723 -0.6467
11455TIP3    H255857   5.570   2.731  13.944 -0.3210  1.0157 -0.7950
11456TIP3   OH255858   2.478   3.403   0.581 -0.2263  0.8047  0.5434
11456TIP3    H155859   2.536   3.341   0.538 -0.6860  0.2632  0.6888
11456TIP3    H255860   2.423   3.438   0.511  0.5169  1.6018  0.3449
11457TIP3   OH255861   3.203   5.177   2.428 -0.8317 -0.5028  0.2739
11457TIP3    H155862   3.117   5.141   2.407 -0.4617 -0.8350 -0.6884
11457TIP3    H255863   3.227   5.135   2.511 -1.3474 -0.8212  0.2612
11458TIP3   OH255864   3.832   6.667   0.807 -0.0098 -0.4956 -0.8179
11458TIP3    H155865   3.832   6.762   0.814 -0.5357 -0.4872 -0.8382
11458TIP3    H255866   3.876   6.648   0.724  0.9171 -0.3155 -0.3735
11459TIP3   OH255867   0.097   5.706  13.403  0.2351 -0.2726 -0.1004
11459TIP3    H155868   0.138   5.738  13.323  0.1066 -0.5291 -0.2673
11459TIP3    H255869   0.125   5.769  13.470 -0.0590  0.2247 -0.4339
11460TIP3   OH255870   0.823   5.237   3.362  0.1051 -0.2004  0.3687
11460TIP3    H155871   0.837   5.237   3.268 -0.7731 -0.6374  0.2229
11460TIP3    H255872   0.832   5.145   3.388 -1.9415 -0.4593  0.3156
11461TIP3   OH255873   2.978   5.265   2.635  0.1176 -0.4560 -0.1918
11461TIP3    H155874   2.908   5.201   2.625  0.2277 -0.5672 -0.2490
11461TIP3    H255875   3.005   5.285   2.545  1.0666 -1.4069 -0.1350
11462TIP3   OH255876   5.027   5.347   1.122 -0.6173  0.3113  0.4628
11462TIP3    H155877   4.936   5.316   1.123 -0.8522  0.8461 -1.0160
11462TIP3    H255878   5.079   5.268   1.138 -1.3550  0.2957  3.1441
11463TIP3   OH255879   1.155   5.818  15.560 -0.5540 -0.3682  0.3281
11463TIP3    H155880   1.120   5.907  15.558  0.0821 -0.1233 -0.0549
11463TIP3    H255881   1.215   5.817  15.635 -0.5383 -0.4713  0.3144
11464TIP3   OH255882   3.065   5.116   1.651  0.6621 -0.3438 -0.1742
11464TIP3    H155883   3.072   5.212   1.645 -1.5910 -0.0375  0.8104
11464TIP3    H255884   3.014   5.091   1.574  0.7277 -0.6658 -0.1128
11465TIP3   OH255885   0.887   3.912  11.974  0.3153 -0.1372  0.0318
11465TIP3    H155886   0.975   3.936  11.947  0.6690 -0.6726  0.6904
11465TIP3    H255887   0.898   3.873  12.061 -0.7726  1.5184  0.9757
11466TIP3   OH255888   3.242   3.894   5.870 -0.6177 -0.1064 -0.0351
11466TIP3    H155889   3.273   3.813   5.910  0.6247  0.3463 -0.0490
11466TIP3    H255890   3.287   3.898   5.785  1.3602  1.8306  1.0167
11467TIP3   OH255891   4.152   4.172   6.083  0.2874 -0.5088 -0.1752
11467TIP3    H155892   4.151   4.089   6.036  1.9997 -1.3214  1.0946
11467TIP3    H255893   4.128   4.149   6.173  0.2061  0.4734  0.0703
11468TIP3   OH255894   5.340   6.295  13.852  0.6181  0.1883  0.2617
11468TIP3    H155895   5.322   6.323  13.941 -0.4272 -0.7149  0.3627
11468TIP3    H255896   5.328   6.200  13.854 -1.3746  0.3342 -1.2472
11469TIP3   OH255897   6.430   4.584  14.196  0.2313  0.4742 -0.1863
11469TIP3    H155898   6.388   4.499  14.208 -1.3605  1.3373  0.7117
11469TIP3    H255899   6.501   4.568  14.134 -0.9032 -1.2404 -1.0997
11470TIP3   OH255900   0.871   5.401  14.050  0.1618 -0.2071  0.4864
11470TIP3    H155901   0.896   5.332  14.112 -2.5176 -1.1679  0.6160
11470TIP3    H255902   0.954   5.443  14.026  1.5121 -1.2771  2.9665
11471TIP3   OH255903   3.110   4.821   4.296  0.4514 -0.7985 -0.1406
11471TIP3    H155904   3.050   4.769   4.242  1.0576  0.6559 -2.3331
11471TIP3    H255905   3.176   4.758   4.325 -0.6995 -1.9066  0.1651
11472TIP3   OH255906   1.574   0.665  11.940 -0.0516 -0.3189  0.3176
11472TIP3    H155907   1.607   0.582  11.973  3.0409  1.4616  2.2114
11472TIP3    H255908   1.585   0.660  11.845  1.4461 -1.5625  0.5174
11473TIP3   OH255909   3.186   1.339   2.455 -0.1508 -0.0908 -0.0292
11473TIP3    H155910   3.229   1.343   2.540 -0.4604  0.1719  0.1198
11473TIP3    H255911   3.138   1.256   2.457 -1.1062  0.4548  0.5271
11474TIP3   OH255912   1.120   0.897   4.548  0.3286 -0.1210 -0.3905
11474TIP3    H155913   1.149   0.834   4.482 -1.5634 -2.0966  0.5527
11474TIP3    H255914   1.131   0.982   4.506  0.0070 -1.2516 -2.9440
11475TIP3   OH255915   0.375   3.639  14.160 -0.0264 -0.0993 -0.1220
11475TIP3    H155916   0.378   3.639  14.065  1.2305  1.1108 -0.1108
11475TIP3    H255917   0.350   3.729  14.184  2.3898  0.4427  0.6880
11476TIP3   OH255918   3.477   1.738  14.178  0.3325 -0.1425 -0.2231
11476TIP3    H155919   3.525   1.697  14.250 -0.4929 -1.0715 -0.1760
11476TIP3    H255920   3.393   1.691  14.175  0.4155 -0.2523 -1.8920
11477TIP3   OH255921   0.849   5.929   5.896  0.3823 -0.1672  0.1789
11477TIP3    H155922   0.912   5.985   5.852  0.3349  0.2459  0.6289
11477TIP3    H255923   0.882   5.919   5.985 -0.3235  0.2837  0.5005
11478TIP3   OH255924   5.013   1.502   3.551 -0.1351  0.1996 -0.0237
11478TIP3    H155925   4.933   1.490   3.500  0.2252  0.2588 -0.6122
11478TIP3    H255926   5.004   1.590   3.588 -0.1684  0.3576 -0.4023
11479TIP3   OH255927   0.369   4.689  12.675  0.1587  0.7307  0.3111
11479TIP3    H155928   0.311   4.762  12.698 -1.4796 -0.5589  0.5153
11479TIP3    H255929   0.350   4.622  12.742  0.5203 -0.4413 -0.7245
11480TIP3   OH255930   4.289   4.186   3.711  0.3426 -0.2911  0.0666
11480TIP3    H155931   4.291   4.092   3.696  1.8099 -0.5192  1.3672
11480TIP3    H255932   4.281   4.224   3.624  2.3346 -1.5932 -0.7667
11481TIP3   OH255933   5.693   3.918  13.704 -0.0723  0.2429  0.3115
11481TIP3    H155934   5.655   3.876  13.780 -0.8145 -1.4619 -0.9489
11481TIP3    H255935   5.780   3.879  13.695 -0.4959 -0.5609 -0.4563
11482TIP3   OH255936   0.674   1.917  11.131 -0.4277 -0.3755 -0.0336
11482TIP3    H155937   0.718   1.956  11.055 -1.1513 -0.4612 -0.5136
11482TIP3    H255938   0.688   1.823  11.121  3.3190 -0.2460  2.3684
11483TIP3   OH255939   3.300   2.683  10.294  0.4171  0.7071 -0.0645
11483TIP3    H155940   3.318   2.750  10.227  3.0038  1.8290  1.5570
11483TIP3    H255941   3.218   2.711  10.334 -0.1927  1.0741 -1.4871
11484TIP3   OH255942   6.079   3.754   4.526  0.0920  0.0078  0.5238
11484TIP3    H155943   6.015   3.689   4.554 -1.1183  1.0943  0.3731
11484TIP3    H255944   6.036   3.802   4.456  0.7158  1.3715  1.0312
11485TIP3   OH255945   1.282   0.483   4.836  0.0151  0.0391 -0.0325
11485TIP3    H155946   1.361   0.525   4.869  0.2990  0.8543 -1.6515
11485TIP3    H255947   1.300   0.389   4.843 -0.0098  0.1491  2.1745
11486TIP3   OH255948   3.998   4.126  13.493  0.9496  0.1741  0.4944
11486TIP3    H155949   4.018   4.066  13.565  0.1306 -0.4318  0.2392
11486TIP3    H255950   4.016   4.213  13.528  1.2936 -0.1588  1.1741
11487TIP3   OH255951   6.128   1.704   2.542 -0.0324  0.6459 -0.5668
11487TIP3    H155952   6.074   1.679   2.617 -1.3489  1.9038 -1.0543
11487TIP3    H255953   6.169   1.623   2.514 -0.6513 -0.1072  0.6149
11488TIP3   OH255954   1.136   5.828  15.234 -0.3583  0.7376 -0.0701
11488TIP3    H155955   1.172   5.845  15.321 -1.0904  1.3651  0.1189
11488TIP3    H255956   1.063   5.768  15.249  0.6932 -0.7180 -0.4775
11489TIP3   OH255957   6.384   0.173  11.322 -0.6593  0.2567 -0.6439
11489TIP3    H155958   6.372   0.266  11.304 -0.8247  0.3131 -0.2437
11489TIP3    H255959   6.312   0.150  11.382 -2.2612 -0.7473 -2.8110
11490TIP3   OH255960   1.639   3.241   3.339 -1.0181  0.0902  0.1289
11490TIP3    H155961   1.672   3.190   3.413  1.0247  0.5472 -0.4191
11490TIP3    H255962   1.702   3.227   3.269 -0.8286  2.6326 -0.3275
11491TIP3   OH255963   3.362   0.658   1.595 -0.3885 -0.9988 -0.2010
11491TIP3    H155964   3.332   0.631   1.682 -1.3955  0.7447  0.0509
11491TIP3    H255965   3.425   0.728   1.612  1.7919 -2.7013 -0.8378
11492TIP3   OH255966   2.129   2.168  14.400 -0.0566 -0.1907 -0.0942
11492TIP3    H155967   2.181   2.118  14.463 -1.7656  2.4103  3.7384
11492TIP3    H255968   2.088   2.101  14.344  1.3851 -2.7009  1.6404
11493TIP3   OH255969   1.157   2.920  13.115 -0.5131 -0.0864  0.1073
11493TIP3    H155970   1.183   2.992  13.057  0.7722  1.8040  2.8208
11493TIP3    H255971   1.142   2.847  13.056 -0.1027  1.8943 -2.6728
11494TIP3   OH255972   1.323   4.849  14.476 -0.4546  0.1721 -0.6411
11494TIP3    H155973   1.308   4.944  14.480 -1.9357 -0.1016  1.2612
11494TIP3    H255974   1.242   4.810  14.508 -0.1054 -1.8035 -1.9574
11495TIP3   OH255975   2.339   3.850  12.427 -0.0989 -0.0938 -0.1325
11495TIP3    H155976   2.285   3.801  12.364 -0.8815  0.0387  0.4249
11495TIP3    H255977   2.341   3.939  12.393  0.9555 -0.3867 -0.9084
11496TIP3   OH255978   4.935   5.192  12.737  0.0797  0.3576 -0.4341
11496TIP3    H155979   5.007   5.200  12.674  0.4840 -0.4551 -0.0902
11496TIP3    H255980   4.864   5.151  12.688  0.3759 -0.2255 -0.3813
11497TIP3   OH255981   3.500   4.137   4.125  0.3479  0.3917  0.1737
11497TIP3    H155982   3.557   4.211   4.105 -1.0833  1.6605  0.6811
11497TIP3    H255983   3.532   4.105   4.209  2.6185 -1.2752 -1.1930
11498TIP3   OH255984   3.219   2.257   5.655 -0.2031  0.2335  0.5127
11498TIP3    H155985   3.126   2.234   5.657 -0.2028  0.2773  1.4671
11498TIP3    H255986   3.258   2.207   5.727  0.3486  0.8806  0.6734
11499TIP3   OH255987   1.569   4.318  12.166  0.1540 -0.0301  0.2125
11499TIP3    H155988   1.624   4.266  12.108  1.8492  0.4039  1.3568
11499TIP3    H255989   1.607   4.306  12.253 -0.2764  1.9216  0.7316
11500TIP3   OH255990   1.105   1.498  14.198  0.5020 -0.6918  0.6119
11500TIP3    H155991   1.042   1.550  14.248 -0.4583 -0.7885 -0.4506
11500TIP3    H255992   1.100   1.534  14.110  2.7215 -0.0183  0.7086
11501TIP3   OH255993   0.615   3.507   5.578  0.6549  0.3693 -0.2148
11501TIP3    H155994   0.575   3.511   5.492  2.0451 -0.0389 -0.9144
11501TIP3    H255995   0.544   3.479   5.636 -0.4231  1.1270 -1.1213
11502TIP3   OH255996   4.887   4.430   4.686 -0.0425  0.2485 -0.2241
11502TIP3    H155997   4.963   4.402   4.736 -0.5938 -1.5984 -0.3749
11502TIP3    H255998   4.913   4.515   4.649  2.7829 -1.2552 -1.9898
11503TIP3   OH255999   5.511   0.353  14.750  0.3598 -0.4469 -0.3309
11503TIP3    H156000   5.424   0.314  14.747 -0.3142  1.0240 -0.8863
11503TIP3    H256001   5.560   0.310  14.681 -0.3214 -0.4206 -0.8377
11504TIP3   OH256002   4.182   6.376   2.982  0.2791  0.2207  0.3830
11504TIP3    H156003   4.089   6.358   2.976  0.7057 -1.9860 -0.6617
11504TIP3    H256004   4.202   6.425   2.901  0.3391 -1.1136 -0.4452
11505TIP3   OH256005   0.350   1.658  15.141  0.0279  0.5447  0.2104
11505TIP3    H156006   0.319   1.649  15.051 -1.6235  0.8554  0.7145
11505TIP3    H256007   0.442   1.680  15.132  0.3348 -1.1379 -1.3499
11506TIP3   OH256008   5.325   0.927   2.669  0.3802 -0.3251 -0.3427
11506TIP3    H156009   5.407   0.925   2.717  0.6361  0.2058 -0.7553
11506TIP3    H256010   5.288   0.839   2.681  0.1277 -0.0196  1.3515
11507TIP3   OH256011   3.822   3.447  10.764  0.2155 -0.1244  0.3339
11507TIP3    H156012   3.856   3.369  10.807 -2.4058 -1.3711  0.3247
11507TIP3    H256013   3.863   3.446  10.677  0.6918 -1.1311  0.5525
11508TIP3   OH256014   5.280   4.931  17.051 -0.1650 -0.7085 -0.5978
11508TIP3    H156015   5.238   4.847  17.072 -2.1533 -0.1887 -2.1601
11508TIP3    H256016   5.336   4.911  16.976  2.2317 -1.3200  1.2498
11509TIP3   OH256017   6.323   6.692   5.048  0.0660  0.0957  0.1930
11509TIP3    H156018   6.331   6.658   5.137 -0.5165  2.7622  1.3663
11509TIP3    H256019   6.232   6.673   5.023  0.5440 -1.7001 -0.3907
11510TIP3   OH256020   2.317   0.039  16.903  0.4448 -0.2829 -0.1280
11510TIP3    H156021   2.325  -0.055  16.922 -0.5728 -0.0572  1.6021
11510TIP3    H256022   2.397   0.077  16.938  0.9541 -0.5066 -1.0147
11511TIP3   OH256023   6.376   0.903   5.851 -0.0557 -0.6792  0.3179
11511TIP3    H156024   6.370   0.888   5.945 -0.7444  0.8631  0.5567
11511TIP3    H256025   6.288   0.929   5.825  0.7883  2.0953 -0.1020
11512TIP3   OH256026   2.149   3.005   4.605  0.0775  0.2104 -0.6218
11512TIP3    H156027   2.172   3.098   4.602  2.6363 -0.1915  2.1629
11512TIP3    H256028   2.215   2.962   4.551 -0.5187 -0.1159 -1.1072
11513TIP3   OH256029   5.918   1.299  15.380  0.0807  0.0553  0.1900
11513TIP3    H156030   5.990   1.350  15.420 -0.5786  1.2183 -0.0571
11513TIP3    H256031   5.952   1.274  15.294  0.2151  0.5739  0.0850
11514TIP3   OH256032   0.245   4.653   4.945  0.5005  0.0501  0.4729
11514TIP3    H156033   0.162   4.609   4.925  0.6445 -0.9511  1.8939
11514TIP3    H256034   0.236   4.678   5.037  0.5596  2.7828 -0.1758
11515TIP3   OH256035   6.107   3.175   0.999  0.9128  0.1229  0.3438
11515TIP3    H156036   6.119   3.110   0.929  1.3726  0.2597  0.2945
11515TIP3    H256037   6.012   3.189   1.002  0.9907  1.1409 -1.1849
11516TIP3   OH256038   4.900   3.020  12.200 -0.2762  0.0134  0.6733
11516TIP3    H156039   4.993   3.039  12.208 -0.8397  2.5269  2.4566
11516TIP3    H256040   4.886   3.004  12.106  1.5218  2.2589 -0.0575
11517TIP3   OH256041   1.453   3.936  12.127  0.2324  0.0744  0.5483
11517TIP3    H156042   1.384   3.934  12.193  0.5626  1.6833  0.9900
11517TIP3    H256043   1.425   4.003  12.064 -0.3645 -1.8373 -1.3284
11518TIP3   OH256044   5.643   3.699   0.478 -0.4838  0.0128  0.1158
11518TIP3    H156045   5.589   3.640   0.531 -1.3085 -1.6048 -2.3627
11518TIP3    H256046   5.580   3.750   0.428  0.2239 -0.8808 -1.7627
11519TIP3   OH256047   0.594   6.772  13.299 -0.1653 -0.1455 -0.1053
11519TIP3    H156048   0.679   6.782  13.341  0.3137 -2.3637 -0.4251
11519TIP3    H256049   0.538   6.734  13.367 -0.6229  0.3626 -0.1922
11520TIP3   OH256050   0.751   0.814   1.840 -0.5582  0.3395  0.4961
11520TIP3    H156051   0.717   0.725   1.842  2.5456 -1.0361 -0.5269
11520TIP3    H256052   0.759   0.834   1.747  1.2205  0.5405  0.6407
11521TIP3   OH256053   6.517   1.225  13.249  0.3568  0.5588  0.5038
11521TIP3    H156054   6.599   1.273  13.232  1.4627 -1.3625  0.1315
11521TIP3    H256055   6.533   1.179  13.331  0.1401 -0.7934 -0.1875
11522TIP3   OH256056   2.423   3.230  15.785  0.0096 -0.4602 -0.1360
11522TIP3    H156057   2.449   3.164  15.720  1.2478 -0.3428  0.2149
11522TIP3    H256058   2.440   3.313  15.741 -1.6100 -0.3300 -0.6032
11523TIP3   OH256059   5.605   2.460   4.005 -0.5627 -0.1896  0.3794
11523TIP3    H156060   5.690   2.459   4.049 -0.8494  1.4472  1.0390
11523TIP3    H256061   5.626   2.483   3.914 -0.2244 -0.7664  0.3053
11524TIP3   OH256062   1.010   3.643   4.093 -0.0576  0.0144  0.0490
11524TIP3    H156063   1.077   3.576   4.089 -0.9088 -0.7797 -2.1570
11524TIP3    H256064   0.934   3.604   4.051 -1.1812  1.6973  0.4156
11525TIP3   OH256065   4.071   3.549   3.741  0.3874 -0.0452 -0.1573
11525TIP3    H156066   4.034   3.529   3.827  0.5217 -1.5041 -0.4192
11525TIP3    H256067   4.149   3.602   3.761 -0.3760  0.8582  0.5222
11526TIP3   OH256068   1.630   4.363   3.387 -0.3993 -0.6019 -0.2477
11526TIP3    H156069   1.550   4.395   3.429 -0.7816 -1.5963 -0.1896
11526TIP3    H256070   1.652   4.430   3.322  1.7591  2.4922  3.2230
11527TIP3   OH256071   2.764   3.396   3.449  0.1995 -0.1034 -0.5558
11527TIP3    H156072   2.677   3.362   3.469  1.1200 -2.0158  0.5291
11527TIP3    H256073   2.767   3.482   3.490 -0.7581 -0.5552  0.5159
11528TIP3   OH256074   0.968   6.838   3.765 -0.2680  0.3399 -0.3245
11528TIP3    H156075   0.961   6.933   3.766 -0.0638  0.3584 -0.5770
11528TIP3    H256076   0.886   6.807   3.727  1.0656  0.5712 -3.7411
11529TIP3   OH256077   4.519   4.083   1.417 -0.1419 -0.0122 -0.2670
11529TIP3    H156078   4.552   4.162   1.374  2.9348  0.0264  1.7894
11529TIP3    H256079   4.572   4.012   1.380  0.6181 -0.3421  1.3421
11530TIP3   OH256080   5.610   5.474   6.307  0.0792  0.5132  0.5462
11530TIP3    H156081   5.631   5.527   6.384 -2.1936 -0.0628  1.6664
11530TIP3    H256082   5.635   5.528   6.233 -0.2071  2.2680  1.6662
11531TIP3   OH256083   6.274   2.285  13.630  0.1793  0.4402 -0.3784
11531TIP3    H156084   6.249   2.224  13.699 -1.4431 -0.1602 -1.4567
11531TIP3    H256085   6.339   2.236  13.578  1.2965  0.8420  0.5893
11532TIP3   OH256086   1.757   6.380   1.885 -0.2842 -0.6800 -0.2195
11532TIP3    H156087   1.729   6.335   1.965  0.2433 -2.2806 -0.8925
11532TIP3    H256088   1.853   6.380   1.889 -0.2691  0.2841 -0.3063
11533TIP3   OH256089   4.166   1.765   4.287  0.2669 -0.1768 -0.6594
11533TIP3    H156090   4.184   1.673   4.267  1.1541 -0.2141  0.2118
11533TIP3    H256091   4.241   1.792   4.339 -1.4270  0.1875  1.7361
11534TIP3   OH256092   0.904   0.947  10.871  0.1594  0.0530  0.4481
11534TIP3    H156093   0.828   0.930  10.927  1.0286 -0.2684  1.5837
11534TIP3    H256094   0.887   1.033  10.832 -2.5147 -1.5332 -2.3164
11535TIP3   OH256095   2.843   0.136  16.121 -0.0430  0.3724 -0.0212
11535TIP3    H156096   2.893   0.218  16.120 -0.6738  0.7532 -0.8805
11535TIP3    H256097   2.760   0.158  16.080 -1.7527  0.2379  3.0869
11536TIP3   OH256098   6.508   0.584  16.886 -0.1278 -0.1253  0.3353
11536TIP3    H156099   6.548   0.498  16.897 -0.9066 -0.7035 -1.0876
11536TIP3    H256100   6.480   0.586  16.794 -0.6290  1.4297  0.4941
11537TIP3   OH256101   6.371   5.103   5.542 -0.2668 -0.3575  0.2618
11537TIP3    H156102   6.325   5.099   5.458 -0.6456  0.9477  0.3852
11537TIP3    H256103   6.391   5.196   5.554  0.3249 -0.6067  1.3281
11538TIP3   OH256104   3.374   2.951  11.001  0.3851 -0.0163 -0.1839
11538TIP3    H156105   3.285   2.923  10.978  0.1394  0.5153  0.0900
11538TIP3    H256106   3.428   2.873  10.986  0.0396 -0.0588 -1.3050
11539TIP3   OH256107   4.357   6.272   3.690  0.2732  0.1885  0.2223
11539TIP3    H156108   4.292   6.210   3.723  1.0314 -1.4240 -1.1390
11539TIP3    H256109   4.418   6.284   3.763 -0.4944  0.2238  0.8724
11540TIP3   OH256110   5.166   2.943   0.376 -0.8802 -0.3262  0.2464
11540TIP3    H156111   5.141   2.902   0.459 -1.8667 -2.5530 -1.0659
11540TIP3    H256112   5.205   2.872   0.325  1.6210  1.4490 -0.5039
11541TIP3   OH256113   2.507   0.323   0.008 -0.0984 -0.2476 -0.0951
11541TIP3    H156114   2.435   0.324  -0.054  0.6794  2.1680 -1.0646
11541TIP3    H256115   2.570   0.261  -0.029 -0.5397 -0.3801 -0.6340
11542TIP3   OH256116   0.338   3.816   0.839 -0.4916 -0.8802 -0.3616
11542TIP3    H156117   0.274   3.884   0.861  2.6199  2.6787 -1.2018
11542TIP3    H256118   0.364   3.836   0.749  0.6928 -3.1456 -0.5924
11543TIP3   OH256119   4.017   3.979  10.529 -0.5478 -0.2479  0.4796
11543TIP3    H156120   3.977   3.993  10.443  1.2692 -2.4977 -0.8713
11543TIP3    H256121   3.981   3.895  10.559  1.3344 -1.2182  0.2268
11544TIP3   OH256122   4.097   2.920  13.431 -0.4415  0.0705 -0.3806
11544TIP3    H156123   4.117   2.921  13.525 -0.3027 -2.1791 -0.3452
11544TIP3    H256124   4.182   2.932  13.388 -0.4386  0.5943 -0.2410
11545TIP3   OH256125   2.917   0.667   0.254 -0.3524 -0.0390  0.2600
11545TIP3    H156126   2.922   0.720   0.334  0.4582  0.5581 -0.1672
11545TIP3    H256127   2.840   0.701   0.208  0.7692  1.5685 -0.5315
11546TIP3   OH256128   3.134   3.843   5.025  0.1745 -0.5037  0.1216
11546TIP3    H156129   3.201   3.784   5.058  1.0228 -0.1294 -0.8607
11546TIP3    H256130   3.175   3.885   4.949 -1.6132 -1.1912 -1.2875
11547TIP3   OH256131   1.506   1.183   0.918  0.3235  0.9389 -0.2199
11547TIP3    H156132   1.468   1.271   0.911 -1.5069  0.2742  0.7601
11547TIP3    H256133   1.458   1.131   0.854 -0.1914  0.1501  0.7955
11548TIP3   OH256134   4.424   0.123   1.788  0.2808  0.2195  0.4257
11548TIP3    H156135   4.463   0.039   1.814 -2.9046 -0.9819  1.9215
11548TIP3    H256136   4.364   0.101   1.718 -0.1738  1.3784  0.4324
11549TIP3   OH256137   3.157   6.539  16.224 -0.2954 -0.3657  0.3389
11549TIP3    H156138   3.196   6.459  16.260 -0.9568 -0.5468  0.6488
11549TIP3    H256139   3.067   6.539  16.256  0.4316  1.9298  2.6859
11550TIP3   OH256140   1.876   4.472   5.788 -0.8133  0.1505  0.1994
11550TIP3    H156141   1.781   4.462   5.776 -0.5362 -0.8562 -1.4306
11550TIP3    H256142   1.914   4.396   5.743  0.8338  1.2688 -0.3812
11551TIP3   OH256143   3.853   6.466   5.412 -0.1565 -0.0397  0.4239
11551TIP3    H156144   3.795   6.466   5.336  0.2592 -1.4847  0.0768
11551TIP3    H256145   3.937   6.434   5.379  0.8188  1.8084  0.9640
11552TIP3   OH256146   3.683   4.795  12.286 -0.2329 -0.9732 -0.3899
11552TIP3    H156147   3.665   4.824  12.375 -0.7606 -0.0811 -0.7748
11552TIP3    H256148   3.597   4.785  12.246 -0.0031 -1.4673 -0.7678
11553TIP3   OH256149   6.559   2.318   3.304  0.6449 -0.0306  0.6589
11553TIP3    H156150   6.512   2.301   3.223 -0.2546 -0.6465  1.2981
11553TIP3    H256151   6.647   2.343   3.276 -0.0544  1.2073 -0.5543
11554TIP3   OH256152   4.029   3.519   4.273  0.3515 -0.3559  0.2272
11554TIP3    H156153   4.033   3.556   4.361  0.2321  1.9838 -0.6848
11554TIP3    H256154   4.121   3.515   4.244  0.3056 -0.0242  0.0337
11555TIP3   OH256155   1.037   6.181   2.026  0.4201 -0.1752 -0.0228
11555TIP3    H156156   0.999   6.205   2.110  1.0630  3.3644 -0.6156
11555TIP3    H256157   1.116   6.234   2.018  1.0629 -1.3306 -2.3458
11556TIP3   OH256158   6.286   4.024  14.982 -0.2645  0.0135  0.1506
11556TIP3    H156159   6.216   3.959  14.968 -1.1916  0.9473  0.3663
11556TIP3    H256160   6.352   3.977  15.033 -0.9003 -0.7717  0.2666
11557TIP3   OH256161   2.476   2.676  11.452  0.0406 -0.1637 -0.0579
11557TIP3    H156162   2.540   2.663  11.521 -1.2320 -0.1692  1.1668
11557TIP3    H256163   2.505   2.619  11.381  1.2757 -0.2917  0.5280
11558TIP3   OH256164   4.436   6.254   3.958 -0.0558  0.1174 -0.4111
11558TIP3    H156165   4.420   6.169   3.917  1.8627 -0.1630 -0.6265
11558TIP3    H256166   4.523   6.247   3.996 -0.4798  1.4881  0.9178
11559TIP3   OH256167   3.062   0.878   1.540 -0.4902  0.1626  0.1177
11559TIP3    H156168   3.078   0.824   1.617 -1.6421  0.4474  0.5853
11559TIP3    H256169   2.991   0.834   1.494  1.2445 -0.9106 -1.7178
11560TIP3   OH256170   1.318   6.030  12.819 -0.0987 -0.2741  0.5864
11560TIP3    H156171   1.338   6.051  12.910  0.0391  0.8300  0.3175
11560TIP3    H256172   1.338   5.937  12.811  0.4292 -0.2592  1.5349
11561TIP3   OH256173   1.714   2.787  10.628 -0.3697 -0.1443  0.2733
11561TIP3    H156174   1.701   2.693  10.624 -0.5708 -0.1314  0.6043
11561TIP3    H256175   1.747   2.804  10.716  2.2010 -0.2048 -0.5790
11562TIP3   OH256176   0.195   2.071   5.702  0.5122  0.2527  0.4156
11562TIP3    H156177   0.214   2.095   5.611 -0.2273  1.4455  0.5619
11562TIP3    H256178   0.273   2.023   5.731  0.1984 -1.3852 -1.2662
11563TIP3   OH256179   2.257   1.794  12.500  0.0275  0.2399  0.4468
11563TIP3    H156180   2.214   1.859  12.445  0.5363  0.2930  0.1013
11563TIP3    H256181   2.193   1.724  12.510  0.2370 -0.1537 -0.9112
11564TIP3   OH256182   1.679   0.906   5.426  0.3049 -0.1185 -0.2168
11564TIP3    H156183   1.743   0.841   5.399  1.1519  0.4951  0.2677
11564TIP3    H256184   1.710   0.988   5.386  0.2997  0.3490  0.7121
11565TIP3   OH256185   6.638   0.917   2.773  0.7029  0.3210 -0.1859
11565TIP3    H156186   6.699   0.844   2.766  1.6274  0.8752  1.6516
11565TIP3    H256187   6.690   0.994   2.749  0.3867  0.6622  0.2142
11566TIP3   OH256188   6.668   6.282   6.167  0.6173  0.3835  0.3123
11566TIP3    H156189   6.723   6.331   6.228 -0.8970 -0.3091  2.3735
11566TIP3    H256190   6.666   6.193   6.203 -0.4335 -0.0158 -0.6824
11567TIP3   OH256191   4.695   5.535   6.273 -0.1620 -0.5451  0.0115
11567TIP3    H156192   4.685   5.442   6.293  2.1328 -0.7973  0.2614
11567TIP3    H256193   4.786   5.554   6.294 -0.4141  1.6194 -0.6469
11568TIP3   OH256194   6.727   5.836   3.699 -0.3149 -0.7773 -0.4358
11568TIP3    H156195   6.725   5.908   3.636 -0.3716  0.5746  1.0446
11568TIP3    H256196   6.818   5.805   3.698  0.0560  0.2603 -0.0869
11569TIP3   OH256197   1.481   3.925   0.336 -0.3894 -0.0989 -0.1166
11569TIP3    H156198   1.508   3.940   0.427  0.0261  0.0392 -0.2578
11569TIP3    H256199   1.441   4.007   0.310  1.5597  0.7015 -0.7746
11570TIP3   OH256200   4.963   1.683  11.567  0.0874 -0.1715 -0.3074
11570TIP3    H156201   4.945   1.739  11.491  0.5294  0.0246 -0.2729
11570TIP3    H256202   4.894   1.705  11.630 -0.8181 -0.9894 -0.9940
11571TIP3   OH256203   1.888   2.338   2.653  0.1608  0.5108 -0.2944
11571TIP3    H156204   1.920   2.264   2.602  0.3678 -0.1397  0.7555
11571TIP3    H256205   1.803   2.359   2.614 -0.0442 -0.4907 -0.3975
11572TIP3   OH256206   4.339   3.936   6.515 -0.1199  0.3539  0.3573
11572TIP3    H156207   4.422   3.967   6.479  0.3070  1.8175  2.4180
11572TIP3    H256208   4.286   4.015   6.526 -1.3861 -0.4244  0.1136
11573TIP3   OH256209   5.663   2.568   4.554  0.3385 -0.7161  0.1574
11573TIP3    H156210   5.641   2.539   4.466  0.1019 -1.3580  0.4278
11573TIP3    H256211   5.585   2.550   4.606  0.5990 -0.6635  0.5748
11574TIP3   OH256212   3.730   2.970  14.649  0.0529  0.1742 -0.1820
11574TIP3    H156213   3.796   3.016  14.597  1.6618  0.8618  2.3186
11574TIP3    H256214   3.718   2.887  14.603  0.1559  1.3592 -2.5111
11575TIP3   OH256215   2.718   6.437   5.550  0.3304 -0.0829 -0.2027
11575TIP3    H156216   2.696   6.349   5.580  0.7074 -0.3771 -0.7853
11575TIP3    H256217   2.761   6.478   5.625 -1.0417  0.0689  0.5307
11576TIP3   OH256218   3.413   0.639   0.045 -0.0325  0.9345  0.2848
11576TIP3    H156219   3.464   0.714   0.014  0.7797  0.7984  1.2480
11576TIP3    H256220   3.427   0.638   0.139 -0.6750  0.0343  0.3810
11577TIP3   OH256221   4.882   1.113  14.178  0.3748 -0.1526  0.2159
11577TIP3    H156222   4.839   1.199  14.179  1.4467  0.4000  0.5195
11577TIP3    H256223   4.973   1.132  14.200  0.9587 -1.1941 -1.1319
11578TIP3   OH256224   6.505   4.130   0.113  0.2315 -0.2050  0.0416
11578TIP3    H156225   6.460   4.074   0.177 -0.9172 -0.0661 -0.6128
11578TIP3    H256226   6.568   4.179   0.165 -1.2065  0.4813  1.2286
11579TIP3   OH256227   0.556   4.469  12.847  0.0942 -0.6254  0.1977
11579TIP3    H156228   0.594   4.388  12.879  0.8391 -0.3120  0.1138
11579TIP3    H256229   0.599   4.485  12.763  0.9174  0.5290  0.8118
11580TIP3   OH256230   1.402   5.407  15.139 -0.0001  0.0730  0.2383
11580TIP3    H156231   1.453   5.326  15.133  0.6707  0.5702 -1.0346
11580TIP3    H256232   1.446   5.459  15.206 -0.1324 -0.3991  0.6961
11581TIP3   OH256233   0.405   1.938   4.969  0.0416 -0.1202 -0.3288
11581TIP3    H156234   0.323   1.912   5.011 -0.8127  0.4301 -1.6179
11581TIP3    H256235   0.417   2.029   4.995  1.0400 -0.6086  1.0502
11582TIP3   OH256236   0.195   5.983   0.308 -0.3839 -0.2252  0.0187
11582TIP3    H156237   0.273   5.926   0.307 -0.6822 -0.6405 -0.9986
11582TIP3    H256238   0.122   5.924   0.292 -0.6001  0.5416 -2.1974
11583TIP3   OH256239   3.563   6.767  15.462  0.8988 -0.0280  0.5349
11583TIP3    H156240   3.575   6.742  15.554  0.7686  0.0698  0.5781
11583TIP3    H256241   3.532   6.687  15.419  1.0378 -0.0954  0.5601
11584TIP3   OH256242   2.597   1.060   5.382 -0.3304  0.1326 -0.6832
11584TIP3    H156243   2.650   0.986   5.354 -1.4229 -0.8774 -0.1749
11584TIP3    H256244   2.560   1.033   5.466  0.1488  1.7224  0.0809
11585TIP3   OH256245   2.209   5.924   3.461 -0.1081 -0.2102  0.5509
11585TIP3    H156246   2.131   5.980   3.468 -0.3233 -0.3442 -0.6547
11585TIP3    H256247   2.254   5.955   3.383  0.5069 -0.8137  0.6614
11586TIP3   OH256248   3.770   1.044   3.728  0.5326 -0.2845 -0.1643
11586TIP3    H156249   3.832   0.993   3.676 -0.4191  0.2874 -1.9327
11586TIP3    H256250   3.824   1.084   3.797  1.7440 -1.4731 -0.3737
11587TIP3   OH256251   4.239   4.936  16.605  0.2563  0.4484 -0.2566
11587TIP3    H156252   4.144   4.920  16.603 -0.0675  2.2199 -0.6687
11587TIP3    H256253   4.248   5.019  16.651  1.8459 -0.9086  2.0763
11588TIP3   OH256254   4.760   1.982   1.260  0.1842  0.1652 -0.2855
11588TIP3    H156255   4.746   1.904   1.207 -0.5979 -2.1372  2.9746
11588TIP3    H256256   4.672   2.009   1.287  0.5055  1.7431 -0.7163
11589TIP3   OH256257   1.649   1.706   2.815 -0.5825 -0.3233  0.6262
11589TIP3    H156258   1.640   1.615   2.841  1.7601 -0.6052  0.6778
11589TIP3    H256259   1.599   1.755   2.880 -1.3167 -1.5270  0.9871
11590TIP3   OH256260   3.082   5.512  13.353 -0.4607  0.0972 -0.3008
11590TIP3    H156261   3.156   5.467  13.393 -0.0828  0.3821 -0.6753
11590TIP3    H256262   3.018   5.520  13.424  0.8576  2.1507  0.7638
11591TIP3   OH256263   2.248   2.591   1.665 -0.2650 -0.1380 -0.0035
11591TIP3    H156264   2.173   2.539   1.692  0.6595 -1.3311  0.3901
11591TIP3    H256265   2.211   2.668   1.622 -1.6958 -0.5292  0.4948
11592TIP3   OH256266   5.589   6.501   0.307 -0.1574  0.2585  0.4102
11592TIP3    H156267   5.503   6.536   0.285  1.5157  3.0235 -2.5232
11592TIP3    H256268   5.597   6.421   0.255 -0.7645  0.1896  0.4140
11593TIP3   OH256269   4.727   2.996   2.186  0.5565 -0.2130  0.1523
11593TIP3    H156270   4.644   2.993   2.233  1.3941 -1.1624  1.6468
11593TIP3    H256271   4.719   2.928   2.119 -0.6140  1.0928 -1.1165
11594TIP3   OH256272   2.314   2.685  16.773 -0.1874 -0.9646  0.0518
11594TIP3    H156273   2.361   2.628  16.835 -0.0634  1.2451  2.1242
11594TIP3    H256274   2.384   2.732  16.727 -0.3226 -1.0376 -0.2291
11595TIP3   OH256275   2.015   1.032   2.880 -0.8955  0.1018 -0.3447
11595TIP3    H156276   2.005   0.969   2.951  1.1157 -1.3233 -1.2370
11595TIP3    H256277   2.032   1.116   2.925 -2.1282 -0.2417  0.8383
11596TIP3   OH256278   3.951   2.991  14.897  0.2845  0.1635 -0.5285
11596TIP3    H156279   4.005   3.067  14.874  0.1060  0.5880  0.3992
11596TIP3    H256280   4.009   2.935  14.949 -0.1378  0.5893  0.4174
11597TIP3   OH256281   2.305   3.401   1.593 -0.6638  0.5202 -0.1545
11597TIP3    H156282   2.253   3.357   1.525  0.3801 -0.4835 -0.3462
11597TIP3    H256283   2.342   3.477   1.549  3.0009 -2.0166 -1.9875
11598TIP3   OH256284   1.985   0.999  15.020 -0.3071 -0.1720 -0.3292
11598TIP3    H156285   1.985   1.089  14.988  1.0750  0.6579  1.7489
11598TIP3    H256286   2.063   0.994  15.077  0.4510 -3.0946 -1.4411
11599TIP3   OH256287   4.621   4.358   0.120  0.3333  0.1091  0.4038
11599TIP3    H156288   4.705   4.340   0.161  0.0097  2.0613  2.0602
11599TIP3    H256289   4.639   4.427   0.056  0.0132  0.4850  0.7147
11600TIP3   OH256290   5.794   5.370   1.646 -0.5217 -0.3379  0.0192
11600TIP3    H156291   5.782   5.435   1.576  0.0760 -0.7298 -0.4611
11600TIP3    H256292   5.800   5.422   1.726  3.5241  0.5920 -0.6786
11601TIP3   OH256293   1.369   2.512  11.519  0.1715 -0.2137  0.0272
11601TIP3    H156294   1.415   2.595  11.520 -1.1651  0.6808  3.7445
11601TIP3    H256295   1.281   2.534  11.488  0.3119 -0.6272 -0.6924
11602TIP3   OH256296   6.561   3.696  12.025 -0.2425 -0.3666 -0.1156
11602TIP3    H156297   6.606   3.614  12.006  0.4545  0.1076 -0.5331
11602TIP3    H256298   6.468   3.674  12.023 -0.1116 -0.8700 -1.5622
11603TIP3   OH256299   4.488   2.354  12.706 -0.8806  0.0645 -0.2370
11603TIP3    H156300   4.468   2.298  12.782  0.0070 -0.3837 -0.3202
11603TIP3    H256301   4.403   2.383  12.675 -1.2865 -0.1648  0.6261
11604TIP3   OH256302   3.510   6.722  12.191 -0.2234 -0.0876 -0.3107
11604TIP3    H156303   3.510   6.729  12.286  2.1404  0.9113 -0.3014
11604TIP3    H256304   3.425   6.686  12.169 -1.4469  1.1295  2.0649
11605TIP3   OH256305   2.935   6.177   0.284  0.0306 -0.4039 -0.2193
11605TIP3    H156306   2.952   6.103   0.225 -0.1134 -0.3498 -0.3273
11605TIP3    H256307   3.017   6.188   0.332  0.4837  0.1908 -1.1065
11606TIP3   OH256308   2.447   2.143  16.936  0.8552 -0.3522  0.3504
11606TIP3    H156309   2.400   2.087  16.997 -1.5811  1.4397  0.2406
11606TIP3    H256310   2.473   2.084  16.864 -0.8851 -1.4981  0.6152
11607TIP3   OH256311   2.445   3.192   5.415 -0.2056  0.0594  0.4197
11607TIP3    H156312   2.421   3.100   5.432 -2.5839  0.1532 -1.9383
11607TIP3    H256313   2.377   3.243   5.458 -1.3161  0.5243 -1.7658
11608TIP3   OH256314   4.647   5.134  16.628 -0.1609 -0.0914 -0.0934
11608TIP3    H156315   4.582   5.068  16.653 -0.5594 -0.1790 -1.2766
11608TIP3    H256316   4.675   5.107  16.540 -1.0593  1.8597 -1.0357
11609TIP3   OH256317   0.244   0.487   5.706 -0.2806 -0.1102  0.6872
11609TIP3    H156318   0.166   0.448   5.747 -0.2489 -1.2164 -0.2641
11609TIP3    H256319   0.314   0.425   5.726 -0.1848 -0.4612 -0.6715
11610TIP3   OH256320   6.127   4.976   3.717  0.2336 -0.5297 -0.1076
11610TIP3    H156321   6.192   4.926   3.766  0.9280 -0.9005 -1.3744
11610TIP3    H256322   6.154   4.968   3.626  0.1116  1.8014 -0.3992
11611TIP3   OH256323   3.592   0.309  16.398  0.1906  0.7868  0.0395
11611TIP3    H156324   3.672   0.349  16.433 -1.0238  1.5915  2.0958
11611TIP3    H256325   3.569   0.242  16.462 -0.4565  0.1328 -0.8541
11612TIP3   OH256326   0.971   4.622   2.814  0.2900  0.4690  0.4961
11612TIP3    H156327   1.044   4.657   2.763  0.7889  0.5611  1.2638
11612TIP3    H256328   0.925   4.565   2.752  1.3249 -0.0186  0.1462
11613TIP3   OH256329   6.217   5.737  14.776 -0.4422 -0.1977  0.1002
11613TIP3    H156330   6.265   5.671  14.826  0.6990 -0.0006 -0.7034
11613TIP3    H256331   6.193   5.693  14.695 -0.9328 -0.0464  0.1602
11614TIP3   OH256332   3.376   3.721  13.484 -0.4363 -0.4976  0.1531
11614TIP3    H156333   3.365   3.707  13.578 -0.0927 -0.9713  0.1259
11614TIP3    H256334   3.390   3.815  13.475 -1.5430 -0.2904  0.4692
11615TIP3   OH256335   0.067   5.303  15.989  0.5524  0.0326  0.0864
11615TIP3    H156336   0.001   5.337  15.928 -0.3266  0.1618  1.0794
11615TIP3    H256337   0.120   5.379  16.013 -1.9389  1.0611  2.9697
11616TIP3   OH256338   1.062   5.591   1.268 -0.0817  0.2897 -0.3030
11616TIP3    H156339   1.103   5.678   1.271 -0.5273  0.4972 -0.2504
11616TIP3    H256340   0.973   5.605   1.300 -0.5128  0.0114 -1.3539
11617TIP3   OH256341   5.439   4.768  16.495 -0.3930 -0.2504  0.3813
11617TIP3    H156342   5.465   4.695  16.439  1.4498 -1.2583  2.3792
11617TIP3    H256343   5.389   4.727  16.566 -2.2107  0.9155 -0.1484
11618TIP3   OH256344   4.846   1.088  16.342  0.0296  0.3562 -0.3611
11618TIP3    H156345   4.771   1.046  16.385  0.1408  0.6169  0.0937
11618TIP3    H256346   4.812   1.116  16.257 -0.3620  0.4025 -0.1900
11619TIP3   OH256347   3.773   3.891  15.212 -0.1359 -0.3487  0.6210
11619TIP3    H156348   3.731   3.941  15.282  0.0597 -1.1557  1.3261
11619TIP3    H256349   3.704   3.882  15.145  0.1297  1.7336 -0.0035
11620TIP3   OH256350   0.298   5.516  14.065 -0.1696 -0.0414  0.4054
11620TIP3    H156351   0.316   5.422  14.061  1.3122  0.1966  0.8301
11620TIP3    H256352   0.371   5.556  14.018 -2.0455  0.8117 -1.9506
11621TIP3   OH256353   0.016   3.377  16.330 -0.3354  0.4637 -0.3779
11621TIP3    H156354  -0.009   3.361  16.421 -0.1501  0.9302 -0.2408
11621TIP3    H256355  -0.060   3.420  16.291 -1.4448 -2.0158 -1.1644
11622TIP3   OH256356   0.208   4.433  14.855  0.9959  0.2904 -0.2315
11622TIP3    H156357   0.195   4.506  14.915  1.9130  1.9996 -1.9939
11622TIP3    H256358   0.289   4.454  14.808  0.9008 -1.5012 -1.3092
11623TIP3   OH256359   0.369   5.245   1.930 -0.6883  0.8579 -0.1023
11623TIP3    H156360   0.342   5.265   2.020 -1.8735  0.0545 -0.2532
11623TIP3    H256361   0.302   5.185   1.898  1.4760 -1.5703 -0.4144
11624TIP3   OH256362   4.332   4.015  16.417 -0.5883  0.3078  0.1841
11624TIP3    H156363   4.356   3.972  16.334  0.4791  0.7072  0.2705
11624TIP3    H256364   4.245   4.051  16.401 -1.1764 -1.1624 -0.1649
11625TIP3   OH256365   5.022   3.394   3.117 -0.0044 -0.6092 -0.1439
11625TIP3    H156366   4.990   3.427   3.200 -0.5063  0.5144 -0.7633
11625TIP3    H256367   4.945   3.393   3.060  0.5407 -0.3300 -0.9012
11626TIP3   OH256368   0.676   1.733  16.080  0.4642 -0.1690  0.2039
11626TIP3    H156369   0.617   1.748  16.006  0.7794 -3.2950 -0.8277
11626TIP3    H256370   0.762   1.757  16.046  0.4076 -0.1851  0.0463
11627TIP3   OH256371   2.293   5.039  13.706 -0.2873 -0.6983  0.0575
11627TIP3    H156372   2.380   5.000  13.705 -0.7586 -1.8166  0.4310
11627TIP3    H256373   2.302   5.119  13.758  1.1320  0.8286 -2.3634
11628TIP3   OH256374   0.261   0.027   3.253  0.1267  0.3093  0.0547
11628TIP3    H156375   0.294  -0.036   3.189  2.4351  0.4946  0.9552
11628TIP3    H256376   0.288   0.112   3.219 -3.3138  0.9827 -1.3562
11629TIP3   OH256377   2.042   3.085  15.613  0.3264  0.3299 -0.2744
11629TIP3    H156378   2.004   3.039  15.538 -0.8050 -0.0813  0.5286
11629TIP3    H256379   2.013   3.035  15.690 -0.0670  1.7699  0.5556
11630TIP3   OH256380   2.218   2.695   3.973 -0.2573 -0.3838  0.7537
11630TIP3    H156381   2.309   2.718   3.996 -0.9289  1.9148  1.4372
11630TIP3    H256382   2.175   2.682   4.057 -0.4193 -2.2309  0.4096
11631TIP3   OH256383   0.828   2.709  15.885 -0.2027 -0.2016 -0.9118
11631TIP3    H156384   0.766   2.722  15.957 -0.9128  0.6791 -1.6569
11631TIP3    H256385   0.868   2.623  15.902 -0.6192 -0.1585  0.3240
11632TIP3   OH256386   0.121   2.705  12.611  0.1251  0.2830  0.1633
11632TIP3    H156387   0.121   2.800  12.628  0.3902  0.3399 -0.1379
11632TIP3    H256388   0.028   2.681  12.608  0.0697  0.2725  1.6432
11633TIP3   OH256389   5.281   1.551   1.280 -0.4994  0.4255  0.1244
11633TIP3    H156390   5.313   1.571   1.368  1.5086 -0.4831 -0.3600
11633TIP3    H256391   5.359   1.529   1.230 -1.6568  0.4074 -1.7766
11634TIP3   OH256392   0.249   4.525  10.709  0.2943  0.2943  0.0968
11634TIP3    H156393   0.175   4.513  10.768  0.8068  2.9972  1.4088
11634TIP3    H256394   0.309   4.454  10.731 -0.1351  0.4567  1.8755
11635TIP3   OH256395   1.582   5.391  10.811 -0.5964 -0.3780 -0.6106
11635TIP3    H156396   1.597   5.313  10.864 -1.7943 -1.6971 -2.1213
11635TIP3    H256397   1.668   5.414  10.776 -0.3924 -1.6444 -0.9699
11636TIP3   OH256398   5.382   5.315  16.918 -0.2482  0.3150  0.0319
11636TIP3    H156399   5.461   5.300  16.969 -0.6103  0.7986  0.7595
11636TIP3    H256400   5.325   5.241  16.938 -0.4081  0.5276  0.3837
11637TIP3   OH256401   6.641   5.235  14.018 -0.4476  0.1063 -0.2869
11637TIP3    H156402   6.658   5.251  13.925 -0.7686  1.4843 -0.1334
11637TIP3    H256403   6.728   5.231  14.057 -0.3155 -0.2933 -0.6120
11638TIP3   OH256404   1.919   4.214   2.495  0.6334  0.0782 -0.1343
11638TIP3    H156405   1.983   4.191   2.562  0.5194  0.7357  0.2092
11638TIP3    H256406   1.937   4.155   2.422  0.7545 -0.6473  0.4805
11639TIP3   OH256407   0.411   1.042   1.134 -0.2045  0.0371 -0.5020
11639TIP3    H156408   0.330   1.072   1.175  0.2027 -0.3088  0.5747
11639TIP3    H256409   0.384   0.972   1.075 -0.5697 -0.8251  0.6640
11640TIP3   OH256410   0.578   5.836  13.084  0.0701  0.0384 -0.0137
11640TIP3    H156411   0.518   5.898  13.126 -0.3387 -0.1211 -0.3508
11640TIP3    H256412   0.630   5.801  13.156 -0.1257  0.3078  0.2637
11641TIP3   OH256413   3.155   0.022  11.764  0.4266 -0.2097 -0.0568
11641TIP3    H156414   3.227  -0.017  11.814  0.2849 -0.7071 -0.2428
11641TIP3    H256415   3.137   0.105  11.809  1.1465 -0.0579 -0.0374
11642TIP3   OH256416   0.087   0.726  15.148 -0.8528  0.1004  0.3229
11642TIP3    H156417   0.108   0.633  15.162  1.5103  0.4279 -0.4537
11642TIP3    H256418   0.111   0.741  15.057 -0.6459  1.5857  0.6089
11643TIP3   OH256419   2.585   0.729  16.614  0.6043  0.0464 -0.3617
11643TIP3    H156420   2.561   0.643  16.579  0.8605  0.3519 -1.3172
11643TIP3    H256421   2.667   0.714  16.660 -0.3477 -0.6021  1.1965
11644TIP3   OH256422   6.117   5.336  15.595 -0.1213 -0.1377  0.0291
11644TIP3    H156423   6.136   5.314  15.503 -0.9564  1.9193 -0.7019
11644TIP3    H256424   6.028   5.370  15.593 -0.5828 -1.1615  1.8385
11645TIP3   OH256425   1.822   5.035   5.450 -0.2605 -0.4374  0.2004
11645TIP3    H156426   1.816   5.000   5.539  1.1842  1.2558  1.0288
11645TIP3    H256427   1.856   5.124   5.462 -1.8012  0.5273 -1.9226
11646TIP3   OH256428   5.863   0.371  15.156 -0.3737 -0.2256  0.5478
11646TIP3    H156429   5.949   0.360  15.196 -0.1544 -2.7091 -0.4418
11646TIP3    H256430   5.866   0.317  15.077 -2.4021  0.7044 -0.2374
11647TIP3   OH256431   1.076   2.827  12.168 -0.1157 -0.2201 -0.3139
11647TIP3    H156432   1.066   2.906  12.115 -3.1518  0.8418  1.5969
11647TIP3    H256433   0.987   2.793  12.179  0.9674 -3.3390 -0.1515
11648TIP3   OH256434   3.029   3.242   5.458 -0.4511 -0.1727  0.0666
11648TIP3    H156435   2.969   3.316   5.452 -1.1272 -0.6989  0.1783
11648TIP3    H256436   3.009   3.202   5.543 -0.0971 -0.4785  0.0079
11649TIP3   OH256437   3.292   0.082  16.071 -0.0464 -0.3144  0.4712
11649TIP3    H156438   3.312  -0.007  16.041  0.3820  0.0431 -0.3214
11649TIP3    H256439   3.219   0.071  16.132 -0.4333 -1.1430 -0.1291
11650TIP3   OH256440   5.280   0.572  15.344 -0.2761 -0.1585 -0.5110
11650TIP3    H156441   5.355   0.631  15.331 -1.2685  1.3324  0.2897
11650TIP3    H256442   5.277   0.557  15.438 -2.6418  2.1436 -0.1202
11651TIP3   OH256443   3.171   3.895   5.305  0.9141  0.4950  0.0410
11651TIP3    H156444   3.209   3.880   5.391 -0.2842  1.4631  0.7750
11651TIP3    H256445   3.088   3.846   5.307 -0.1242  2.1873  0.2405
11652TIP3   OH256446   0.309   1.206   4.083  0.0257  0.3795  0.5862
11652TIP3    H156447   0.266   1.292   4.085 -0.4584  0.1565  0.0971
11652TIP3    H256448   0.368   1.210   4.009 -0.4877  0.0707  0.1498
11653TIP3   OH256449   4.283   6.470  14.993  0.6520  0.2035 -0.0823
11653TIP3    H156450   4.229   6.393  14.970  2.7290 -1.2538 -0.3429
11653TIP3    H256451   4.255   6.537  14.930 -2.4063  0.3331  1.2074
11654TIP3   OH256452   2.275   0.979   0.119 -0.2185  0.2797  0.1456
11654TIP3    H156453   2.312   0.943   0.038 -0.0371  0.4096  0.1726
11654TIP3    H256454   2.300   0.916   0.187  0.0963  0.4543  0.1920
11655TIP3   OH256455   0.063   5.156   3.317 -0.1150  0.5620 -0.3502
11655TIP3    H156456   0.069   5.063   3.339 -1.3486 -0.0350 -2.2361
11655TIP3    H256457   0.113   5.201   3.385 -1.8629 -1.2078  2.2821
11656TIP3   OH256458   3.420   0.604  10.488  0.1228 -0.4684  0.4938
11656TIP3    H156459   3.413   0.541  10.560  0.6259  0.8183  1.7004
11656TIP3    H256460   3.454   0.552  10.415  1.0177 -1.4960  1.5944
11657TIP3   OH256461   2.881   4.933   3.198 -0.6905 -0.0396 -0.0635
11657TIP3    H156462   2.813   5.000   3.198 -0.1372  0.5489  0.8014
11657TIP3    H256463   2.853   4.870   3.263 -0.7321 -0.1413 -0.1797
11658TIP3   OH256464   5.721   4.220  11.773 -0.2915 -0.1659  0.0596
11658TIP3    H156465   5.698   4.229  11.680 -1.5049  0.1732  0.3681
11658TIP3    H256466   5.792   4.157  11.774  1.2734  1.4643 -1.3065
11659TIP3   OH256467   0.586   2.872   2.797  0.1323  0.1449  0.2951
11659TIP3    H156468   0.514   2.811   2.816 -0.2408  0.3996 -0.2972
11659TIP3    H256469   0.661   2.836   2.846 -0.5973  0.3467  1.6186
11660TIP3   OH256470   6.498   3.334  11.177 -0.3284  0.1353 -0.7591
11660TIP3    H156471   6.415   3.373  11.148  0.6896  1.6555 -1.7444
11660TIP3    H256472   6.550   3.326  11.098  2.0246  3.1565  0.2824
11661TIP3   OH256473   6.551   3.474  15.854  0.0505  0.5778 -0.1388
11661TIP3    H156474   6.559   3.392  15.904 -2.0575  0.3881 -0.0192
11661TIP3    H256475   6.471   3.515  15.888  0.8977  2.5570 -0.4263
11662TIP3   OH256476   2.059   3.599  16.549 -0.4112  0.1142 -0.2790
11662TIP3    H156477   2.060   3.521  16.494  0.2423  0.0567 -0.1890
11662TIP3    H256478   2.028   3.669  16.491 -1.2481 -0.2470 -0.2930
11663TIP3   OH256479   4.212   1.665   6.195  0.3117 -0.2611 -0.0904
11663TIP3    H156480   4.244   1.714   6.270 -0.0584 -1.4629  0.8897
11663TIP3    H256481   4.284   1.667   6.132  1.2252 -0.4961  0.9120
11664TIP3   OH256482   2.367   3.437  15.952  0.7968 -0.5216  0.8591
11664TIP3    H156483   2.458   3.449  15.979  0.8671  0.3208  0.2935
11664TIP3    H256484   2.362   3.346  15.925  1.6903 -0.3903  0.1682
11665TIP3   OH256485   6.593   4.372   3.846 -0.4407 -0.5475  0.5350
11665TIP3    H156486   6.505   4.396   3.875 -0.6688  0.8725 -1.2011
11665TIP3    H256487   6.579   4.326   3.763  0.5013  1.3572 -0.7462
11666TIP3   OH256488   4.999   1.974  12.019  0.2444 -0.7059  0.1746
11666TIP3    H156489   5.050   2.054  12.010 -0.6114 -0.1682 -0.0192
11666TIP3    H256490   5.061   1.909  12.052  1.0253 -0.0538  0.0106
11667TIP3   OH256491   4.968   6.573   1.305  0.6547 -0.1287 -0.1115
11667TIP3    H156492   5.031   6.637   1.336  1.0240 -1.0572  1.0973
11667TIP3    H256493   5.020   6.504   1.265  0.2686  0.1931 -1.2189
11668TIP3   OH256494   2.405   2.746   2.787 -0.0617 -0.2333 -0.0874
11668TIP3    H156495   2.414   2.771   2.695 -0.7394 -1.8178 -0.6263
11668TIP3    H256496   2.495   2.736   2.817  0.1666 -0.7674 -0.9016
11669TIP3   OH256497   4.682   5.105   4.072  0.0187  0.2877 -0.3011
11669TIP3    H156498   4.630   5.097   3.992  0.6624 -0.4908 -0.6550
11669TIP3    H256499   4.745   5.174   4.053 -0.4508  0.7810 -0.1043
11670TIP3   OH256500   5.732   1.125  13.902 -0.1690  0.8503  0.3988
11670TIP3    H156501   5.671   1.093  13.835  0.9008 -0.7951  0.1749
11670TIP3    H256502   5.804   1.062  13.902  0.5355  1.5937  2.1324
11671TIP3   OH256503   2.335   4.020  13.025 -0.5456  0.1553 -0.4273
11671TIP3    H156504   2.312   4.051  13.113 -0.2136 -0.5401 -0.0890
11671TIP3    H256505   2.346   4.100  12.974  0.8082  0.6516  0.5586
11672TIP3   OH256506   6.687   5.404   3.116 -0.1112 -0.2974 -0.7056
11672TIP3    H156507   6.768   5.395   3.067  1.5377  2.2767  1.2782
11672TIP3    H256508   6.629   5.453   3.058  1.2655  1.3821 -0.7425
11673TIP3   OH256509   5.223   0.093  16.652 -0.2844 -0.2628  0.4897
11673TIP3    H156510   5.154   0.115  16.715  0.2060 -0.1309  0.9986
11673TIP3    H256511   5.228  -0.002  16.654 -0.7739 -0.3001  0.0919
11674TIP3   OH256512   2.940   5.659   1.822 -0.2570  0.2813  0.3861
11674TIP3    H156513   2.861   5.619   1.859  0.4969 -0.6779  0.9978
11674TIP3    H256514   3.011   5.604   1.853  0.6996  1.3692  0.1592
11675TIP3   OH256515   3.847   1.066   3.244  0.4122 -0.2335 -0.0920
11675TIP3    H156516   3.887   1.073   3.158  0.1790 -0.6513 -0.2336
11675TIP3    H256517   3.825   0.973   3.254  1.0431 -0.3170  0.6861
11676TIP3   OH256518   5.643   5.727  15.990 -0.4042  0.2649 -0.2837
11676TIP3    H156519   5.610   5.801  15.940 -2.3872 -1.8621 -2.3702
11676TIP3    H256520   5.718   5.695  15.940 -0.6559 -0.1787 -0.3866
11677TIP3   OH256521   3.528   4.104   5.988  0.0657 -0.1111  0.2727
11677TIP3    H156522   3.616   4.133   6.011  0.0469 -0.4256  0.7560
11677TIP3    H256523   3.527   4.010   6.006  0.1002 -0.4159 -1.2211
11678TIP3   OH256524   5.821   4.378  13.161  0.5432  0.2240  0.0093
11678TIP3    H156525   5.865   4.373  13.077 -0.7357  0.9037 -0.7339
11678TIP3    H256526   5.842   4.465  13.195  1.3748 -0.1951  0.5858
11679TIP3   OH256527   2.381   4.608   2.938  0.6036 -0.0927 -0.0928
11679TIP3    H156528   2.442   4.645   3.001  1.4541 -0.6126 -0.5980
11679TIP3    H256529   2.296   4.613   2.982  1.4654 -2.6650  2.1091
11680TIP3   OH256530   2.410   0.334  13.892  0.0041  0.0274  0.2065
11680TIP3    H156531   2.345   0.310  13.826 -1.4878  0.9682  1.2785
11680TIP3    H256532   2.491   0.347  13.842 -0.8983 -0.0121 -1.3358
11681TIP3   OH256533   3.517   0.856   0.417  0.6261 -0.2521  0.3773
11681TIP3    H156534   3.453   0.927   0.424 -0.4101 -0.7410 -2.6785
11681TIP3    H256535   3.558   0.852   0.504 -0.0443  3.2876  1.0084
11682TIP3   OH256536   2.668   4.435   0.646 -0.2064  0.0736  0.3658
11682TIP3    H156537   2.669   4.500   0.575 -0.0742 -0.3872 -0.0584
11682TIP3    H256538   2.661   4.351   0.601  1.4575 -0.3389  0.8150
11683TIP3   OH256539   1.733   3.807  13.982 -0.1919  0.4392  0.2139
11683TIP3    H156540   1.696   3.727  14.020  0.9489 -0.2959 -0.1535
11683TIP3    H256541   1.707   3.877  14.042 -0.7400 -0.2954  0.8499
11684TIP3   OH256542   0.927   0.752   1.101  0.2742 -0.1586 -0.1737
11684TIP3    H156543   0.965   0.685   1.157 -0.7325 -0.5740  0.0257
11684TIP3    H256544   0.888   0.815   1.162  1.8589  1.0394 -0.3268
11685TIP3   OH256545   0.443   3.527   2.304 -0.1740 -0.3461  0.2768
11685TIP3    H156546   0.499   3.449   2.308  1.6768  0.9641  2.2853
11685TIP3    H256547   0.354   3.493   2.319  0.7405 -1.9873  2.6218
11686TIP3   OH256548   1.718   0.656  15.241 -0.0178  0.1453  0.2966
11686TIP3    H156549   1.672   0.676  15.160 -0.8211  2.0058  1.1522
11686TIP3    H256550   1.663   0.590  15.284 -0.5318  0.4639  0.1367
11687TIP3   OH256551   1.742   2.308   4.496  0.5442 -0.8030  0.1653
11687TIP3    H156552   1.714   2.314   4.404  1.2182 -0.8220 -0.0536
11687TIP3    H256553   1.837   2.321   4.492  0.6410 -1.2650  0.8134
11688TIP3   OH256554   2.378   3.339  13.288  0.3727  0.1031  0.6502
11688TIP3    H156555   2.462   3.343  13.243 -0.2589  0.9592 -0.4807
11688TIP3    H256556   2.392   3.388  13.369  0.9911  0.1494  0.5203
11689TIP3   OH256557   4.894   0.271   4.708 -0.1507  0.4351  0.1155
11689TIP3    H156558   4.859   0.360   4.710  1.7517  1.2271  0.9573
11689TIP3    H256559   4.817   0.214   4.711 -1.3561  2.0547  0.9923
11690TIP3   OH256560   2.638   6.414  15.714 -0.4857  0.7053 -0.0011
11690TIP3    H156561   2.676   6.455  15.792 -1.6892 -0.9932  1.5844
11690TIP3    H256562   2.549   6.449  15.710  0.0455  1.9892 -1.6166
11691TIP3   OH256563   3.820   1.097  11.580 -0.4069 -0.2044  0.3806
11691TIP3    H156564   3.733   1.061  11.597 -0.9647  1.9642  2.5527
11691TIP3    H256565   3.861   1.103  11.666  0.9488  1.0937 -0.3070
11692TIP3   OH256566   0.918   1.124  15.957  0.5191 -0.1148  0.1990
11692TIP3    H156567   0.989   1.148  15.897  0.1479 -0.6157 -0.4574
11692TIP3    H256568   0.906   1.030  15.943  0.5419 -0.2730  1.1933
11693TIP3   OH256569   1.509   4.934  13.095  0.3265  0.1625 -0.2226
11693TIP3    H156570   1.503   4.921  13.190  0.4975  0.8734 -0.1109
11693TIP3    H256571   1.559   5.015  13.085  1.8833 -0.8456 -0.9660
11694TIP3   OH256572   4.421   3.811   0.055  0.3602  0.2782 -0.5072
11694TIP3    H156573   4.363   3.872   0.101  0.7480  0.2856 -0.0222
11694TIP3    H256574   4.361   3.750   0.012 -0.0387 -0.7393  1.3574
11695TIP3   OH256575   3.575   2.531  10.842  0.0887  0.3241  0.1530
11695TIP3    H156576   3.566   2.618  10.881 -1.4881 -0.5016  1.7628
11695TIP3    H256577   3.638   2.486  10.898  0.1547  0.1043 -0.0960
11696TIP3   OH256578   6.700   5.605  15.409  0.6308  0.0285  0.1402
11696TIP3    H156579   6.657   5.672  15.356  2.1042  1.2302  0.3853
11696TIP3    H256580   6.681   5.523  15.364 -1.1609  0.5948 -0.2063
11697TIP3   OH256581   2.549   3.054  15.596  0.1050 -0.2155  0.2924
11697TIP3    H156582   2.604   2.984  15.558 -1.0794 -0.1514 -1.6739
11697TIP3    H256583   2.584   3.135  15.558 -1.2555 -0.1683 -0.9439
11698TIP3   OH256584   0.302   4.455   0.113  0.5445  0.1556  0.4769
11698TIP3    H156585   0.238   4.500   0.057 -0.2254 -2.7271 -1.1556
11698TIP3    H256586   0.249   4.420   0.186  0.6002 -0.5060  0.2060
11699TIP3   OH256587   4.453   5.423  16.397  0.4745  0.2298  0.6721
11699TIP3    H156588   4.364   5.400  16.426  0.6225 -0.9629  0.2754
11699TIP3    H256589   4.470   5.509  16.434 -1.4620  1.2014 -0.5316
11700TIP3   OH256590   4.510   0.583  13.805  0.1486 -0.4423  0.4273
11700TIP3    H156591   4.532   0.670  13.841  0.2042 -0.3495  0.1741
11700TIP3    H256592   4.511   0.596  13.710 -1.7705 -0.2448  0.3963
11701TIP3   OH256593   2.826   2.829   1.063 -0.7761 -0.3417 -0.2556
11701TIP3    H156594   2.834   2.815   1.157  0.4279 -0.0078 -0.2914
11701TIP3    H256595   2.907   2.873   1.038 -0.8137 -0.9557 -1.5537
11702TIP3   OH256596   5.587   3.539  16.447  0.4000 -0.4076  0.4534
11702TIP3    H156597   5.637   3.482  16.505  1.2538 -0.3455 -0.1894
11702TIP3    H256598   5.601   3.502  16.359 -0.2869 -0.0970  0.2039
11703TIP3   OH256599   0.543   4.320  11.667 -0.2581  0.0747 -0.0504
11703TIP3    H156600   0.523   4.269  11.746  0.0976 -0.3793 -0.2505
11703TIP3    H256601   0.506   4.406  11.685 -0.7043 -0.1959  0.3708
11704TIP3   OH256602   1.136   6.635   0.292 -0.3008  0.4523  0.0374
11704TIP3    H156603   1.061   6.622   0.350  0.2063 -0.1274  0.5844
11704TIP3    H256604   1.102   6.619   0.205 -1.3483  2.4575  0.0309
11705TIP3   OH256605   5.578   3.139  13.756 -0.1267 -0.3975 -0.2159
11705TIP3    H156606   5.627   3.074  13.706 -0.2899  0.1683 -1.1232
11705TIP3    H256607   5.487   3.107  13.755 -0.5050  0.6064 -2.0041
11706TIP3   OH256608   4.764   5.890  11.177  0.1303 -0.1855 -0.5138
11706TIP3    H156609   4.711   5.914  11.101 -0.9549 -1.1507 -0.0781
11706TIP3    H256610   4.723   5.811  11.212 -1.0646  1.6944  2.7080
11707TIP3   OH256611   3.395   3.276   1.775  0.0249  0.6713  0.2793
11707TIP3    H156612   3.367   3.366   1.791 -0.0870  0.3284  2.1471
11707TIP3    H256613   3.444   3.251   1.853  0.3526 -0.7964 -0.3557
11708TIP3   OH256614   6.664   5.002  11.051  0.1519  0.6284  0.2462
11708TIP3    H156615   6.749   4.986  11.093 -1.1938 -1.0686  2.5617
11708TIP3    H256616   6.601   4.997  11.122 -1.9426  1.7594 -1.4208
11709TIP3   OH256617   5.896   3.784  12.409  0.1717  0.6297 -0.3051
11709TIP3    H156618   5.954   3.790  12.333  1.8235 -2.2066  0.6045
11709TIP3    H256619   5.951   3.750  12.479 -2.3761 -1.4267  0.8590
11710TIP3   OH256620   1.048   0.474  13.805  1.5821 -0.7621 -0.6982
11710TIP3    H156621   0.973   0.425  13.773  0.7442 -0.3628  0.5840
11710TIP3    H256622   1.010   0.549  13.851  2.8144  0.6620 -1.8946
11711TIP3   OH256623   5.087   2.473  12.543 -0.1770 -0.6566 -0.0912
11711TIP3    H156624   5.180   2.450  12.547 -0.1228 -0.4040  0.0885
11711TIP3    H256625   5.087   2.563  12.510 -0.3308 -0.4186  0.5613
11712TIP3   OH256626   3.246   0.799   0.816  0.0076 -0.2694  0.0595
11712TIP3    H156627   3.185   0.802   0.890 -3.1432  4.0088 -2.2496
11712TIP3    H256628   3.201   0.749   0.749  0.8774 -0.4120 -0.4344
11713TIP3   OH256629   3.325   3.052   0.378 -0.5009  0.8420 -0.2120
11713TIP3    H156630   3.399   3.099   0.416  0.9413 -0.9308 -0.6766
11713TIP3    H256631   3.357   3.020   0.293 -1.0564 -1.6716  0.4307
11714TIP3   OH256632   3.520   3.975   4.448  0.6048 -0.1836  0.0433
11714TIP3    H156633   3.565   3.900   4.486  0.4271 -0.8038 -0.9425
11714TIP3    H256634   3.570   4.051   4.478  0.4045 -0.6266  1.5824
11715TIP3   OH256635   2.489   4.316   3.864  0.2701  0.4083  0.1345
11715TIP3    H156636   2.465   4.297   3.774 -0.6576 -0.3831  0.5349
11715TIP3    H256637   2.407   4.314   3.913  0.9002 -0.5692  1.2306
11716TIP3   OH256638   5.266   0.202   3.939 -0.5169 -0.4482 -0.6231
11716TIP3    H156639   5.225   0.243   4.015 -0.0700  0.2007 -0.7296
11716TIP3    H256640   5.203   0.214   3.868 -1.0052 -1.1923 -0.3329
11717TIP3   OH256641   0.785   4.880   1.647  0.1794 -0.0612  0.4059
11717TIP3    H156642   0.710   4.830   1.616  0.0014  0.7451 -0.5146
11717TIP3    H256643   0.787   4.865   1.741 -1.3241  0.1598  0.4850
11718TIP3   OH256644   4.146   6.654   4.888 -0.7111  0.4441 -0.0570
11718TIP3    H156645   4.190   6.722   4.939  2.0056 -0.9996 -0.2663
11718TIP3    H256646   4.107   6.701   4.814 -0.8819  2.0031  0.9848
11719TIP3   OH256647   5.961   5.476  16.086  0.1505 -0.0785  0.4645
11719TIP3    H156648   5.990   5.396  16.044 -1.6867 -0.7452  0.3731
11719TIP3    H256649   6.016   5.545  16.048  2.2454 -1.3300  1.0763
11720TIP3   OH256650   3.586   0.689  14.791 -0.6327 -0.2236 -0.4597
11720TIP3    H156651   3.529   0.718  14.862  1.6327  1.9409  0.6273
11720TIP3    H256652   3.586   0.762  14.729  1.0265 -0.0876 -0.3390
11721TIP3   OH256653   0.833   3.642  12.741 -0.0744  0.5902  0.6064
11721TIP3    H156654   0.800   3.596  12.663 -1.0895 -0.7660  1.7821
11721TIP3    H256655   0.760   3.696  12.770  0.8374  2.3933 -0.2731
11722TIP3   OH256656   5.626   2.535   3.453  0.4450 -0.4134 -0.3057
11722TIP3    H156657   5.566   2.607   3.472  0.9810 -0.1971  0.6001
11722TIP3    H256658   5.581   2.456   3.483 -0.0341 -0.4404 -1.0657
11723TIP3   OH256659   0.784   0.090   1.929  0.0595 -0.4599  0.0595
11723TIP3    H156660   0.721   0.118   1.863  0.1327  0.1645  0.2507
11723TIP3    H256661   0.836   0.023   1.885 -0.0431 -0.2111 -0.4473
11724TIP3   OH256662   0.698   4.785  13.176  0.0063  0.1152 -0.0143
11724TIP3    H156663   0.652   4.775  13.092  2.9166  1.7682 -1.9727
11724TIP3    H256664   0.731   4.874  13.175  2.1195 -0.5600  1.8561
11725TIP3   OH256665   4.762   0.539  11.915  0.0378  0.1552  0.5114
11725TIP3    H156666   4.718   0.583  11.988 -0.1948  1.6498 -0.5025
11725TIP3    H256667   4.702   0.547  11.841 -0.5272 -2.9027  0.5190
11726TIP3   OH256668   2.414   6.823   4.977  0.1935  0.6120 -0.2614
11726TIP3    H156669   2.434   6.736   5.009  0.1432  0.2065 -1.3051
11726TIP3    H256670   2.470   6.835   4.900 -0.9245  0.8739 -1.0594
11727TIP3   OH256671   4.304   0.677   2.646  0.0355  0.7100  0.4822
11727TIP3    H156672   4.277   0.668   2.738  0.6250  2.4579  0.8603
11727TIP3    H256673   4.376   0.614   2.636 -0.9193 -0.4892  0.7998
11728TIP3   OH256674   0.565   1.510   0.317 -0.2918 -0.1733  0.2493
11728TIP3    H156675   0.614   1.429   0.336  1.8345  0.6307 -1.3214
11728TIP3    H256676   0.555   1.552   0.402 -0.5851 -1.6225  0.9656
11729TIP3   OH256677   5.070   2.676  11.139  0.4301  0.1017 -1.0736
11729TIP3    H156678   5.120   2.604  11.177  0.1575  0.5212  0.1202
11729TIP3    H256679   5.101   2.682  11.049  3.2058  0.9131 -0.1576
11730TIP3   OH256680   5.152   4.416  16.603  0.3786  0.2676 -0.1023
11730TIP3    H156681   5.197   4.490  16.644  0.7446  0.8244 -1.4643
11730TIP3    H256682   5.219   4.348  16.595 -0.0545 -0.4295  1.5283
11731TIP3   OH256683   6.557   4.468   5.425 -0.1047 -0.0318  0.2697
11731TIP3    H156684   6.469   4.467   5.387  0.2045  1.0548 -0.5115
11731TIP3    H256685   6.612   4.505   5.356  0.8904 -0.2634  0.9262
11732TIP3   OH256686   1.009   0.151  13.414  0.6962 -0.0830  0.1049
11732TIP3    H156687   0.954   0.218  13.373  0.3119 -1.7125 -2.2490
11732TIP3    H256688   0.979   0.068  13.375  1.8656 -1.5211  2.0876
11733TIP3   OH256689   4.601   2.161   3.716  0.0119  0.8324  0.1232
11733TIP3    H156690   4.597   2.209   3.634 -1.1280  0.8639  0.1807
11733TIP3    H256691   4.654   2.216   3.774 -0.5658  1.5990 -0.0747
11734TIP3   OH256692   3.448   2.950   3.253 -0.1422  0.3714  0.3088
11734TIP3    H156693   3.522   2.908   3.297 -0.5131 -1.2849 -0.5911
11734TIP3    H256694   3.451   2.917   3.163 -1.2798  1.2141 -0.0699
11735TIP3   OH256695   4.213   4.373  10.634 -0.5328 -0.3040  0.2508
11735TIP3    H156696   4.196   4.466  10.622  0.1105 -0.0181  1.3465
11735TIP3    H256697   4.299   4.369  10.676 -1.0838 -1.3128  1.3799
11736TIP3   OH256698   1.100   4.225   5.401  0.5106 -0.4382  0.0332
11736TIP3    H156699   1.012   4.260   5.386  1.1852  1.0753 -0.6124
11736TIP3    H256700   1.139   4.221   5.314  0.8998 -1.6718  0.2412
11737TIP3   OH256701   6.425   4.088  13.898 -0.6442  0.6216  0.7108
11737TIP3    H156702   6.466   4.174  13.884 -1.2077  1.3525  3.0124
11737TIP3    H256703   6.401   4.058  13.811 -1.8740  3.5335 -0.0857
11738TIP3   OH256704   4.269   6.782   0.929  0.1614 -0.0794  0.0377
11738TIP3    H156705   4.229   6.766   1.014  1.0190 -1.3042  0.2334
11738TIP3    H256706   4.323   6.860   0.941 -0.3774  0.2518  0.3662
11739TIP3   OH256707   3.655   2.015   3.851  0.2440  0.0636  0.1083
11739TIP3    H156708   3.639   2.106   3.824 -0.6220 -0.0591  0.2066
11739TIP3    H256709   3.744   2.016   3.886 -0.0559  1.0441  0.8646
11740TIP3   OH256710   5.911   3.952   4.357 -0.6714  0.0416 -0.4985
11740TIP3    H156711   5.948   3.961   4.269 -0.0386  0.6366 -0.1931
11740TIP3    H256712   5.846   4.022   4.363 -2.1789 -1.2632 -1.1776
11741TIP3   OH256713   0.716   6.430  12.718  0.0778  0.0728 -0.0369
11741TIP3    H156714   0.754   6.426  12.806  0.3626 -0.1383 -0.1668
11741TIP3    H256715   0.691   6.340  12.699 -1.8239  0.4257  0.6135
11742TIP3   OH256716   4.710   5.571   1.580 -0.0286 -0.1549  0.6801
11742TIP3    H156717   4.621   5.601   1.599 -0.0363  0.4472 -0.2300
11742TIP3    H256718   4.701   5.476   1.570 -0.3629 -0.2394  1.6542
11743TIP3   OH256719   4.207   0.498   5.275  0.5151 -0.2284  0.6765
11743TIP3    H156720   4.232   0.499   5.183 -0.2317 -2.5529  0.3727
11743TIP3    H256721   4.193   0.590   5.297 -0.8075  0.3179 -1.9784
11744TIP3   OH256722   5.839   0.564  14.445 -0.0145  0.2028 -0.1936
11744TIP3    H156723   5.767   0.626  14.431  0.8224  1.1770 -0.3039
11744TIP3    H256724   5.896   0.576  14.369  0.8452  0.2811  0.4463
11745TIP3   OH256725   1.687   5.287   3.598 -0.0468 -1.0966 -0.7073
11745TIP3    H156726   1.671   5.224   3.527 -0.3103 -2.0225  0.1554
11745TIP3    H256727   1.612   5.276   3.656 -0.7502  0.9307 -1.1785
11746TIP3   OH256728   5.493   2.820   3.271  0.2929 -0.0137  0.1193
11746TIP3    H156729   5.503   2.739   3.221 -1.9149 -0.6786  0.6599
11746TIP3    H256730   5.557   2.811   3.342  0.2079 -1.2206  0.0721
11747TIP3   OH256731   2.103   2.810   4.861  0.5916  0.0492  0.2079
11747TIP3    H156732   2.191   2.772   4.858 -0.1059 -1.5872 -1.4755
11747TIP3    H256733   2.115   2.901   4.832  1.3872 -1.0231 -3.3386
11748TIP3   OH256734   1.994   2.222   3.111 -0.0335  0.0739  0.0046
11748TIP3    H156735   1.996   2.267   3.027 -0.5051  0.8063  0.3767
11748TIP3    H256736   2.062   2.156   3.104  2.0428  2.0602  0.0972
11749TIP3   OH256737   5.444   2.850   5.379 -0.4764  0.2037  0.2713
11749TIP3    H156738   5.401   2.874   5.461 -1.2839 -0.6089  0.1065
11749TIP3    H256739   5.421   2.758   5.367  0.6970 -0.0337 -0.2175
11750TIP3   OH256740   4.229   1.889   0.356 -0.4048 -0.2090  0.1972
11750TIP3    H156741   4.135   1.882   0.371 -0.0763 -0.9495  2.1937
11750TIP3    H256742   4.237   1.910   0.263 -2.5209 -0.4316 -0.0801
11751TIP3   OH256743   4.966   4.209   0.753 -0.5555  0.4185 -0.4005
11751TIP3    H156744   4.980   4.276   0.686  0.4015 -0.3898 -1.0279
11751TIP3    H256745   4.877   4.178   0.737 -0.3285  0.2217 -1.3080
11752TIP3   OH256746   1.431   0.926   4.355 -0.5023  0.0531 -0.0349
11752TIP3    H156747   1.483   0.916   4.276  1.9373  1.0371  1.3579
11752TIP3    H256748   1.363   0.859   4.347  2.1666 -2.7789 -1.0396
11753TIP3   OH256749   1.762   4.418  15.756  0.0702 -0.0385  0.0639
11753TIP3    H156750   1.739   4.376  15.673  0.2490  0.4367 -0.2287
11753TIP3    H256751   1.679   4.422  15.804  0.3834 -2.6114  0.9852
11754TIP3   OH256752   3.585   1.428  12.743 -0.0276  0.2849 -0.7271
11754TIP3    H156753   3.555   1.506  12.696  1.3517  1.6220  0.4928
11754TIP3    H256754   3.522   1.416  12.814 -0.6082 -0.1312 -1.3001
11755TIP3   OH256755   2.238   6.482  16.615  0.3194  0.2637  0.2502
11755TIP3    H156756   2.295   6.502  16.540 -0.7058 -0.0653 -0.6312
11755TIP3    H256757   2.239   6.387  16.622  0.4360  0.2933  0.6907
11756TIP3   OH256758   1.051   4.716   4.407 -0.4478  0.1112  0.7336
11756TIP3    H156759   1.043   4.789   4.346  0.1915  0.9965  1.6921
11756TIP3    H256760   1.001   4.645   4.366 -2.8441  1.6724  0.7473
11757TIP3   OH256761   5.768   5.782   0.644 -0.0427 -0.5061 -0.3370
11757TIP3    H156762   5.679   5.798   0.614 -0.7396  0.1719  1.9293
11757TIP3    H256763   5.790   5.859   0.697  1.0149 -1.6864  1.0249
11758TIP3   OH256764   4.325   3.433  15.727 -0.0987  0.0673 -0.5236
11758TIP3    H156765   4.266   3.416  15.800  0.6142  2.8230  0.8236
11758TIP3    H256766   4.271   3.482  15.664  0.4062  1.6841  0.2509
11759TIP3   OH256767   2.181   6.753  16.182 -0.7224 -0.4219  0.0512
11759TIP3    H156768   2.112   6.691  16.204 -1.7301  0.9862  0.9781
11759TIP3    H256769   2.217   6.719  16.100 -2.2533 -1.3946 -0.2715
11760TIP3   OH256770   4.609   0.555  10.857  0.1543  0.7730 -0.4268
11760TIP3    H156771   4.651   0.641  10.847 -0.8463  1.3284  0.0212
11760TIP3    H256772   4.634   0.507  10.778  1.1173  1.2978 -0.4629
11761TIP3   OH256773   6.617   4.629  13.078 -0.0810 -0.0741 -0.0437
11761TIP3    H156774   6.549   4.664  13.020 -0.0446 -0.0906 -0.0957
11761TIP3    H256775   6.569   4.582  13.146 -0.2858  2.2259  1.4980
11762TIP3   OH256776   3.878   1.451   1.576 -0.0671  0.5240  0.2817
11762TIP3    H156777   3.914   1.503   1.504 -0.3751 -0.0366 -0.2966
11762TIP3    H256778   3.788   1.433   1.550  0.3569 -1.2461 -0.0981
11763TIP3   OH256779   1.402   3.508  16.851 -0.0619  0.1375 -0.0226
11763TIP3    H156780   1.428   3.428  16.805 -1.2994  0.5282 -1.4763
11763TIP3    H256781   1.415   3.578  16.787 -2.1417  0.6531  0.0478
11764TIP3   OH256782   3.974   4.954  13.361 -0.5367  0.2506  0.2809
11764TIP3    H156783   3.968   4.869  13.404  0.7109  0.2490  0.4967
11764TIP3    H256784   3.906   4.952  13.294  0.7194 -1.7095 -1.0460
11765TIP3   OH256785   3.417   1.608  15.757 -0.0153  0.5259  0.1251
11765TIP3    H156786   3.448   1.526  15.795 -1.5061  0.1313  0.5421
11765TIP3    H256787   3.461   1.613  15.672  1.1357 -0.0113  0.6631
11766TIP3   OH256788   4.885   3.018  10.300  0.7541 -0.0582 -0.0837
11766TIP3    H156789   4.960   2.959  10.302  0.4612 -0.4458 -0.4629
11766TIP3    H256790   4.901   3.079  10.373  1.8296  0.3619 -0.6519
11767TIP3   OH256791   2.880   6.034  11.895  0.1372  0.4366  0.4871
11767TIP3    H156792   2.927   6.105  11.850  0.2705  0.2976  0.4057
11767TIP3    H256793   2.836   5.987  11.825 -1.0641  1.2470  0.6714
11768TIP3   OH256794   5.214   5.836   1.581  0.4031 -0.1141 -0.1759
11768TIP3    H156795   5.240   5.878   1.662  3.4057  2.2400 -2.1205
11768TIP3    H256796   5.120   5.822   1.590  0.3649  1.3232  3.0911
11769TIP3   OH256797   6.133   4.942   4.995 -0.3206  0.1810  0.3192
11769TIP3    H156798   6.084   4.865   4.966 -1.5325  0.4642  1.4966
11769TIP3    H256799   6.086   5.016   4.956  2.0647  0.3472 -2.5882
11770TIP3   OH256800   2.388   1.180  10.464  0.2636 -0.7407  0.4635
11770TIP3    H156801   2.447   1.199  10.537 -0.1101 -0.5313  0.7165
11770TIP3    H256802   2.405   1.088  10.442  0.4788 -0.7633  0.7245
11771TIP3   OH256803   5.758   2.573   0.137  0.1289 -0.0005 -0.5037
11771TIP3    H156804   5.829   2.613   0.087 -0.4489  1.9453  0.1411
11771TIP3    H256805   5.714   2.646   0.179 -1.3145 -1.3037  0.3696
11772TIP3   OH256806   1.169   5.985   3.508 -0.2604  0.8437  0.1057
11772TIP3    H156807   1.149   6.069   3.550  0.8889  1.0381  0.3075
11772TIP3    H256808   1.130   5.992   3.421 -1.6672  0.8921  0.7116
11773TIP3   OH256809   0.118   0.082   6.423 -0.1919  0.1797 -0.2691
11773TIP3    H156810   0.158   0.027   6.356 -1.3065  0.5110 -1.2279
11773TIP3    H256811   0.152   0.170   6.406 -0.1828  0.1975 -0.1597
11774TIP3   OH256812   4.520   0.047  11.217  0.0457 -0.2439 -0.4122
11774TIP3    H156813   4.478  -0.001  11.288  1.4298  0.4927  0.9859
11774TIP3    H256814   4.477   0.132  11.217  0.8658  0.1903  0.4102
11775TIP3   OH256815   1.548   2.072  13.391  0.0324 -0.1753  0.4609
11775TIP3    H156816   1.596   2.151  13.367  0.4515  0.0639  1.9997
11775TIP3    H256817   1.560   2.014  13.316  1.5988  0.3910  0.2332
11776TIP3   OH256818   0.294   1.157   3.559 -0.9409  0.1343  0.1613
11776TIP3    H156819   0.267   1.089   3.619  0.4649  0.5643  1.3397
11776TIP3    H256820   0.342   1.111   3.490 -2.7012 -0.3778 -0.7786
11777TIP3   OH256821   4.224   3.615   3.481 -0.0891 -0.0442 -0.1703
11777TIP3    H156822   4.260   3.668   3.553  0.7554  0.4541 -0.9281
11777TIP3    H256823   4.230   3.673   3.405  0.9591 -1.2626 -1.0440
11778TIP3   OH256824   4.800   4.830   3.777  0.3695  0.0444 -0.2256
11778TIP3    H156825   4.736   4.815   3.846 -2.8264  0.2559 -2.9434
11778TIP3    H256826   4.848   4.746   3.770 -0.7266 -0.6906  0.7787
11779TIP3   OH256827   2.749   5.932   6.529 -1.0061  0.5438  0.2431
11779TIP3    H156828   2.806   5.867   6.570 -2.5987 -1.3078 -0.3406
11779TIP3    H256829   2.669   5.930   6.581 -2.4817 -0.7347 -1.9266
11780TIP3   OH256830   4.176   0.543  12.420 -0.0646 -0.7112  0.5018
11780TIP3    H156831   4.173   0.468  12.479 -0.2607  0.6170  2.2399
11780TIP3    H256832   4.087   0.548  12.384 -0.8064  0.1182  2.3116
11781TIP3   OH256833   4.754   6.260   2.371  0.3486  0.3999  0.3246
11781TIP3    H156834   4.668   6.232   2.340  1.1087 -0.3790 -1.1957
11781TIP3    H256835   4.758   6.229   2.462 -0.3120 -1.1557 -0.1366
11782TIP3   OH256836   5.905   4.805   1.221 -0.3591 -0.0158 -0.2732
11782TIP3    H156837   5.873   4.784   1.309  0.0813 -0.4779 -0.2195
11782TIP3    H256838   5.826   4.825   1.171 -0.7292 -0.9358 -0.0814
11783TIP3   OH256839   4.951   0.685   0.218  0.0742 -0.4351 -0.1265
11783TIP3    H156840   4.862   0.652   0.233 -0.4464  1.4217  1.3092
11783TIP3    H256841   4.961   0.683   0.122 -1.5055 -0.6928 -0.3197
11784TIP3   OH256842   3.865   5.397  14.161  0.6299 -0.3805  0.9133
11784TIP3    H156843   3.957   5.421  14.153  0.1785  0.8032 -1.4470
11784TIP3    H256844   3.828   5.461  14.222  0.4765  2.1486 -1.6291
11785TIP3   OH256845   4.038   4.949   0.448  0.5392 -0.2425 -0.3214
11785TIP3    H156846   3.999   4.932   0.533  2.6950 -0.6743  0.6513
11785TIP3    H256847   3.978   5.009   0.405 -0.6153 -0.0492  1.4823
11786TIP3   OH256848   1.131   6.032  12.185  0.0746 -0.2754  0.6101
11786TIP3    H156849   1.053   6.027  12.239 -0.3542  0.7371  0.1275
11786TIP3    H256850   1.121   6.115  12.137  0.8532 -0.7227 -0.3606
11787TIP3   OH256851   5.485   0.184  12.401  0.3118 -0.0801 -0.3083
11787TIP3    H156852   5.468   0.092  12.420  1.0099 -0.6193 -2.0973
11787TIP3    H256853   5.496   0.225  12.487 -1.5793 -1.3264  0.5977
11788TIP3   OH256854   0.765   4.608  12.102  0.2419  0.1262  0.4500
11788TIP3    H156855   0.823   4.563  12.041 -0.2542  0.9233 -0.6377
11788TIP3    H256856   0.686   4.626  12.051  0.5065  2.4058  0.7671
11789TIP3   OH256857   5.813   4.544   3.716 -0.2892  0.1434  0.1633
11789TIP3    H156858   5.873   4.581   3.781 -1.9233 -0.4645  2.1385
11789TIP3    H256859   5.869   4.500   3.653  1.4128  1.2622  0.8211
11790TIP3   OH256860   3.795   2.808   4.142  0.1015  0.5233 -0.3535
11790TIP3    H156861   3.772   2.734   4.198 -0.8773  1.7457  0.9196
11790TIP3    H256862   3.843   2.868   4.199  3.2087 -0.1775 -1.9943
11791TIP3   OH256863   3.034   4.119   5.155 -0.1951 -0.1828  0.1105
11791TIP3    H156864   3.040   4.168   5.237 -1.8680 -1.5708  1.1411
11791TIP3    H256865   3.081   4.038   5.172  1.9911  0.6735 -1.3653
11792TIP3   OH256866   4.585   1.417  13.758  0.0947 -0.1076  0.4108
11792TIP3    H156867   4.521   1.389  13.823  0.6710 -0.0272  1.0216
11792TIP3    H256868   4.556   1.375  13.677  1.1878 -3.0014  1.3779
11793TIP3   OH256869   1.109   2.311   1.307 -0.7071 -0.1900 -0.0929
11793TIP3    H156870   1.137   2.401   1.323  0.2573 -0.7908  1.8737
11793TIP3    H256871   1.015   2.311   1.326 -1.0898  0.7362 -1.7900
11794TIP3   OH256872   3.625   5.273  12.126 -0.2860 -0.2821  0.4500
11794TIP3    H156873   3.666   5.187  12.120  0.4855 -0.0241  1.6196
11794TIP3    H256874   3.539   5.256  12.164 -0.7714 -0.6877 -0.7856
11795TIP3   OH256875   5.908   2.493   2.316  0.7607 -0.3500 -0.3954
11795TIP3    H156876   5.950   2.407   2.310  1.0996 -0.2614  0.4876
11795TIP3    H256877   5.817   2.474   2.336  1.0047 -0.5157  0.6568
11796TIP3   OH256878   1.980   5.260   1.924  0.1961  0.1807 -0.0930
11796TIP3    H156879   2.050   5.311   1.883 -0.2151 -0.1252 -1.2109
11796TIP3    H256880   2.016   5.172   1.934  0.5225  0.3994  0.8422
11797TIP3   OH256881   5.852   0.144  12.832 -0.5910 -0.1324  0.1182
11797TIP3    H156882   5.927   0.166  12.887 -0.7401 -1.2151  0.7758
11797TIP3    H256883   5.784   0.206  12.857 -0.6857 -0.6570  1.2314
11798TIP3   OH256884   1.615   4.329  16.783 -0.0081  0.1599  0.1052
11798TIP3    H156885   1.547   4.382  16.740  2.3175  3.8454  0.5532
11798TIP3    H256886   1.627   4.371  16.869  1.8917 -1.2575  0.5891
11799TIP3   OH256887   6.057   0.928   3.865  0.3077 -0.2167  0.6269
11799TIP3    H156888   6.036   0.998   3.804  0.4562  1.3693  2.3194
11799TIP3    H256889   6.066   0.971   3.950  2.0199 -2.0575  1.4686
11800TIP3   OH256890   3.505   1.280   0.582 -0.2864 -0.6244 -0.5001
11800TIP3    H156891   3.579   1.313   0.531 -0.5725 -0.4884 -0.8328
11800TIP3    H256892   3.442   1.352   0.581  0.0774 -0.2693  0.8289
11801TIP3   OH256893   5.139   6.014  11.645 -0.2628  0.1309  0.2136
11801TIP3    H156894   5.128   5.922  11.669  2.4686 -1.1720 -2.8175
11801TIP3    H256895   5.095   6.023  11.561 -1.7917  2.1108  1.1259
11802TIP3   OH256896   2.899   4.680  16.627 -0.0150  0.6396 -0.1237
11802TIP3    H156897   2.804   4.673  16.625 -0.0862  1.0720  0.8335
11802TIP3    H256898   2.918   4.728  16.709  0.9820  1.2291 -0.6725
11803TIP3   OH256899   4.222   6.137   4.933 -0.0982 -0.0257 -0.1966
11803TIP3    H156900   4.298   6.100   4.889 -1.2064  2.1597 -4.4418
11803TIP3    H256901   4.148   6.087   4.900 -0.8607  0.2238  1.0558
11804TIP3   OH256902   3.052   4.436  13.681  0.4021  0.4425  0.3347
11804TIP3    H156903   3.096   4.371  13.735  1.9927  0.0709 -1.3022
11804TIP3    H256904   3.004   4.384  13.616 -1.7446  0.8663  1.4681
11805TIP3   OH256905   2.906   2.559  14.014 -0.3105  0.6993  0.4228
11805TIP3    H156906   2.945   2.645  14.000  1.5000 -0.2336 -0.5055
11805TIP3    H256907   2.971   2.510  14.064 -0.0677 -1.0108 -1.4483
11806TIP3   OH256908   5.277   6.596  11.225  0.7176  0.1251  0.2778
11806TIP3    H156909   5.204   6.541  11.194  1.1135 -0.3622  0.1963
11806TIP3    H256910   5.290   6.661  11.156 -0.8605  1.4124  1.1095
11807TIP3   OH256911   0.553   2.460   5.860  0.0083  0.2529 -0.3836
11807TIP3    H156912   0.546   2.553   5.838 -1.0455  0.3070  0.1445
11807TIP3    H256913   0.647   2.441   5.851  0.0245  0.9163 -2.2237
11808TIP3   OH256914   3.015   1.626   3.457  0.2565  0.3964 -0.5732
11808TIP3    H156915   3.051   1.582   3.534 -0.6731  0.7756  0.0974
11808TIP3    H256916   3.052   1.578   3.383  1.6750  0.4239  0.0823
11809TIP3   OH256917   2.333   3.930   4.842  0.0251  0.2078 -0.0173
11809TIP3    H156918   2.329   3.848   4.793 -0.0656  0.1612  0.0674
11809TIP3    H256919   2.334   3.999   4.775 -1.1160  0.1821 -0.0705
11810TIP3   OH256920   1.373   4.938   4.668  0.3874  0.5560 -0.0308
11810TIP3    H156921   1.344   4.850   4.643 -1.1450  0.8228  0.6610
11810TIP3    H256922   1.331   4.953   4.753  1.2720  1.6466  0.2307
11811TIP3   OH256923   3.041   0.510  14.064 -0.1026  0.2567 -0.2117
11811TIP3    H156924   3.086   0.569  14.004 -0.8887  0.1594 -0.9290
11811TIP3    H256925   3.054   0.423  14.026  0.2593  0.0724  0.3271
11812TIP3   OH256926   5.910   0.400  16.387  0.4359 -0.3227 -0.1648
11812TIP3    H156927   6.002   0.374  16.385  0.7911  0.9047 -1.0067
11812TIP3    H256928   5.862   0.317  16.387  1.5191 -1.0182  1.5325
11813TIP3   OH256929   1.111   3.574  15.566  0.0227 -0.3097 -0.2507
11813TIP3    H156930   1.051   3.579  15.641  1.4130 -1.1855  0.9773
11813TIP3    H256931   1.100   3.486  15.532 -0.0482 -0.1642 -0.6133
11814TIP3   OH256932   0.756   1.136   0.653 -0.5467  0.2629  0.0205
11814TIP3    H156933   0.847   1.139   0.622 -0.6958  1.1466 -0.3402
11814TIP3    H256934   0.756   1.067   0.720  0.0890 -0.7050 -0.9374
11815TIP3   OH256935   2.928   3.182   3.512  0.0329  0.4132  0.1688
11815TIP3    H156936   2.875   3.142   3.443 -0.2007  1.5179 -0.3093
11815TIP3    H256937   2.896   3.272   3.518  0.6169  0.5683  1.1475
11816TIP3   OH256938   1.768   0.860  10.810  0.2677  0.1239 -0.2232
11816TIP3    H156939   1.802   0.825  10.728 -0.9328 -0.1478 -0.6341
11816TIP3    H256940   1.679   0.824  10.815  0.6382 -0.6199  1.6606
11817TIP3   OH256941   2.889   3.476   1.282  0.2390 -0.1009 -0.4151
11817TIP3    H156942   2.958   3.460   1.347  0.8985  0.6716 -0.9191
11817TIP3    H256943   2.848   3.558   1.309 -0.3562 -0.4488 -0.2379
11818TIP3   OH256944   0.069   5.520  10.830 -0.1627 -0.3897 -0.7396
11818TIP3    H156945   0.044   5.428  10.828  0.9103 -0.6990 -1.2163
11818TIP3    H256946   0.147   5.525  10.774  2.3887 -0.0092  2.5069
11819TIP3   OH256947   5.306   1.346   1.671 -0.5332  0.3992  0.1269
11819TIP3    H156948   5.356   1.287   1.614 -0.0687  1.5909 -0.7443
11819TIP3    H256949   5.251   1.396   1.611 -2.6768 -0.7357  1.0474
11820TIP3   OH256950   3.902   1.848  13.933 -0.2298 -0.6286  0.1948
11820TIP3    H156951   3.951   1.834  13.851  0.2524  0.7431  0.2155
11820TIP3    H256952   3.827   1.901  13.906  2.6656  4.6806  1.2268
11821TIP3   OH256953   4.997   6.294  15.681  0.6899  0.3673 -0.1515
11821TIP3    H156954   4.925   6.286  15.743  1.7002  2.5570  1.4152
11821TIP3    H256955   5.067   6.241  15.720  1.7417  2.7253  1.3428
11822TIP3   OH256956   6.331   2.318   6.638 -0.2764  0.2849  0.2780
11822TIP3    H156957   6.425   2.323   6.624 -0.2253  0.6034  0.7505
11822TIP3    H256958   6.293   2.365   6.563 -0.0658  0.1742  0.1001
11823TIP3   OH256959   2.862   5.459   4.061 -0.1869  0.4053  0.1739
11823TIP3    H156960   2.888   5.367   4.054 -0.2606  0.4476 -0.8761
11823TIP3    H256961   2.921   5.505   4.001 -0.8970  0.8794 -0.1759
11824TIP3   OH256962   1.189   5.024   5.166 -0.4054  0.2448 -0.3413
11824TIP3    H156963   1.104   4.996   5.199 -0.5580  1.2687  0.1728
11824TIP3    H256964   1.234   5.059   5.242  1.6914 -2.9275  0.0582
11825TIP3   OH256965   4.221   2.347   5.111  0.6094 -0.1145  0.8067
11825TIP3    H156966   4.165   2.400   5.168 -1.5744 -0.7636 -0.5939
11825TIP3    H256967   4.259   2.410   5.050 -0.1570  0.1412  0.5750
11826TIP3   OH256968   6.607   1.734  13.693 -0.3666 -0.5594 -0.4534
11826TIP3    H156969   6.669   1.781  13.637 -1.2523  0.1250 -0.9008
11826TIP3    H256970   6.627   1.764  13.781  0.0723 -0.5069 -0.5680
11827TIP3   OH256971   2.229   5.987   6.625 -0.2081 -0.5330  0.5461
11827TIP3    H156972   2.224   5.904   6.672 -1.2174 -0.9322 -0.2303
11827TIP3    H256973   2.155   5.985   6.564  1.0742 -0.0879 -1.1285
11828TIP3   OH256974   5.354   6.134   1.281  0.3067 -0.1930 -0.2924
11828TIP3    H156975   5.324   6.171   1.364 -0.8784  0.2020 -0.8798
11828TIP3    H256976   5.422   6.194   1.251 -1.0183  1.0987 -0.8254
11829TIP3   OH256977   5.072   2.534  14.595 -0.2168  0.0117 -1.2618
11829TIP3    H156978   5.104   2.596  14.661  3.8089 -1.4411 -1.5255
11829TIP3    H256979   5.036   2.461  14.645 -0.3858  0.4241 -0.7844
11830TIP3   OH256980   5.734   5.191   3.158  0.3486 -0.1897  0.2454
11830TIP3    H156981   5.822   5.215   3.126  0.5485 -2.0200 -0.6992
11830TIP3    H256982   5.679   5.265   3.134  1.3785  0.3931 -0.3961
11831TIP3   OH256983   6.610   1.229   0.584  0.0980 -0.7187  0.3963
11831TIP3    H156984   6.696   1.265   0.607  0.2494  0.8749 -2.2638
11831TIP3    H256985   6.629   1.166   0.514 -1.0332  2.0715 -2.6444
11832TIP3   OH256986   2.780   5.830  10.392 -0.7849  0.5550 -0.3631
11832TIP3    H156987   2.855   5.785  10.352 -1.8832 -1.2690 -0.5008
11832TIP3    H256988   2.817   5.907  10.434  1.3706 -0.9803  0.7065
11833TIP3   OH256989   2.636   4.873   1.574  0.2311 -0.0349 -0.0056
11833TIP3    H156990   2.589   4.857   1.492  1.1844  2.0837 -1.0514
11833TIP3    H256991   2.569   4.862   1.642  0.0609 -4.8172 -0.6548
11834TIP3   OH256992   6.020   1.920   4.648  0.1951 -0.3268 -0.3549
11834TIP3    H156993   5.929   1.948   4.656  0.5817  0.9819 -0.4029
11834TIP3    H256994   6.026   1.886   4.558  0.1495  1.1078 -0.9150
11835TIP3   OH256995   2.346   1.368   6.567 -0.4226  0.2113 -0.3496
11835TIP3    H156996   2.255   1.357   6.595 -0.8237 -0.4432 -1.8337
11835TIP3    H256997   2.368   1.457   6.592 -1.0862  0.0164  1.0470
11836TIP3   OH256998   5.475   6.210   3.381  0.6199  0.6336  0.5767
11836TIP3    H156999   5.495   6.303   3.395  3.4392  0.1124  0.4543
11836TIP3    H257000   5.525   6.165   3.449  1.5258 -0.9396 -1.0648
11837TIP3   OH257001   1.990   5.234   1.193  0.3240  0.0820  0.0257
11837TIP3    H157002   2.053   5.304   1.209 -0.8072  0.8883  1.1633
11837TIP3    H257003   1.908   5.279   1.172  0.1410 -0.9407 -1.6719
11838TIP3   OH257004   5.139   5.757   4.134 -0.3580 -0.1331  0.1248
11838TIP3    H157005   5.125   5.763   4.039 -0.6996  1.1685  0.2287
11838TIP3    H257006   5.234   5.757   4.144 -0.3165 -0.6551 -0.2311
11839TIP3   OH257007   4.648   0.389   6.019 -0.0844  0.7507 -0.2237
11839TIP3    H157008   4.579   0.330   5.988 -1.4055  1.4238  1.3263
11839TIP3    H257009   4.655   0.372   6.112  1.0344  1.5359 -0.1448
11840TIP3   OH257010   1.708   2.316  16.668 -1.2926 -0.2899 -0.1004
11840TIP3    H157011   1.640   2.304  16.602  0.0582 -0.1350 -1.5886
11840TIP3    H257012   1.773   2.371  16.625  1.3306 -3.0318  0.0719
11841TIP3   OH257013   2.604   1.445   5.900 -0.4240 -0.1877 -0.6020
11841TIP3    H157014   2.617   1.460   5.994  2.7987  0.3640 -1.0134
11841TIP3    H257015   2.553   1.520   5.870 -1.7564 -0.5194  0.6869
11842TIP3   OH257016   3.924   4.685  13.179 -0.9729 -0.1323 -0.4425
11842TIP3    H157017   3.865   4.637  13.237 -0.4495  1.3071  1.3643
11842TIP3    H257018   3.866   4.721  13.111 -1.9666  0.0184  0.4496
11843TIP3   OH257019   2.159   6.305  15.208 -0.1775 -0.5118  0.2756
11843TIP3    H157020   2.128   6.369  15.271  1.9262  0.3374  0.5441
11843TIP3    H257021   2.205   6.356  15.142  0.9947 -1.6529  0.1512
11844TIP3   OH257022   1.315   5.483  13.827 -0.3363 -0.3449  0.2059
11844TIP3    H157023   1.224   5.512  13.826 -0.6752 -1.3743  0.5314
11844TIP3    H257024   1.350   5.509  13.742 -1.0438 -0.2940 -0.0731
11845TIP3   OH257025   6.258   6.330  11.239 -0.3093 -0.0068  0.1041
11845TIP3    H157026   6.303   6.394  11.294  1.3605 -1.8344  0.9962
11845TIP3    H257027   6.321   6.310  11.169 -0.7402 -0.7746 -0.0804
11846TIP3   OH257028   0.187   6.425  16.314 -0.0397  0.1982  0.7146
11846TIP3    H157029   0.156   6.339  16.285 -0.6333  0.6447 -0.0045
11846TIP3    H257030   0.205   6.472  16.233 -0.8482  1.1560  1.0767
11847TIP3   OH257031   3.763   1.864  12.989  0.3708  0.1705 -0.0729
11847TIP3    H157032   3.721   1.946  13.018 -1.3938 -0.3434 -1.0480
11847TIP3    H257033   3.773   1.875  12.894  0.8618 -0.4271 -0.0915
11848TIP3   OH257034   2.077   4.135   2.682 -0.1222  0.2556 -0.6421
11848TIP3    H157035   2.084   4.041   2.693 -1.9535  0.0452 -0.9949
11848TIP3    H257036   2.070   4.170   2.771  1.6120  0.1979 -0.4498
11849TIP3   OH257037   1.376   2.659  14.452 -0.0392 -0.4982 -0.7111
11849TIP3    H157038   1.367   2.749  14.483  2.2667 -0.1636 -0.8432
11849TIP3    H257039   1.389   2.607  14.531  0.1440 -0.4767 -0.7249
11850TIP3   OH257040   4.643   5.493   1.025  0.1053  0.0864  0.0174
11850TIP3    H157041   4.630   5.437   1.102  2.1871  1.1406  1.2117
11850TIP3    H257042   4.594   5.449   0.955  1.4961 -3.1568  0.9090
11851TIP3   OH257043   4.661   2.489   0.043  0.1271 -0.1088 -0.4898
11851TIP3    H157044   4.756   2.493   0.055  0.0616 -0.1077  0.0647
11851TIP3    H257045   4.627   2.462   0.129 -0.5071  1.7832 -0.0941
11852TIP3   OH257046   1.258   4.594  12.697  0.1143 -0.6503  0.1410
11852TIP3    H157047   1.179   4.639  12.667  0.0462 -1.3994 -0.8543
11852TIP3    H257048   1.328   4.627  12.641  0.2989 -0.8203  0.2688
11853TIP3   OH257049   2.417   1.335  15.509  0.0028  0.2000  0.3244
11853TIP3    H157050   2.444   1.244  15.495 -1.0846 -0.2654  1.0529
11853TIP3    H257051   2.489   1.374  15.559 -0.3334 -0.8170  1.6663
11854TIP3   OH257052   3.393   4.698  15.191 -0.0562 -0.1634  0.0265
11854TIP3    H157053   3.335   4.769  15.162  0.8045  0.1266 -1.0627
11854TIP3    H257054   3.335   4.622  15.199 -0.7525  0.3352 -0.1597
11855TIP3   OH257055   0.526   6.121  14.500 -0.0826 -0.3728  0.4013
11855TIP3    H157056   0.462   6.181  14.461 -1.8759 -1.6127  1.2541
11855TIP3    H257057   0.523   6.141  14.594  0.7679 -0.4786  0.4583
11856TIP3   OH257058   6.204   2.563   3.999  0.1524 -0.9515 -0.3897
11856TIP3    H157059   6.238   2.652   3.993 -0.4186 -0.6759  0.2439
11856TIP3    H257060   6.142   2.556   3.927  0.0595 -0.7692 -0.3281
11857TIP3   OH257061   6.074   0.103   2.175  0.4125  0.3424 -0.2050
11857TIP3    H157062   6.004   0.039   2.160  1.0824 -0.6607  0.7665
11857TIP3    H257063   6.147   0.051   2.210  1.8310  1.2725 -1.5966
11858TIP3   OH257064   0.393   1.384   5.066 -0.3063  0.5430  0.7216
11858TIP3    H157065   0.347   1.309   5.028 -0.1266  1.8029 -2.2186
11858TIP3    H257066   0.470   1.346   5.110 -1.1020 -1.0895  0.7638
11859TIP3   OH257067   6.665   1.993   4.665 -0.1755 -0.1236  0.1517
11859TIP3    H157068   6.611   2.071   4.671 -2.1650 -1.3086 -1.2191
11859TIP3    H257069   6.695   1.990   4.574  0.5067 -0.5560  0.3810
11860TIP3   OH257070   2.082   5.747  14.889 -0.1810  0.2686 -0.2089
11860TIP3    H157071   2.036   5.772  14.809  0.4100  2.0209 -0.0283
11860TIP3    H257072   2.160   5.700  14.858 -0.2736  0.3898 -0.6294
11861TIP3   OH257073   0.496   0.041   5.949  0.7930 -0.1044 -0.2389
11861TIP3    H157074   0.575   0.091   5.967  1.0381 -0.8935  0.9811
11861TIP3    H257075   0.498  -0.031   6.012 -0.7946 -0.2512 -0.3209
11862TIP3   OH257076   2.382   0.827  13.247  0.3440  0.1884  0.4541
11862TIP3    H157077   2.424   0.867  13.324  1.0222 -0.3100  0.3515
11862TIP3    H257078   2.351   0.742  13.278 -0.4430  0.4764  0.4780
11863TIP3   OH257079   1.752   6.677   2.854 -0.2260 -0.5070  0.0570
11863TIP3    H157080   1.795   6.760   2.875  0.8668 -0.2143 -2.8735
11863TIP3    H257081   1.699   6.697   2.777  0.0215 -2.4919 -0.6749
11864TIP3   OH257082   5.217   3.751   4.163  0.3204 -0.2783  0.0695
11864TIP3    H157083   5.219   3.781   4.072  0.3144  1.1425  0.5079
11864TIP3    H257084   5.132   3.708   4.173 -0.7567  1.7297  0.0159
11865TIP3   OH257085   2.753   0.476  15.508 -0.1744 -0.5075  0.9391
11865TIP3    H157086   2.732   0.496  15.600 -1.7616  0.6658  0.3601
11865TIP3    H257087   2.848   0.486  15.503 -0.1337  0.0537  2.3171
11866TIP3   OH257088   3.205   2.701  17.013 -0.2627  0.6490 -0.2569
11866TIP3    H157089   3.275   2.761  16.986 -0.7226  0.8253 -1.0894
11866TIP3    H257090   3.223   2.684  17.106 -0.6434  2.8142  0.2874
11867TIP3   OH257091   5.833   4.332   1.056  0.2596 -0.1013 -0.1205
11867TIP3    H157092   5.891   4.278   1.109 -0.4709 -1.0980 -0.2955
11867TIP3    H257093   5.873   4.335   0.970 -0.7217 -2.1698 -0.7070
11868TIP3   OH257094   0.910   4.353  12.325 -0.1971 -0.3703 -0.1090
11868TIP3    H157095   0.816   4.365  12.326 -0.1559 -0.0425  0.5491
11868TIP3    H257096   0.942   4.417  12.262 -0.4651 -0.9500 -0.8479
11869TIP3   OH257097   3.140   2.868   4.781  0.4817  0.3604 -0.0468
11869TIP3    H157098   3.064   2.825   4.821  0.8595 -0.7254 -0.4455
11869TIP3    H257099   3.162   2.812   4.706  0.3896  1.8111 -1.1955
11870TIP3   OH257100   0.508   5.701   5.780  0.3502  0.0121  0.2292
11870TIP3    H157101   0.588   5.664   5.744 -0.4790 -0.4804 -1.1811
11870TIP3    H257102   0.443   5.632   5.769 -0.4531  0.6843  0.6413
11871TIP3   OH257103   1.097   2.033  16.301  0.6462  0.4438  0.2965
11871TIP3    H157104   1.065   1.951  16.262 -0.7846  0.9757  0.2799
11871TIP3    H257105   1.143   2.077  16.229 -1.0385  0.9180 -0.5649
11872TIP3   OH257106   1.610   1.219  11.857 -0.4716  0.5553 -0.2094
11872TIP3    H157107   1.674   1.210  11.786  0.2806  1.0864  0.3786
11872TIP3    H257108   1.605   1.132  11.896  0.5403  0.6996  0.2712
11873TIP3   OH257109   6.447   5.942   1.236  0.2752  0.2317 -0.1372
11873TIP3    H157110   6.466   5.997   1.161  0.4740 -1.4883 -1.4222
11873TIP3    H257111   6.365   5.977   1.272  1.7758  3.0075  0.8239
11874TIP3   OH257112   2.707   1.929   1.739  0.0469 -0.0221  0.1582
11874TIP3    H157113   2.768   1.876   1.688 -1.1805  1.4594 -3.1415
11874TIP3    H257114   2.638   1.868   1.765  0.9815 -0.9232  0.5684
11875TIP3   OH257115   2.579   0.817  14.973  0.0921 -0.2086 -0.3483
11875TIP3    H157116   2.590   0.722  14.985  1.1373 -0.1229 -0.5249
11875TIP3    H257117   2.523   0.824  14.895 -0.0522 -0.6808 -0.2947
11876TIP3   OH257118   3.585   4.368   3.476 -0.1772  0.1600  0.0508
11876TIP3    H157119   3.647   4.308   3.516  0.1945  0.9453  0.6880
11876TIP3    H257120   3.507   4.316   3.460  1.2249 -1.3469 -2.4601
11877TIP3   OH257121   1.169   4.018   3.732 -0.2804  0.3948 -0.4049
11877TIP3    H157122   1.245   4.077   3.740  0.0972 -0.1890  0.4650
11877TIP3    H257123   1.112   4.044   3.805 -0.2488 -0.1056 -0.2009
11878TIP3   OH257124   5.089   5.208  13.946 -0.2193  0.8965 -0.0172
11878TIP3    H157125   5.118   5.261  13.872  0.0343 -0.1864 -0.7152
11878TIP3    H257126   5.137   5.243  14.021  1.0749  0.7071 -0.7336
11879TIP3   OH257127   3.614   6.061   1.194 -0.3400  0.4790 -0.3014
11879TIP3    H157128   3.671   6.120   1.144 -0.1632  1.2213  0.7445
11879TIP3    H257129   3.525   6.088   1.170 -0.2714  1.5177  0.5085
11880TIP3   OH257130   2.565   5.933  13.046  0.3586 -0.5226  0.2472
11880TIP3    H157131   2.577   5.998  13.115  2.3307  0.2357 -0.7603
11880TIP3    H257132   2.644   5.879  13.049 -0.7274 -2.1977  0.3020
11881TIP3   OH257133   4.050   4.877  12.885  0.2242 -0.1418  0.4657
11881TIP3    H157134   4.084   4.911  12.802  0.0036  0.4252  0.6028
11881TIP3    H257135   4.113   4.810  12.911 -0.2277 -1.0168 -0.6412
11882TIP3   OH257136   0.130   1.898  17.139  0.0586  0.3193 -0.0937
11882TIP3    H157137   0.162   1.982  17.105  2.9408 -0.4022  0.5570
11882TIP3    H257138   0.138   1.906  17.234 -3.6500  0.7014  0.3269
11883TIP3   OH257139   6.036   4.295   5.238 -1.0061  0.1021  0.0177
11883TIP3    H157140   6.026   4.343   5.156 -2.3038  0.7413  0.5238
11883TIP3    H257141   6.131   4.287   5.249 -0.8098  0.0710 -1.4917
11884TIP3   OH257142   2.358   0.141  13.502  0.3135  0.0722 -0.3172
11884TIP3    H157143   2.282   0.167  13.554 -0.6904 -2.6462 -0.2551
11884TIP3    H257144   2.342   0.180  13.416  0.7964  2.6274  0.6887
11885TIP3   OH257145   5.885   5.826  13.848  0.3924 -0.5208 -0.3218
11885TIP3    H157146   5.855   5.786  13.766 -1.8640 -0.5910  0.4846
11885TIP3    H257147   5.909   5.752  13.904 -0.6762 -0.6183  0.0227
11886TIP3   OH257148   2.043   2.020   3.500  0.1027  0.4710  0.0965
11886TIP3    H157149   2.124   2.059   3.531  0.5098  1.1538 -1.7294
11886TIP3    H257150   1.994   1.999   3.580  2.6035 -1.2205  1.3276
11887TIP3   OH257151   4.068   3.966   2.232 -0.5762 -0.7504  0.6037
11887TIP3    H157152   4.040   4.031   2.297 -0.0873 -1.5167  1.5971
11887TIP3    H257153   4.135   4.011   2.181 -1.3327  0.0362  0.2568
11888TIP3   OH257154   4.723   5.465  16.327  0.4694 -0.3065 -0.4347
11888TIP3    H157155   4.760   5.376  16.334 -0.3409 -0.9312 -3.0950
11888TIP3    H257156   4.629   5.452  16.341  0.5118  0.4138  0.6486
11889TIP3   OH257157   2.488   0.908  11.361  0.0494 -0.1778 -0.5835
11889TIP3    H157158   2.449   0.976  11.307 -1.3629 -1.9271 -1.8926
11889TIP3    H257159   2.509   0.952  11.444 -2.2963  1.4829 -0.7765
11890TIP3   OH257160   1.994   4.365  11.885  0.4034 -0.4723  0.2910
11890TIP3    H157161   1.973   4.343  11.794  1.1369  0.8422 -0.2272
11890TIP3    H257162   1.946   4.301  11.937 -1.7401  0.0220 -0.9543
11891TIP3   OH257163   3.662   1.393  11.595 -0.0281  0.8415  0.6830
11891TIP3    H157164   3.666   1.323  11.530 -0.4864 -0.7934  2.3040
11891TIP3    H257165   3.579   1.438  11.577  0.6588  1.5346 -0.8900
11892TIP3   OH257166   1.690   0.165   4.087  0.1634  0.3461 -0.1483
11892TIP3    H157167   1.768   0.205   4.125  0.1935  0.8747 -0.7464
11892TIP3    H257168   1.671   0.219   4.010  0.3408 -0.9481 -1.1122
11893TIP3   OH257169   0.418   0.421  14.839 -0.3571 -0.3086 -0.5716
11893TIP3    H157170   0.512   0.437  14.832 -0.7324  1.8612 -1.6306
11893TIP3    H257171   0.399   0.425  14.932  0.7558 -2.0820 -0.2287
11894TIP3   OH257172   1.383   5.189   4.535  0.0877  0.0310 -0.4907
11894TIP3    H157173   1.373   5.116   4.597  1.8842 -0.0947 -0.2862
11894TIP3    H257174   1.375   5.267   4.589  2.2840 -0.0755  0.1161
11895TIP3   OH257175   1.151   0.505   5.404 -0.0423  0.0536 -0.1692
11895TIP3    H157176   1.235   0.516   5.448 -1.3146  1.8188  2.0439
11895TIP3    H257177   1.160   0.554   5.322  1.1912 -0.1106 -0.1488
11896TIP3   OH257178   5.891   4.269   1.867  0.5686  0.6659  0.1820
11896TIP3    H157179   5.936   4.195   1.908  1.2670 -0.1852 -1.9887
11896TIP3    H257180   5.960   4.331   1.845  0.7190 -0.3287 -2.5137
11897TIP3   OH257181   5.582   6.323  14.735 -0.4592  0.2213  0.0940
11897TIP3    H157182   5.637   6.326  14.814 -0.1569  0.7209 -0.1238
11897TIP3    H257183   5.644   6.302  14.665 -0.9859 -1.8338  0.1941
11898TIP3   OH257184   6.044   3.404   1.491 -0.4744 -0.5917  0.4124
11898TIP3    H157185   6.011   3.377   1.405 -0.2222 -0.9406  0.4258
11898TIP3    H257186   5.965   3.428   1.540 -0.5796  0.1065 -0.0859
11899TIP3   OH257187   3.313   1.725  11.353 -0.2067  0.4867 -0.1096
11899TIP3    H157188   3.280   1.801  11.402  2.4089  0.6443  1.5642
11899TIP3    H257189   3.372   1.763  11.288 -0.1157 -0.0315 -0.3287
11900TIP3   OH257190   5.400   0.792   6.620 -0.0656 -0.1148 -0.2580
11900TIP3    H157191   5.433   0.877   6.649  1.0743 -0.0686 -1.5684
11900TIP3    H257192   5.459   0.728   6.662  0.5198 -0.1289 -1.0826
11901TIP3   OH257193   4.299   6.512  11.778 -0.0422  0.1498 -0.0884
11901TIP3    H157194   4.240   6.439  11.759 -0.1135 -0.3240  1.7278
11901TIP3    H257195   4.330   6.541  11.692 -1.3036 -0.9301 -0.9507
11902TIP3   OH257196   5.432   2.693   1.949 -0.1235 -1.0299 -0.3810
11902TIP3    H157197   5.371   2.759   1.980 -0.2510 -1.5016  0.3801
11902TIP3    H257198   5.509   2.744   1.920 -0.4728 -0.5109 -0.4127
11903TIP3   OH257199   2.620   0.457  10.586 -0.0184  0.1945 -0.0738
11903TIP3    H157200   2.708   0.462  10.626 -0.1718 -2.5281  0.7870
11903TIP3    H257201   2.568   0.520  10.636  0.6276 -0.7024  1.8194
11904TIP3   OH257202   0.028   0.809  14.228  0.4958 -0.5927 -0.6150
11904TIP3    H157203   0.005   0.831  14.318 -0.0148 -1.5637 -0.4939
11904TIP3    H257204   0.090   0.736  14.236  1.4327  0.1375 -1.0267
11905TIP3   OH257205   1.051   0.681  15.538 -0.0887  0.3424 -0.2469
11905TIP3    H157206   1.015   0.646  15.620  1.1106 -1.9496 -0.6171
11905TIP3    H257207   1.014   0.769  15.532 -1.0335  0.2131  2.2277
11906TIP3   OH257208   5.352   4.938   3.951  0.3622  0.6822  0.0306
11906TIP3    H157209   5.403   4.904   3.878  0.1699  2.0761 -0.7842
11906TIP3    H257210   5.366   4.874   4.022  1.0596 -0.3537 -1.0071
11907TIP3   OH257211   1.943   1.296   5.219 -0.3607  0.0517 -0.0060
11907TIP3    H157212   1.901   1.318   5.136 -0.8914  0.9442  0.4816
11907TIP3    H257213   1.984   1.211   5.204 -1.1594 -0.1817 -0.9204
11908TIP3   OH257214   2.832   1.152  12.620 -0.1112  0.3186 -0.1207
11908TIP3    H157215   2.872   1.086  12.677 -0.0908 -0.7419 -1.3194
11908TIP3    H257216   2.905   1.189  12.571 -0.0073  1.8721  1.1254
11909TIP3   OH257217   4.322   5.177   5.896  0.2880 -0.2448 -0.6263
11909TIP3    H157218   4.310   5.084   5.913  0.9360  0.0801  2.0215
11909TIP3    H257219   4.250   5.220   5.943  1.5239  0.6833  0.5203
11910TIP3   OH257220   4.847   1.039   5.823  0.1426 -0.5519 -0.4228
11910TIP3    H157221   4.933   0.997   5.809  0.7657  0.2835  0.7677
11910TIP3    H257222   4.852   1.073   5.912 -0.2283  2.2995 -1.4092
11911TIP3   OH257223   4.668   0.579  16.897  0.1805 -0.0491 -1.0583
11911TIP3    H157224   4.665   0.510  16.963 -0.5216  1.1631  0.2360
11911TIP3    H257225   4.713   0.539  16.822  1.6286 -1.2811  0.3817
11912TIP3   OH257226   1.968   5.174  11.561  0.5209 -0.4239 -0.1534
11912TIP3    H157227   1.967   5.241  11.493 -1.2719  2.1187  2.1626
11912TIP3    H257228   2.060   5.152  11.571  1.1483  1.3971 -1.2899
11913TIP3   OH257229   1.762   1.847  16.510 -0.3326  0.4648  0.1512
11913TIP3    H157230   1.829   1.899  16.555 -0.1790 -0.6424  1.2457
11913TIP3    H257231   1.720   1.796  16.579 -1.5305  0.2729 -0.6872
11914TIP3   OH257232   1.356   0.113  12.284 -0.1127  0.2517  0.2121
11914TIP3    H157233   1.324   0.033  12.326  0.3166 -1.3945 -2.3618
11914TIP3    H257234   1.398   0.083  12.203  0.9244  3.0231 -0.4150
11915TIP3   OH257235   2.516   6.524  12.829  0.7098 -0.5175  0.1337
11915TIP3    H157236   2.551   6.448  12.783  0.3465 -0.0295 -0.9769
11915TIP3    H257237   2.452   6.488  12.890 -1.2920 -0.9695 -2.1015
11916TIP3   OH257238   5.504   3.342   2.528 -0.6534  0.2159  0.0074
11916TIP3    H157239   5.511   3.251   2.497 -0.5796 -0.5633  2.1306
11916TIP3    H257240   5.435   3.380   2.474  0.6615 -0.4357 -2.3213
11917TIP3   OH257241   0.353   3.351  10.402  0.2620  0.1850 -0.0022
11917TIP3    H157242   0.413   3.418  10.435  0.1479 -0.0059  0.6078
11917TIP3    H257243   0.320   3.307  10.481 -0.6119  0.2298 -0.3341
11918TIP3   OH257244   5.432   2.798   9.926 -0.6600  0.3103  0.3515
11918TIP3    H157245   5.419   2.849  10.006 -1.0067  0.1752  0.3846
11918TIP3    H257246   5.344   2.779   9.895 -0.5284  0.3183 -0.0389
11919TIP3   OH257247   5.548   4.169  16.843 -0.1658  0.3869  0.2351
11919TIP3    H157248   5.538   4.173  16.938  0.1056  0.6546  0.2506
11919TIP3    H257249   5.565   4.259  16.816  0.7008  0.1689  0.0343
11920TIP3   OH257250   6.657   2.777  15.832  0.6290 -0.3177  0.3398
11920TIP3    H157251   6.719   2.746  15.898 -0.4912 -0.8212  1.2050
11920TIP3    H257252   6.710   2.825  15.769  1.7587  0.0399  1.5321
11921TIP3   OH257253   3.475   5.777  15.740 -0.5256  0.3957  0.0579
11921TIP3    H157254   3.516   5.816  15.663  1.6085  1.6818  1.7265
11921TIP3    H257255   3.389   5.819  15.746  0.0892  1.7906 -0.5144
11922TIP3   OH257256   6.067   4.052  12.653 -0.1599  0.0548  0.2675
11922TIP3    H157257   5.983   4.057  12.698  0.9942 -0.9619  2.6665
11922TIP3    H257258   6.043   4.050  12.560 -2.6545  1.7538  0.7512
11923TIP3   OH257259   1.274   4.840  16.685  0.0777 -0.7044  0.2466
11923TIP3    H157260   1.363   4.823  16.654 -0.1276 -0.6269 -0.4003
11923TIP3    H257261   1.218   4.790  16.625 -0.2790 -1.3681  1.1138
11924TIP3   OH257262   1.470   1.298   0.487  0.2058 -0.2564 -0.3398
11924TIP3    H157263   1.547   1.312   0.431 -0.4866  0.6266 -1.1085
11924TIP3    H257264   1.402   1.266   0.428  0.4247 -2.7012  0.6257
11925TIP3   OH257265   3.054   4.788  13.813  0.2875  0.1689 -0.0224
11925TIP3    H157266   3.072   4.805  13.720 -0.9183  0.8765 -0.1480
11925TIP3    H257267   3.140   4.799  13.855  1.0659 -1.2053 -1.1648
11926TIP3   OH257268   2.348   1.835  16.094  0.1291  0.4132 -0.2280
11926TIP3    H157269   2.399   1.914  16.114  0.4797  0.2097 -0.3096
11926TIP3    H257270   2.351   1.783  16.174  0.8837 -0.0488 -0.5414
11927TIP3   OH257271   3.270   3.528  16.197  0.0749 -0.0539 -0.4407
11927TIP3    H157272   3.226   3.578  16.266 -1.1235 -2.0683  0.3412
11927TIP3    H257273   3.351   3.577  16.179 -0.8749  1.9518  0.4614
11928TIP3   OH257274   6.460   4.796   0.150 -0.4304  0.1564 -0.0409
11928TIP3    H157275   6.437   4.888   0.160 -0.1450  0.0905  1.4596
11928TIP3    H257276   6.383   4.748   0.179 -0.3872 -0.0766 -0.3083
11929TIP3   OH257277   0.802   3.953  11.634 -0.2833 -0.1055  0.2787
11929TIP3    H157278   0.853   3.886  11.588 -1.5713 -2.7580  2.4185
11929TIP3    H257279   0.744   3.988  11.567  0.4423 -1.1391 -0.9390
11930TIP3   OH257280   1.399   6.605  14.799 -0.0081 -0.0018 -0.3909
11930TIP3    H157281   1.338   6.552  14.748 -0.9687  1.3685 -0.7355
11930TIP3    H257282   1.486   6.576  14.771 -0.4052 -2.8320  0.9633
11931TIP3   OH257283   2.313   0.728  13.710 -0.8357 -0.0170  0.5076
11931TIP3    H157284   2.283   0.662  13.773  0.2866 -0.3644  0.7010
11931TIP3    H257285   2.333   0.805  13.764 -0.2631 -0.1815  0.5432
11932TIP3   OH257286   2.962   0.693  14.770  0.1558  0.4275  0.0684
11932TIP3    H157287   3.029   0.704  14.702  0.3223 -1.8228 -0.2080
11932TIP3    H257288   2.901   0.629  14.733 -1.4012  1.3760  0.8831
11933TIP3   OH257289   3.409   0.844  12.363  0.1931  0.4099 -0.8069
11933TIP3    H157290   3.461   0.896  12.302  0.4374  0.6942 -0.3610
11933TIP3    H257291   3.473   0.797  12.416  0.0698  1.7425  0.6146
11934TIP3   OH257292   4.750   6.421  13.402 -0.4690  0.7319 -0.4394
11934TIP3    H157293   4.805   6.407  13.479  0.6565  1.3830 -1.1027
11934TIP3    H257294   4.671   6.370  13.420 -0.4748  1.2968  1.3862
11935TIP3   OH257295   5.731   4.438   5.884 -0.2848 -0.5845  0.1060
11935TIP3    H157296   5.772   4.459   5.801  1.2339 -1.3090  0.6288
11935TIP3    H257297   5.637   4.436   5.865 -0.0274  0.0818 -1.3792
11936TIP3   OH257298   2.994   4.775  16.863 -0.7059  0.4194 -0.5031
11936TIP3    H157299   2.979   4.864  16.896  0.3086  0.1070  0.8595
11936TIP3    H257300   2.989   4.719  16.940 -0.8926 -0.6626 -1.2839
11937TIP3   OH257301   5.506   0.120  16.814 -0.0191  0.0093 -0.0343
11937TIP3    H157302   5.579   0.154  16.865  0.5383 -2.4818  1.0088
11937TIP3    H257303   5.463   0.197  16.777  3.2039  1.5911 -0.8326
11938TIP3   OH257304   5.117   5.427   1.758  0.4292  0.4039  0.5722
11938TIP3    H157305   5.172   5.401   1.832  0.3036  0.8163  0.8186
11938TIP3    H257306   5.178   5.460   1.693  0.5394  0.0625  0.5026
11939TIP3   OH257307   2.174   3.283   3.192  0.4125 -0.3771  0.3678
11939TIP3    H157308   2.175   3.318   3.281 -1.7820  1.0213 -0.0733
11939TIP3    H257309   2.141   3.194   3.202  0.7657 -0.4428  0.9983
11940TIP3   OH257310   4.823   1.658  13.436  0.1003 -0.0076  0.2470
11940TIP3    H157311   4.856   1.584  13.487  1.0212 -0.3209 -0.7645
11940TIP3    H257312   4.768   1.618  13.368  1.4805  0.1120 -0.9852
11941TIP3   OH257313   4.536   1.906   1.616 -0.6039  0.0618 -0.0261
11941TIP3    H157314   4.454   1.952   1.632 -0.2153  0.5551  0.6264
11941TIP3    H257315   4.585   1.964   1.558 -1.2481 -0.8586 -1.5384
11942TIP3   OH257316   6.833   5.250  10.866 -0.3560  0.4602 -0.2833
11942TIP3    H157317   6.878   5.166  10.877 -0.2198  0.4278 -1.0475
11942TIP3    H257318   6.765   5.233  10.802 -2.3613  0.1843  1.7776
11943TIP3   OH257319   4.438   4.172  15.005  0.4811  0.0413 -0.3127
11943TIP3    H157320   4.437   4.221  15.088 -2.5080  1.0431 -0.8032
11943TIP3    H257321   4.436   4.080  15.031 -3.5497  0.2875  0.9994
11944TIP3   OH257322   3.234   2.259   3.712 -0.3053 -1.0476  0.0034
11944TIP3    H157323   3.319   2.247   3.668 -1.5892 -4.8324 -1.9473
11944TIP3    H257324   3.192   2.330   3.665  1.7098  1.0597  1.1414
11945TIP3   OH257325   1.329   4.351   5.498 -0.1228  0.5223 -0.5733
11945TIP3    H157326   1.270   4.295   5.448  0.0062 -0.7952  0.6938
11945TIP3    H257327   1.373   4.405   5.432 -0.7463 -0.3920 -1.7626
11946TIP3   OH257328   3.895   3.403  11.543  0.2022  0.0286 -0.3866
11946TIP3    H157329   3.911   3.350  11.465  0.6055 -1.1337  0.4685
11946TIP3    H257330   3.832   3.470  11.514 -0.0380 -0.6918 -1.5750
11947TIP3   OH257331   3.257   6.175  12.599  0.2664 -0.2047  0.8081
11947TIP3    H157332   3.341   6.215  12.618  1.0834 -1.3738 -0.2236
11947TIP3    H257333   3.262   6.088  12.638 -0.1565 -0.5708  0.0660
11948TIP3   OH257334   4.680   4.290  14.149 -0.1334 -0.2393 -0.3440
11948TIP3    H157335   4.756   4.258  14.197  1.2954  1.4701 -1.3453
11948TIP3    H257336   4.614   4.305  14.216  1.4733  1.1633  1.0167
11949TIP3   OH257337   0.324   4.795   3.616 -0.3678 -0.6759  0.4910
11949TIP3    H157338   0.310   4.889   3.606 -0.0444 -0.5378  1.1983
11949TIP3    H257339   0.362   4.787   3.704  1.4318 -1.2659 -0.2944
11950TIP3   OH257340   6.441   3.147   5.263 -0.1947  0.0666  0.0905
11950TIP3    H157341   6.400   3.082   5.320  2.4140  0.5035  2.6837
11950TIP3    H257342   6.493   3.094   5.202 -0.1600 -0.3473  0.4692
11951TIP3   OH257343   3.578   1.384  11.077  0.1772  0.1580  0.2430
11951TIP3    H157344   3.485   1.404  11.090  0.3373  0.5835  0.7944
11951TIP3    H257345   3.608   1.447  11.013  0.2754  0.5690  0.6872
11952TIP3   OH257346   3.046   6.675  16.531  0.1307 -0.4510  0.1574
11952TIP3    H157347   3.139   6.653  16.541  0.5615  0.6177 -1.2016
11952TIP3    H257348   3.018   6.698  16.619  1.2426 -0.4631  0.5385
11953TIP3   OH257349   4.307   6.092   1.329 -0.2970 -0.0883 -0.1092
11953TIP3    H157350   4.329   6.167   1.275  0.2738 -0.8276 -0.9285
11953TIP3    H257351   4.369   6.095   1.402 -0.5423  0.4584  0.0783
11954TIP3   OH257352   0.711   5.059  15.343  0.0410 -0.5197  0.4050
11954TIP3    H157353   0.698   4.988  15.405 -0.1218  0.0213  1.0090
11954TIP3    H257354   0.727   5.136  15.398  2.3069 -0.4637 -0.2567
11955TIP3   OH257355   5.770   2.990  11.723  0.0950 -0.3877 -0.1113
11955TIP3    H157356   5.861   3.006  11.749 -0.1168 -1.2845  1.2876
11955TIP3    H257357   5.721   3.064  11.757 -0.1205 -1.3630  1.8180
11956TIP3   OH257358   5.601   2.414  14.034  0.0493  0.2112  0.5094
11956TIP3    H157359   5.661   2.478  14.071 -0.0202  0.1289  0.7631
11956TIP3    H257360   5.584   2.446  13.945  1.8850 -0.6999 -0.2292
11957TIP3   OH257361   0.033   1.591   3.458 -0.0698  0.0940 -0.0871
11957TIP3    H157362  -0.045   1.568   3.508  0.5375 -0.7502  0.4940
11957TIP3    H257363   0.029   1.687   3.452 -0.7277  0.1304  0.6331
11958TIP3   OH257364   1.388   2.036   5.854  0.2873 -0.3249  0.1735
11958TIP3    H157365   1.411   2.007   5.942 -0.4954  0.7622  0.7591
11958TIP3    H257366   1.292   2.035   5.853  0.2841 -1.3703 -1.0391
11959TIP3   OH257367   6.073   6.740   3.744  0.0035  0.3588  0.3662
11959TIP3    H157368   6.014   6.705   3.810  0.7052 -1.6275  0.0057
11959TIP3    H257369   6.154   6.758   3.791  0.4202 -0.8158  0.1262
11960TIP3   OH257370   4.457   1.832  16.124 -0.1149  0.3983 -0.3688
11960TIP3    H157371   4.535   1.886  16.113  0.1138  1.1777  3.7096
11960TIP3    H257372   4.480   1.772  16.195 -2.4646 -0.9641 -0.6730
11961TIP3   OH257373   3.490   4.946  13.348 -0.2299  0.7001  0.3957
11961TIP3    H157374   3.511   5.015  13.286  2.4956  0.7822  1.3009
11961TIP3    H257375   3.472   4.869  13.293 -0.1509  1.3384 -0.5409
11962TIP3   OH257376   0.011   5.446   5.944  0.8616 -0.1156 -0.5112
11962TIP3    H157377   0.092   5.400   5.962  1.6159  0.3590 -2.4713
11962TIP3    H257378   0.034   5.539   5.949  0.4745  0.0249 -1.1773
11963TIP3   OH257379   0.410   5.155  12.454  0.0554  0.3914  0.0927
11963TIP3    H157380   0.400   5.238  12.500  2.3254  0.4610  0.5999
11963TIP3    H257381   0.500   5.127  12.475 -0.2142 -1.5506 -1.0992
11964TIP3   OH257382   4.628   2.690  11.870  0.1859  0.2647 -0.0901
11964TIP3    H157383   4.548   2.713  11.823  0.2868  2.6063  0.7633
11964TIP3    H257384   4.690   2.667  11.801 -1.2271 -1.8486 -0.7616
11965TIP3   OH257385   1.593   2.445   1.929 -0.4520 -0.8697 -0.8983
11965TIP3    H157386   1.612   2.532   1.894 -1.9516 -0.1561 -0.0573
11965TIP3    H257387   1.506   2.454   1.968 -0.0019 -2.3501  0.5535
11966TIP3   OH257388   0.930   6.178   2.275  0.1880 -0.1603  0.0527
11966TIP3    H157389   0.995   6.112   2.298  0.4096  0.2320  0.5740
11966TIP3    H257390   0.847   6.142   2.307  0.5998  0.7494  2.3264
11967TIP3   OH257391   0.130   6.701  11.576 -0.1896 -0.1000 -0.2302
11967TIP3    H157392   0.090   6.641  11.513 -2.1215  0.4030  0.4374
11967TIP3    H257393   0.136   6.650  11.657 -1.2764  0.3790  0.1740
11968TIP3   OH257394   4.826   6.320   0.464  0.2743 -0.2398  0.2104
11968TIP3    H157395   4.861   6.333   0.376 -2.6621  0.7004 -0.9536
11968TIP3    H257396   4.855   6.396   0.513 -1.3161  1.3738 -1.1895
11969TIP3   OH257397   4.927   4.182   4.524  0.0813  0.4493  0.3488
11969TIP3    H157398   4.864   4.152   4.458 -1.4354  0.3746  1.7716
11969TIP3    H257399   4.888   4.261   4.560  1.6683  1.3905  0.0864
11970TIP3   OH257400   3.002   1.939   2.717 -0.1238  0.0050 -0.2195
11970TIP3    H157401   2.990   1.954   2.810  1.3191  1.5523 -0.2233
11970TIP3    H257402   3.085   1.893   2.710 -0.4929 -0.6095 -0.7278
11971TIP3   OH257403   3.941   1.932  16.112 -0.0213 -0.2773  0.6084
11971TIP3    H157404   3.903   1.919  16.199  1.2035 -1.8727  0.9704
11971TIP3    H257405   3.978   1.846  16.090  1.2253  0.5627 -0.7185
11972TIP3   OH257406   4.017   3.746   5.735  0.0643  1.0215  0.0078
11972TIP3    H157407   4.097   3.714   5.693  0.5132  1.9413  0.1251
11972TIP3    H257408   3.957   3.671   5.733  1.6181 -0.3771  1.7456
11973TIP3   OH257409   2.627   4.453   5.103 -0.4159 -0.4627  0.0612
11973TIP3    H157410   2.605   4.532   5.153  0.3029 -0.9827  1.2467
11973TIP3    H257411   2.712   4.472   5.065 -0.8097 -0.2009 -0.7229
11974TIP3   OH257412   4.659   2.427  11.975 -0.2215 -0.3700  0.3618
11974TIP3    H157413   4.598   2.374  11.924  2.4316 -1.3659 -2.1377
11974TIP3    H257414   4.643   2.517  11.946  0.1763 -0.7537 -1.1511
11975TIP3   OH257415   4.514   6.469  11.518  0.6036 -0.3518  0.3336
11975TIP3    H157416   4.528   6.554  11.475  0.6686  0.6872  2.2791
11975TIP3    H257417   4.450   6.425  11.463 -1.0957  1.8636  0.3843
11976TIP3   OH257418   1.926   2.704  16.571  0.0811 -0.4652 -0.3825
11976TIP3    H157419   1.935   2.618  16.612  1.1963  0.1020  0.6144
11976TIP3    H257420   1.995   2.757  16.611 -0.2430  0.7444 -1.3796
11977TIP3   OH257421   3.017   5.210   5.649  0.3429  0.1305 -0.2926
11977TIP3    H157422   2.966   5.129   5.644  0.0044  0.2547  0.9832
11977TIP3    H257423   2.951   5.280   5.641  0.2993  0.2921  1.3244
11978TIP3   OH257424   2.752   0.356  13.036  0.0373  0.2746  0.2427
11978TIP3    H157425   2.809   0.303  13.092 -1.5772 -1.5349  0.2934
11978TIP3    H257426   2.664   0.323  13.054 -0.7262  0.9799 -1.9370
11979TIP3   OH257427   3.664   1.500   3.307  0.1453 -0.2422 -0.6906
11979TIP3    H157428   3.669   1.428   3.370 -0.7115 -0.2231 -0.5798
11979TIP3    H257429   3.726   1.476   3.238  2.0208  0.3386  0.7182
11980TIP3   OH257430   3.953   0.903   4.358  0.8004 -0.5415 -0.9527
11980TIP3    H157431   3.931   0.819   4.397  1.6583 -1.0421 -1.5122
11980TIP3    H257432   3.869   0.948   4.348  0.4053 -1.0586 -0.0482
11981TIP3   OH257433   4.428   4.217  16.165 -0.2803 -0.3400  0.4392
11981TIP3    H157434   4.478   4.136  16.157 -0.2253 -0.2936  0.3125
11981TIP3    H257435   4.409   4.243  16.075  2.1338  1.2973  0.2891
11982TIP3   OH257436   1.648   3.165  12.276 -0.1569  0.1665  0.6967
11982TIP3    H157437   1.615   3.095  12.220 -0.8175  2.0313 -1.3960
11982TIP3    H257438   1.742   3.164  12.263 -0.2954  0.5527 -0.4925
11983TIP3   OH257439   0.569   1.525   2.035  0.1904  0.0341  0.1799
11983TIP3    H157440   0.558   1.508   1.941  5.8266  1.0346 -1.0095
11983TIP3    H257441   0.511   1.598   2.053 -2.5044 -1.3948 -1.9303
11984TIP3   OH257442   6.111   2.735  16.451  0.0246 -0.2470  0.1982
11984TIP3    H157443   6.180   2.723  16.386  0.0983  1.8274 -0.1801
11984TIP3    H257444   6.134   2.675  16.522  1.3249 -0.7409 -0.6127
11985TIP3   OH257445   4.196   0.866   1.663 -0.3304  0.2038 -0.2601
11985TIP3    H157446   4.200   0.951   1.619 -0.5819 -0.0305 -0.7532
11985TIP3    H257447   4.106   0.835   1.648  0.1895 -0.8341 -1.4403
11986TIP3   OH257448   5.488   4.391   2.232  0.6355 -0.7035 -0.3611
11986TIP3    H157449   5.473   4.433   2.317  0.2383 -0.1447 -0.7055
11986TIP3    H257450   5.583   4.380   2.228  0.6372 -0.9222  0.2458
11987TIP3   OH257451   6.597   5.735   0.757  0.0030 -0.2631  0.4697
11987TIP3    H157452   6.618   5.642   0.757 -1.5332 -0.6509 -0.3721
11987TIP3    H257453   6.557   5.751   0.842 -2.4075 -1.1046 -0.4056
11988TIP3   OH257454   0.715   4.265  17.051  0.1859  0.3901 -0.1158
11988TIP3    H157455   0.796   4.214  17.056 -0.7460 -1.3062 -1.3966
11988TIP3    H257456   0.681   4.248  16.964 -1.9754  0.3911  0.6734
11989TIP3   OH257457   1.223   4.714   2.726 -0.2875 -0.0619 -0.2464
11989TIP3    H157458   1.260   4.753   2.646 -3.4409  3.5152 -0.2317
11989TIP3    H257459   1.269   4.757   2.797  1.7484 -2.4561  0.0257
11990TIP3   OH257460   6.651   4.282  12.355 -0.4813 -0.3520 -0.5933
11990TIP3    H157461   6.561   4.311  12.370 -0.8919 -1.7395 -0.2043
11990TIP3    H257462   6.704   4.339  12.411 -1.3605 -1.0201  1.0175
11991TIP3   OH257463   5.914   1.674  16.910 -0.2470  0.4167  0.5553
11991TIP3    H157464   5.962   1.672  16.993  0.1381  0.5211  0.3376
11991TIP3    H257465   5.840   1.615  16.924 -0.1250  0.3519  0.9379
11992TIP3   OH257466   6.302   5.804  13.370  0.5403 -0.1511  0.0748
11992TIP3    H157467   6.279   5.719  13.332  0.0740 -0.3923  0.8695
11992TIP3    H257468   6.227   5.826  13.425  1.3517  0.0273  1.1208
11993TIP3   OH257469   2.419   4.750   5.162 -0.6641 -0.2147  0.2216
11993TIP3    H157470   2.362   4.824   5.180  1.1765  0.8476  2.1652
11993TIP3    H257471   2.493   4.788   5.114 -0.7385 -1.2406 -0.7518
11994TIP3   OH257472   0.001   1.635   2.124 -0.4907 -0.0926  0.0961
11994TIP3    H157473  -0.026   1.726   2.110  0.4447  0.2947  0.6963
11994TIP3    H257474  -0.080   1.588   2.145 -0.7843  0.9068  1.2799
11995TIP3   OH257475   4.885   4.929   1.002 -0.1961 -0.3305 -0.5695
11995TIP3    H157476   4.800   4.951   0.965 -0.9751 -1.3241  0.5455
11995TIP3    H257477   4.872   4.843   1.042  0.9930  0.0544  0.7126
11996TIP3   OH257478   2.141   5.525  14.632  0.1233  0.3732 -0.1646
11996TIP3    H157479   2.062   5.570  14.660 -0.8456 -0.1664 -1.9268
11996TIP3    H257480   2.184   5.587  14.573  1.5988  1.0803  1.5624
11997TIP3   OH257481   2.607   6.080  15.551 -0.1830  0.5949 -0.0706
11997TIP3    H157482   2.638   6.045  15.468 -0.9270 -1.6693  0.5398
11997TIP3    H257483   2.686   6.105  15.598  0.4093 -0.5702 -0.4312
11998TIP3   OH257484   0.033   1.458   1.196  0.4175 -0.3898  0.1165
11998TIP3    H157485   0.128   1.467   1.203  0.3238 -0.4137  1.9515
11998TIP3    H257486  -0.001   1.545   1.216  0.0485 -0.4796 -0.1136
11999TIP3   OH257487   5.965   3.523   3.340  0.0915 -0.0962 -0.4369
11999TIP3    H157488   6.060   3.510   3.332  0.2139  0.9771 -1.0011
11999TIP3    H257489   5.940   3.473   3.417  0.8452 -1.7111 -1.1699
12000TIP3   OH257490   0.348   0.775  13.380 -0.0238  0.1771 -0.4425
12000TIP3    H157491   0.277   0.713  13.366  0.2438  0.0226 -1.1465
12000TIP3    H257492   0.341   0.837  13.308  0.3912  0.3175 -0.3658
12001TIP3   OH257493   6.226   3.666  11.467  0.1196  0.1376 -0.2333
12001TIP3    H157494   6.308   3.648  11.421  0.1496 -0.1275 -0.0768
12001TIP3    H257495   6.216   3.761  11.461  0.6069  0.2103  0.0307
12002TIP3   OH257496   1.494   6.348  11.611  0.1757  0.3959  0.0401
12002TIP3    H157497   1.516   6.389  11.695  0.1839 -1.3596  0.9414
12002TIP3    H257498   1.571   6.363  11.556 -0.9219  4.1360 -0.7775
12003TIP3   OH257499   2.399   2.396   2.812  0.1716 -0.0171  0.3193
12003TIP3    H157500   2.489   2.427   2.828  0.4736 -0.7713  0.1253
12003TIP3    H257501   2.362   2.461   2.751  0.5294  0.3861  0.5242
12004TIP3   OH257502   3.351   1.375   2.237  0.5967  0.3714  0.5203
12004TIP3    H157503   3.287   1.365   2.307 -0.8001  0.7414 -0.6690
12004TIP3    H257504   3.342   1.295   2.184  0.5969  0.7470 -0.0593
12005TIP3   OH257505   3.642   2.909  14.905  0.1046  0.2768 -0.0089
12005TIP3    H157506   3.578   2.841  14.883  0.5679 -0.1927  0.0488
12005TIP3    H257507   3.669   2.944  14.821  0.9428 -0.6392 -0.1447
12006TIP3   OH257508   2.079   5.899  14.030  0.1512 -0.2785 -0.0547
12006TIP3    H157509   2.011   5.832  14.033 -1.4981  1.1596 -1.9651
12006TIP3    H257510   2.039   5.971  13.979  2.3973  1.4628  0.4767
12007TIP3   OH257511   6.642   0.388  12.739  0.8600  0.1226 -0.6186
12007TIP3    H157512   6.671   0.297  12.737 -0.6808 -0.3901 -0.4879
12007TIP3    H257513   6.615   0.407  12.649 -0.0609  0.0164 -0.3767
12008TIP3   OH257514   2.228   0.905   3.660 -0.0131  0.0945  0.1791
12008TIP3    H157515   2.153   0.871   3.611  1.5222 -0.8695 -1.6194
12008TIP3    H257516   2.190   0.940   3.741 -2.3597 -0.5119 -0.5918
12009TIP3   OH257517   3.844   6.007  11.837  0.1815 -0.2463  0.6767
12009TIP3    H157518   3.939   6.005  11.831  0.1705  0.2775  0.2061
12009TIP3    H257519   3.819   6.087  11.792 -0.5813 -1.1257 -0.5158
12010TIP3   OH257520   1.692   4.326   3.107  0.8661 -0.0823 -0.2570
12010TIP3    H157521   1.667   4.415   3.132  0.7119 -0.5071  1.1926
12010TIP3    H257522   1.610   4.284   3.083  0.6779 -0.3323  0.7648
12011TIP3   OH257523   3.425   1.176   2.996 -0.0159 -0.4344  0.3933
12011TIP3    H157524   3.416   1.107   3.062  1.4243  0.0428  1.1305
12011TIP3    H257525   3.348   1.232   3.009  1.3830  1.0376  3.3851
12012TIP3   OH257526   4.078   5.814  11.025  0.0084  0.3593  0.1268
12012TIP3    H157527   4.059   5.790  10.934  1.4495 -0.1218 -0.0719
12012TIP3    H257528   4.163   5.857  11.021 -0.9613  2.4762  0.9614
12013TIP3   OH257529   1.316   0.553  13.772  0.2682 -0.0286 -0.2054
12013TIP3    H157530   1.242   0.512  13.816  0.8160 -2.2534 -1.2199
12013TIP3    H257531   1.393   0.523  13.819  0.8540 -2.3263 -2.4194
12014TIP3   OH257532   3.955   4.024   1.596  0.2657 -0.3890 -0.7556
12014TIP3    H157533   3.886   3.986   1.650  0.2092 -1.3088 -1.4562
12014TIP3    H257534   3.989   4.097   1.648 -1.1019 -0.0322 -0.3223
12015TIP3   OH257535   5.476   4.652  12.286  0.3867 -0.3242 -0.0854
12015TIP3    H157536   5.571   4.639  12.280  0.4802 -0.5060  1.4400
12015TIP3    H257537   5.441   4.566  12.310 -0.0991 -0.1361 -0.1027
12016TIP3   OH257538   0.096   4.694  17.003 -0.2320  0.2509  0.4880
12016TIP3    H157539   0.021   4.730  16.957 -0.7218  1.7350  2.3110
12016TIP3    H257540   0.059   4.637  17.070  0.4474 -1.5495 -0.5936
12017TIP3   OH257541   1.988   2.004  12.847  0.6657  0.8031  0.1477
12017TIP3    H157542   2.014   1.951  12.923  4.2274  0.3149 -1.2180
12017TIP3    H257543   1.895   2.020  12.860  0.4585 -1.7711  3.0643
12018TIP3   OH257544   2.000   4.131  15.145 -0.4184  0.7559 -0.3025
12018TIP3    H157545   2.049   4.212  15.135  2.7575 -0.7842  1.1565
12018TIP3    H257546   1.979   4.126  15.238  0.0704 -0.3906 -0.2335
12019TIP3   OH257547   1.903   0.017  14.213  0.5063  0.2511  0.7925
12019TIP3    H157548   1.881   0.109  14.208  1.2953  0.4286  0.3584
12019TIP3    H257549   1.840  -0.026  14.155  1.7172  0.8396 -1.0653
12020TIP3   OH257550   0.128   5.097  13.073 -0.2101 -0.5792  0.3541
12020TIP3    H157551   0.069   5.023  13.087 -1.1745  0.2129  0.6112
12020TIP3    H257552   0.201   5.081  13.132 -0.1094 -1.6417 -0.0510
12021TIP3   OH257553   5.219   6.539   3.217 -0.3911  0.4497  0.5587
12021TIP3    H157554   5.161   6.527   3.142 -1.0409  0.1731  1.0968
12021TIP3    H257555   5.177   6.491   3.289  0.8754 -0.4181  0.7782
12022TIP3   OH257556   2.231   4.593   5.418  0.2504 -0.0382 -0.1351
12022TIP3    H157557   2.213   4.646   5.340 -0.3033 -0.2984 -0.1866
12022TIP3    H257558   2.148   4.587   5.464  0.0478 -1.6634 -0.6333
12023TIP3   OH257559   4.487   6.286   1.523  0.1692 -0.2633 -0.6175
12023TIP3    H157560   4.531   6.369   1.505  0.1250 -0.5204 -2.0339
12023TIP3    H257561   4.557   6.226   1.551  0.1885  0.2552  0.4860
12024TIP3   OH257562   4.597   1.405  16.894 -0.5857 -0.2623 -0.4742
12024TIP3    H157563   4.606   1.359  16.810  0.8055  0.2404 -0.6332
12024TIP3    H257564   4.655   1.358  16.954 -3.5148 -2.2714  1.0313
12025TIP3   OH257565   5.759   4.750  16.283  0.1463 -0.1825  0.3051
12025TIP3    H157566   5.854   4.749  16.269  0.0981  0.5062 -0.1267
12025TIP3    H257567   5.727   4.818  16.224 -0.7260 -0.9793 -0.1582
12026TIP3   OH257568   4.581   1.373   4.277 -0.3685 -0.0086 -0.8692
12026TIP3    H157569   4.634   1.366   4.356  1.5102 -3.4070 -2.1999
12026TIP3    H257570   4.634   1.427   4.217 -0.6686  0.5576 -0.6304
12027TIP3   OH257571   3.366   5.580   4.443 -0.2899 -0.8160  0.1224
12027TIP3    H157572   3.325   5.579   4.530 -0.5254  0.9985  0.0578
12027TIP3    H257573   3.430   5.509   4.446 -0.4479 -0.9242  1.7087
12028TIP3   OH257574   2.001   5.615  15.881  0.1945 -0.7439 -0.4603
12028TIP3    H157575   2.079   5.645  15.928 -0.2724  1.2864 -0.8740
12028TIP3    H257576   1.986   5.682  15.814 -0.6094 -2.2573 -1.8960
12029TIP3   OH257577   3.378   1.445   4.352  0.3936  0.1893 -0.2208
12029TIP3    H157578   3.414   1.521   4.306 -1.0163  0.5941 -0.7287
12029TIP3    H257579   3.284   1.448   4.332  0.3842 -2.0595 -0.8132
12030TIP3   OH257580   5.432   4.406   2.793  0.1295  0.0072  0.1124
12030TIP3    H157581   5.476   4.415   2.708  2.0344 -2.1425  0.7746
12030TIP3    H257582   5.345   4.374   2.771  0.2425  0.4247 -1.0546
12031TIP3   OH257583   4.608   4.001  16.118 -0.0603 -0.0761  0.7021
12031TIP3    H157584   4.655   3.984  16.200  0.6468  0.5277  0.4292
12031TIP3    H257585   4.666   3.968  16.050 -0.2651  0.2188  0.3874
12032TIP3   OH257586   0.140   0.089   4.169 -0.4691 -0.7383 -0.1163
12032TIP3    H157587   0.208   0.081   4.236  0.4003 -0.4548 -0.9599
12032TIP3    H257588   0.067   0.037   4.204 -0.2835 -0.0846  1.3525
12033TIP3   OH257589   6.841   4.616   6.637  0.5017 -0.7918  0.2890
12033TIP3    H157590   6.933   4.591   6.627  1.2243  2.1195 -1.5704
12033TIP3    H257591   6.825   4.613   6.731  1.9523 -2.9141  0.5348
12034TIP3   OH257592   1.564   3.688  15.690  0.2554 -0.1535  0.1492
12034TIP3    H157593   1.549   3.658  15.601  0.1362 -1.3825  0.5620
12034TIP3    H257594   1.652   3.726  15.688  0.0794  0.2357 -0.5730
12035TIP3   OH257595   1.230   5.909   5.629  0.0205 -0.3638  0.6457
12035TIP3    H157596   1.294   5.892   5.559  0.2637  0.1754  0.7366
12035TIP3    H257597   1.145   5.890   5.588 -0.0243  2.0229 -0.4968
12036TIP3   OH257598   3.712   2.151   0.849  0.3694  0.1515 -0.2793
12036TIP3    H157599   3.774   2.151   0.776 -0.4343 -0.0833 -0.9719
12036TIP3    H257600   3.626   2.145   0.808 -0.1260  0.5490  0.6674
12037TIP3   OH257601   6.766   1.541   4.467 -0.2265 -0.9084  0.0745
12037TIP3    H157602   6.774   1.599   4.543  2.2247 -0.9602 -0.0862
12037TIP3    H257603   6.672   1.540   4.449 -0.5206  1.9901  0.8693
12038TIP3   OH257604   2.505   6.207   2.506  0.8912 -0.2167 -0.0101
12038TIP3    H157605   2.456   6.277   2.463  1.6902 -0.3844 -1.2555
12038TIP3    H257606   2.465   6.126   2.474  1.2190 -0.3388 -0.1212
12039TIP3   OH257607   0.216   1.885   2.465  0.0447  0.1718 -0.2999
12039TIP3    H157608   0.223   1.850   2.376 -0.5487  0.6928 -0.5574
12039TIP3    H257609   0.229   1.809   2.522  0.6077 -0.1284 -0.8283
12040TIP3   OH257610   5.883   6.276   5.312 -0.0515 -0.1089 -0.0431
12040TIP3    H157611   5.896   6.354   5.257  1.4317  1.4015  2.2651
12040TIP3    H257612   5.791   6.255   5.302  0.1351  0.0802 -3.0363
12041TIP3   OH257613   1.629   4.554  13.696 -0.1075  0.1179  0.1386
12041TIP3    H157614   1.724   4.558  13.689 -0.0922  1.8428  0.8892
12041TIP3    H257615   1.600   4.645  13.691 -1.4985 -0.0986  2.6047
12042TIP3   OH257616   1.477   3.704   5.854 -0.6194  0.0045 -0.6482
12042TIP3    H157617   1.432   3.781   5.888  0.3684  0.0107  0.7224
12042TIP3    H257618   1.570   3.726   5.857 -0.2575 -1.4748  0.4661
12043TIP3   OH257619   4.869   5.452  14.949 -0.1654 -0.1741 -0.1383
12043TIP3    H157620   4.858   5.359  14.928 -0.5523 -0.0435 -0.5238
12043TIP3    H257621   4.951   5.455  15.000 -0.4175 -0.7887  0.3194
12044TIP3   OH257622   3.292   5.354  14.812 -0.0785 -0.3516  0.6513
12044TIP3    H157623   3.331   5.329  14.729  1.0563  0.2761  0.9718
12044TIP3    H257624   3.211   5.400  14.788  0.6406  0.5365 -0.1551
12045TIP3   OH257625   3.707   1.860  10.677  0.3792  0.2219 -0.8279
12045TIP3    H157626   3.680   1.775  10.643 -0.2959 -0.1369  0.5034
12045TIP3    H257627   3.629   1.916  10.668 -1.7228 -1.2083  4.3498
12046TIP3   OH257628   0.654   1.931   2.336  0.4375  0.0005 -0.3620
12046TIP3    H157629   0.627   1.960   2.249 -0.5141 -0.4624 -0.2346
12046TIP3    H257630   0.682   1.841   2.324 -1.4940 -0.7073  0.1069
12047TIP3   OH257631   6.020   3.328  11.274  0.2078  0.0110  0.1238
12047TIP3    H157632   5.991   3.282  11.353  1.2943 -1.7081 -0.4223
12047TIP3    H257633   5.940   3.343  11.224 -0.0866 -2.6406 -0.3361
12048TIP3   OH257634   2.843   0.082  11.862  0.5769 -0.2572 -0.7068
12048TIP3    H157635   2.822   0.175  11.860  0.6998 -0.2329 -2.6248
12048TIP3    H257636   2.785   0.046  11.930 -1.3503  0.8081 -1.6890
12049TIP3   OH257637   0.752   3.767  15.981 -0.0307  0.2564 -0.1856
12049TIP3    H157638   0.691   3.745  16.051  0.8391  1.9569  1.1607
12049TIP3    H257639   0.707   3.738  15.901 -1.4187 -0.9515  0.9635
12050TIP3   OH257640   3.592   5.039  14.330 -0.3062  0.3438  0.2136
12050TIP3    H157641   3.534   5.070  14.260 -1.4368 -0.5477  0.7097
12050TIP3    H257642   3.545   4.964  14.367  0.3759  0.6521  1.7707
12051TIP3   OH257643   2.956   2.217  14.402 -0.2940 -1.1733  0.9708
12051TIP3    H157644   3.010   2.283  14.448  0.6163 -1.1770 -0.0475
12051TIP3    H257645   3.019   2.152  14.371 -0.4802  0.0199 -2.3306
12052TIP3   OH257646   5.616   1.249  14.308 -0.4247 -0.5018 -0.0956
12052TIP3    H157647   5.657   1.313  14.367 -1.6894 -0.8122  1.1863
12052TIP3    H257648   5.642   1.164  14.344  0.0100 -0.7177 -0.8945
12053TIP3   OH257649   2.775   4.818  12.007  0.4845 -0.3647  0.3201
12053TIP3    H157650   2.833   4.887  11.977  0.3439 -0.1414  0.5566
12053TIP3    H257651   2.831   4.760  12.059  0.6777 -0.6264 -0.1738
12054TIP3   OH257652   5.801   4.457  16.758  0.5178 -0.1560 -0.4745
12054TIP3    H157653   5.767   4.438  16.670 -0.2840 -0.2946 -0.1376
12054TIP3    H257654   5.876   4.398  16.767  1.2156  0.5555 -1.4365
12055TIP3   OH257655   2.968   6.519   3.599 -0.5938 -0.3324 -0.1186
12055TIP3    H157656   2.877   6.489   3.603 -0.6266 -0.1857  0.3446
12055TIP3    H257657   2.989   6.519   3.506 -1.0096 -0.5441 -0.2163
12056TIP3   OH257658   3.300   4.304  11.446 -0.0452  0.1656  0.2511
12056TIP3    H157659   3.206   4.294  11.432 -0.0767  3.2180 -3.0511
12056TIP3    H257660   3.308   4.325  11.540 -2.7691  0.8396  0.4085
12057TIP3   OH257661   1.599   3.999   5.693 -0.2851 -0.7964 -0.2986
12057TIP3    H157662   1.505   4.006   5.712 -0.2752 -0.4427 -0.3833
12057TIP3    H257663   1.603   3.947   5.613 -0.3846 -1.2693  0.0013
12058TIP3   OH257664   3.479   4.569  16.135 -0.1134 -0.2465  0.2692
12058TIP3    H157665   3.431   4.572  16.052 -0.3443  0.3194  0.4200
12058TIP3    H257666   3.410   4.560  16.201  0.1118 -1.4283  0.3565
12059TIP3   OH257667   4.674   3.139   4.611 -0.0055  0.1533 -0.0310
12059TIP3    H157668   4.715   3.110   4.530  0.3742  2.8380 -0.8961
12059TIP3    H257669   4.679   3.063   4.669  1.3713 -1.2683 -1.8896
12060TIP3   OH257670   5.321   2.380  14.402 -0.2813 -0.6924 -0.1815
12060TIP3    H157671   5.387   2.399  14.469 -0.2849 -0.4338 -0.2493
12060TIP3    H257672   5.267   2.459  14.398  0.1903 -0.4004 -1.0382
12061TIP3   OH257673   5.572   4.324   3.873  0.2904  0.6022  0.3658
12061TIP3    H157674   5.590   4.336   3.779  1.0217  2.0099  0.6592
12061TIP3    H257675   5.658   4.323   3.914 -0.0376  0.2903  1.0659
12062TIP3   OH257676   5.384   3.758  12.654  0.2819 -0.0488 -0.4510
12062TIP3    H157677   5.383   3.678  12.602 -1.6330 -0.3350 -0.0583
12062TIP3    H257678   5.333   3.737  12.732  1.3304  1.0093  0.5698
12063TIP3   OH257679   0.972   5.846  15.925  0.3225 -0.1058 -0.2324
12063TIP3    H157680   0.940   5.870  15.838 -0.6210 -0.7329 -0.0722
12063TIP3    H257681   0.898   5.801  15.966  1.3518 -1.4308  0.2298
12064TIP3   OH257682   4.436   2.816  12.717 -0.2042  0.2113  0.0306
12064TIP3    H157683   4.444   2.903  12.679  0.6706  0.1038 -0.0621
12064TIP3    H257684   4.488   2.820  12.797  0.5336 -0.4536 -0.3979
12065TIP3   OH257685   5.358   6.335   1.522  0.4262 -0.5714  0.4924
12065TIP3    H157686   5.337   6.427   1.542 -0.6462 -0.3375 -1.4518
12065TIP3    H257687   5.439   6.340   1.471  1.1556 -0.8454  1.6037
12066TIP3   OH257688   2.333   3.898   1.940 -0.1337 -0.6382  0.5696
12066TIP3    H157689   2.351   3.991   1.924 -1.1273 -0.5455 -0.1329
12066TIP3    H257690   2.299   3.866   1.857  1.4284 -1.9829  0.4077
12067TIP3   OH257691   4.766   4.769   0.725 -0.2594 -0.5758  0.7810
12067TIP3    H157692   4.731   4.790   0.812 -0.6536  0.3353  0.4166
12067TIP3    H257693   4.710   4.698   0.693 -1.3777  0.3926  0.4948
12068TIP3   OH257694   0.581   3.170  12.815 -0.5959  0.3389  0.1684
12068TIP3    H157695   0.598   3.079  12.841 -0.9285  0.3693  0.5062
12068TIP3    H257696   0.638   3.184  12.739 -0.0797  0.0459  0.4937
12069TIP3   OH257697   6.818   2.072   0.553 -0.4518 -0.1735 -0.2183
12069TIP3    H157698   6.771   2.155   0.550 -0.9135 -0.4520 -0.9244
12069TIP3    H257699   6.783   2.027   0.629 -0.4988  0.1025 -0.0748
12070TIP3   OH257700   4.728   6.721  16.676 -0.3854  0.3560  0.2588
12070TIP3    H157701   4.709   6.811  16.703 -1.9651  0.2404 -0.3610
12070TIP3    H257702   4.659   6.700  16.613 -1.4459 -2.0779  2.0915
12071TIP3   OH257703   0.745   1.409   3.676 -0.4274 -0.9811 -0.0042
12071TIP3    H157704   0.652   1.392   3.662 -0.5736  0.7978 -1.5722
12071TIP3    H257705   0.762   1.378   3.765 -3.0424  0.5634  1.1374
12072TIP3   OH257706   5.084   1.626  12.791 -0.0992 -0.4649  0.3942
12072TIP3    H157707   5.146   1.565  12.750  0.7658  0.5267  0.1769
12072TIP3    H257708   4.998   1.594  12.765  0.4059  0.0451 -2.1339
12073TIP3   OH257709   2.911   3.091   0.433  0.5865 -0.3435  0.9371
12073TIP3    H157710   2.962   3.160   0.390 -2.2999  0.7784 -1.0087
12073TIP3    H257711   2.925   3.013   0.380  0.3607 -0.0593  0.4538
12074TIP3   OH257712   1.822   6.381   2.771 -0.1752 -0.0029  0.1386
12074TIP3    H157713   1.807   6.373   2.865 -0.4273 -0.0043  0.0992
12074TIP3    H257714   1.774   6.460   2.746 -0.7838 -0.4602 -0.1358
12075TIP3   OH257715   1.313   1.796  11.144  0.1847 -0.0331  0.2833
12075TIP3    H157716   1.388   1.755  11.100  1.2185  0.8251  1.2097
12075TIP3    H257717   1.274   1.851  11.076  0.6592 -0.1332 -0.0818
12076TIP3   OH257718   0.681   0.131  16.330  0.0631 -0.1742  0.4067
12076TIP3    H157719   0.728   0.125  16.247  0.7757  0.5559  0.7406
12076TIP3    H257720   0.643   0.219  16.329  0.4339 -0.0006  1.0283
12077TIP3   OH257721   4.436   2.184  11.959  0.6454 -0.1121  0.3187
12077TIP3    H157722   4.373   2.240  11.913  1.1730 -0.1327 -0.4458
12077TIP3    H257723   4.468   2.123  11.892 -0.6857 -2.0525  1.3710
12078TIP3   OH257724   5.444   3.546   0.598 -0.0809  0.1249 -0.2063
12078TIP3    H157725   5.409   3.465   0.562 -0.7042  0.1938  0.2157
12078TIP3    H257726   5.385   3.614   0.565 -0.6474  0.1908  0.8912
12079TIP3   OH257727   4.965   2.157  10.879  0.1352 -0.8353 -0.1591
12079TIP3    H157728   4.905   2.161  10.954  1.1399 -0.3840  0.6441
12079TIP3    H257729   5.016   2.237  10.886 -0.5942 -0.1375 -2.0743
12080TIP3   OH257730   1.247   3.256   3.526  0.2254 -0.0710  0.4538
12080TIP3    H157731   1.160   3.236   3.562  0.4502 -0.1250  0.9690
12080TIP3    H257732   1.270   3.180   3.474 -0.1762  0.0790  0.0484
12081TIP3   OH257733   5.427   0.937   0.709  0.3382  1.1255  0.0064
12081TIP3    H157734   5.516   0.903   0.700 -0.7690 -2.6276  1.2518
12081TIP3    H257735   5.432   0.998   0.782  2.0234  1.6980 -0.5425
12082TIP3   OH257736   1.018   2.087   5.038  0.0048 -0.6318 -0.9515
12082TIP3    H157737   1.081   2.158   5.024 -2.1369  1.1167 -2.4649
12082TIP3    H257738   1.013   2.042   4.953 -1.3916 -0.1417 -1.1624
12083TIP3   OH257739   3.383   6.269   5.840 -0.6765  0.1152  0.3396
12083TIP3    H157740   3.410   6.349   5.795 -0.3695 -0.6171 -0.8314
12083TIP3    H257741   3.291   6.258   5.816 -1.3202  1.1601  2.1342
12084TIP3   OH257742   1.382   1.367  12.490  0.3181 -0.1031 -0.0861
12084TIP3    H157743   1.465   1.406  12.462  0.1774  1.3153  1.2750
12084TIP3    H257744   1.346   1.326  12.412  1.4937  0.7504 -1.1106
12085TIP3   OH257745   1.611   4.487   1.040  0.0346  0.5367  1.0195
12085TIP3    H157746   1.640   4.464   1.128  1.2299 -0.5903  0.3603
12085TIP3    H257747   1.681   4.542   1.005  1.7058 -2.4446 -0.6932
12086TIP3   OH257748   5.508   5.007  13.597  0.3806  0.5645 -0.4944
12086TIP3    H157749   5.507   4.924  13.549  1.3263 -1.0189  2.0487
12086TIP3    H257750   5.418   5.016  13.630  0.6750 -0.3377  0.5991
12087TIP3   OH257751   6.773   5.077   1.005 -0.1639  0.3028  0.8382
12087TIP3    H157752   6.766   5.168   1.035 -0.2910  0.1442  1.2935
12087TIP3    H257753   6.866   5.064   0.987 -0.2877  0.8521 -0.2684
12088TIP3   OH257754   5.961   5.033  16.561  0.0367  0.8121 -0.1551
12088TIP3    H157755   5.890   4.972  16.544  1.0648 -0.2024 -1.0621
12088TIP3    H257756   6.040   4.986  16.534  1.0161  2.0358  0.4401
12089TIP3   OH257757   6.832   4.387   5.327 -0.0768 -0.0848  0.1573
12089TIP3    H157758   6.772   4.405   5.399 -0.2209 -0.5262  0.1549
12089TIP3    H257759   6.832   4.291   5.320  0.1150 -0.0554 -0.2740
12090TIP3   OH257760   3.888   1.957  15.228 -0.3920  0.0400  0.3725
12090TIP3    H157761   3.959   2.018  15.207 -0.6954  0.3199  0.1579
12090TIP3    H257762   3.839   1.949  15.146 -0.9740  0.3202  0.6960
12091TIP3   OH257763   2.356   4.838  12.982  0.4345  0.2606 -1.1554
12091TIP3    H157764   2.375   4.830  12.889 -1.3082 -0.7795 -1.4840
12091TIP3    H257765   2.333   4.749  13.009  1.3041  0.4634  0.3840
12092TIP3   OH257766   0.092   4.540   5.764  0.7078 -1.0625  0.4009
12092TIP3    H157767   0.094   4.635   5.758  0.7277 -0.8538  2.7363
12092TIP3    H257768   0.002   4.516   5.740  0.9779 -0.5912 -1.1843
12093TIP3   OH257769   3.641   1.902  14.537  0.3073  0.0644 -0.3303
12093TIP3    H157770   3.717   1.844  14.532  0.2474 -0.0771  0.2979
12093TIP3    H257771   3.591   1.884  14.457  0.5712 -0.3472 -0.4064
12094TIP3   OH257772   0.128   6.125  15.583  0.2564  0.2226 -0.5497
12094TIP3    H157773   0.077   6.063  15.635  0.7278 -0.3929 -0.8146
12094TIP3    H257774   0.064   6.191  15.556 -0.0998  0.2718  0.3641
12095TIP3   OH257775   3.357   3.057   0.954  0.0214 -0.0175  0.0737
12095TIP3    H157776   3.380   3.106   0.875  0.2095  1.3078  0.9182
12095TIP3    H257777   3.264   3.039   0.945  0.4085 -1.6105 -1.3344
12096TIP3   OH257778   1.456   3.420   3.450  0.4298 -0.7643  0.2565
12096TIP3    H157779   1.520   3.356   3.418  0.2016 -0.8742  0.0171
12096TIP3    H257780   1.385   3.366   3.487  1.2514 -0.6548  2.1275
12097TIP3   OH257781   5.819   1.387  12.320 -0.1956  0.3679 -0.8147
12097TIP3    H157782   5.812   1.343  12.235 -1.0424 -1.1861  0.0053
12097TIP3    H257783   5.913   1.399  12.333  0.2615 -2.7656 -0.3935
12098TIP3   OH257784   3.023   2.866   3.728 -0.0168 -0.4150  0.1912
12098TIP3    H157785   3.066   2.780   3.729  2.0647  0.3892 -3.1351
12098TIP3    H257786   2.990   2.874   3.638 -1.5226  1.6686  0.8607
12099TIP3   OH257787   3.572   1.100   3.288  0.0473 -0.1079 -0.0519
12099TIP3    H157788   3.662   1.117   3.261 -0.3519  1.1149 -0.7058
12099TIP3    H257789   3.577   1.020   3.340  1.3212 -0.7779 -1.1314
12100TIP3   OH257790   2.104   4.652  10.510  0.2666  0.1064 -0.0029
12100TIP3    H157791   2.083   4.596  10.435  1.7366  0.8116 -1.0132
12100TIP3    H257792   2.146   4.593  10.572 -1.4040 -0.5847  0.5073
12101TIP3   OH257793   1.971   2.549  12.353 -0.6718 -0.0966  0.7509
12101TIP3    H157794   2.005   2.638  12.366 -3.3359  0.8835  1.8080
12101TIP3    H257795   1.983   2.532  12.260  0.8086  0.9424  0.7221
12102TIP3   OH257796   6.014   6.377   0.526  0.1468  0.1091 -0.1627
12102TIP3    H157797   6.025   6.444   0.458 -0.2185  1.0243  0.6616
12102TIP3    H257798   5.919   6.368   0.535  0.1724 -1.1492 -0.8481
12103TIP3   OH257799   5.858   2.670   4.424  0.1195  0.1885 -0.4374
12103TIP3    H157800   5.796   2.631   4.486  1.0424 -0.2245  0.2403
12103TIP3    H257801   5.898   2.743   4.472  0.4083  0.2413 -0.7527
12104TIP3   OH257802   3.939   5.820  12.393  0.2779 -0.1966 -0.4927
12104TIP3    H157803   3.883   5.887  12.352  0.7429  0.0376 -0.7584
12104TIP3    H257804   3.879   5.766  12.444 -0.5143 -1.1974 -2.3786
12105TIP3   OH257805   2.917   2.595   1.986 -0.1771  0.1546 -0.0961
12105TIP3    H157806   3.008   2.601   1.957 -0.7033  0.9696 -1.6932
12105TIP3    H257807   2.903   2.501   2.000  1.2184  0.1152  1.3477
12106TIP3   OH257808   5.852   0.140  16.290  0.2111 -0.2469  0.7661
12106TIP3    H157809   5.822   0.067  16.344  2.1809 -1.8593 -0.2002
12106TIP3    H257810   5.919   0.103  16.233 -0.3579  1.8215 -1.4359
12107TIP3   OH257811   4.097   6.534   2.147  0.5924 -0.3594 -0.1065
12107TIP3    H157812   4.054   6.618   2.134 -1.4585 -1.3283  0.1513
12107TIP3    H257813   4.176   6.539   2.092  0.3339  1.5632 -0.3697
12108TIP3   OH257814   4.751   4.397   2.621 -0.1700 -0.2666  0.0611
12108TIP3    H157815   4.723   4.315   2.582  3.1540 -1.4929 -0.0897
12108TIP3    H257816   4.764   4.377   2.714  1.5007 -0.2380 -0.1324
12109TIP3   OH257817   5.238   1.856  13.947 -0.1661  0.1799  0.5271
12109TIP3    H157818   5.222   1.803  14.025 -1.3361 -0.2975 -0.0023
12109TIP3    H257819   5.228   1.946  13.976 -3.2624 -0.0312  0.4623
12110TIP3   OH257820   2.971   3.804   3.889 -0.5103 -0.0053  0.6817
12110TIP3    H157821   3.009   3.752   3.960  1.1985  0.5954  0.2343
12110TIP3    H257822   2.903   3.856   3.932 -0.5607 -0.7834  1.5784
12111TIP3   OH257823   0.550   2.049   4.163 -0.2283 -0.0080 -0.1051
12111TIP3    H157824   0.567   2.011   4.249  0.1883  1.3962  0.4637
12111TIP3    H257825   0.556   2.144   4.177  4.0554  0.3170 -2.4873
12112TIP3   OH257826   2.400   5.379  14.352  0.0968 -0.9401  0.0505
12112TIP3    H157827   2.307   5.391  14.335 -0.5148 -0.4623  3.1733
12112TIP3    H257828   2.405   5.296  14.400  0.8823  0.1920  2.0618
12113TIP3   OH257829   4.382   1.414  12.859 -0.3599 -0.3693  0.2105
12113TIP3    H157830   4.327   1.433  12.782  1.4383  0.4761 -0.9403
12113TIP3    H257831   4.392   1.319  12.858  1.1579 -0.2682 -1.7983
12114TIP3   OH257832   3.182   3.425   5.039  1.1952  0.6107 -0.1702
12114TIP3    H157833   3.094   3.394   5.017  1.9269 -1.5249 -0.2285
12114TIP3    H257834   3.181   3.435   5.134  0.9240  0.5049 -0.1620
12115TIP3   OH257835   5.945   0.458   5.138  0.2384 -0.2010  0.2298
12115TIP3    H157836   5.851   0.468   5.155  0.2730 -0.4945  0.6001
12115TIP3    H257837   5.952   0.463   5.043 -0.2366 -0.8285  0.1549
12116TIP3   OH257838   2.718   0.462   6.100  0.4450 -0.0118  0.2965
12116TIP3    H157839   2.627   0.492   6.109  0.5972  0.9656 -1.0990
12116TIP3    H257840   2.733   0.408   6.178 -1.3070 -0.1495  0.5815
12117TIP3   OH257841   1.930   5.588   5.561  0.0042  0.0252  0.2841
12117TIP3    H157842   1.938   5.684   5.559  1.3448 -0.0534 -2.7764
12117TIP3    H257843   2.019   5.557   5.575  0.0274 -0.7570 -1.4350
12118TIP3   OH257844   5.319   2.871   0.645  0.1060  0.4412 -0.2594
12118TIP3    H157845   5.226   2.879   0.627  0.2575  0.3567 -1.1576
12118TIP3    H257846   5.361   2.891   0.561  0.9831  2.3057  0.5760
12119TIP3   OH257847   5.905   0.707  12.302 -0.2365 -0.0525  0.2384
12119TIP3    H157848   5.819   0.741  12.276 -0.3383 -0.6428 -0.2143
12119TIP3    H257849   5.913   0.729  12.395  0.1960  2.2456 -0.2900
12120TIP3   OH257850   6.325   6.433  11.923 -0.0407 -0.0796 -0.4746
12120TIP3    H157851   6.362   6.364  11.977 -0.3751  0.6149  0.6842
12120TIP3    H257852   6.310   6.506  11.984  0.4476  1.0715 -1.6731
12121TIP3   OH257853   2.299   1.094   2.542 -0.3696 -0.6681 -0.5587
12121TIP3    H157854   2.343   1.131   2.618 -1.6468 -0.6092  0.1762
12121TIP3    H257855   2.212   1.069   2.574 -1.9385  1.7288 -2.5168
12122TIP3   OH257856   3.795   5.071   4.120  0.1960 -0.5729  0.1626
12122TIP3    H157857   3.829   5.148   4.074 -0.1444 -1.0027 -0.8417
12122TIP3    H257858   3.866   5.007   4.116  0.3766 -0.4146  0.7526
12123TIP3   OH257859   4.637   1.960  14.083  0.0552 -0.0443  0.2089
12123TIP3    H157860   4.732   1.965  14.086  0.1529 -1.8862  1.4118
12123TIP3    H257861   4.616   1.969  13.990  1.3730  0.4153 -0.0720
12124TIP3   OH257862   2.758   0.823  12.764  0.0112 -0.1903  0.1691
12124TIP3    H157863   2.848   0.848  12.746 -0.3466  1.1682  0.2025
12124TIP3    H257864   2.726   0.785  12.682 -0.0517  1.3379 -0.5471
12125TIP3   OH257865   5.741   1.361  13.123 -0.5972  0.5874  0.5138
12125TIP3    H157866   5.663   1.363  13.179 -1.8815 -0.2646 -1.1645
12125TIP3    H257867   5.781   1.276  13.141 -1.1127  0.2357  0.0237
12126TIP3   OH257868   3.344   0.632  16.230 -0.5368 -0.3128 -0.2626
12126TIP3    H157869   3.328   0.620  16.137  1.5413  0.7026 -0.8076
12126TIP3    H257870   3.315   0.550  16.270 -2.8134 -0.2279 -1.5619
12127TIP3   OH257871   6.433   5.269   1.018 -0.1357  0.4894  0.2762
12127TIP3    H157872   6.424   5.269   1.113 -1.9418 -0.5528  0.1619
12127TIP3    H257873   6.356   5.221   0.987 -0.0543  1.5516 -1.7536
12128TIP3   OH257874   1.543   2.275  12.497 -1.0635 -0.2535 -0.8971
12128TIP3    H157875   1.556   2.357  12.449  0.6642 -0.1823 -0.3861
12128TIP3    H257876   1.474   2.294  12.560 -1.1882  0.5911 -1.2815
12129TIP3   OH257877   3.101   6.519   3.849  0.2358  0.0766 -0.3423
12129TIP3    H157878   3.067   6.525   3.760 -1.2026 -0.9726  0.0899
12129TIP3    H257879   3.176   6.578   3.850  1.3601 -1.1511 -2.7158
12130TIP3   OH257880   6.373   4.027   0.339 -0.2587  0.1732 -0.0312
12130TIP3    H157881   6.325   3.989   0.266 -1.5518  0.7532  0.4947
12130TIP3    H257882   6.344   4.119   0.342  0.9519  0.5705  0.2481
12131TIP3   OH257883   5.118   2.525   4.526 -0.2926 -0.3422 -0.1664
12131TIP3    H157884   5.073   2.548   4.444  0.9369  0.0905 -0.7473
12131TIP3    H257885   5.096   2.433   4.540  0.8359 -0.9462 -1.9315
12132TIP3   OH257886   6.639   3.910  11.338  0.1229 -0.2293 -0.0292
12132TIP3    H157887   6.723   3.895  11.295  0.6349 -1.3203  1.2623
12132TIP3    H257888   6.589   3.963  11.276  1.3965 -0.3922 -1.2475
12133TIP3   OH257889   2.278   6.009   4.492 -0.3809 -0.0799  0.4364
12133TIP3    H157890   2.264   6.090   4.540 -0.2191 -0.4618  1.1458
12133TIP3    H257891   2.369   5.986   4.510 -0.2798 -0.1506 -0.1747
12134TIP3   OH257892   2.411   5.034  11.888 -0.4128  0.2286  0.4683
12134TIP3    H157893   2.456   4.973  11.829 -0.3137 -0.7787  1.5512
12134TIP3    H257894   2.468   5.111  11.891  1.3063 -1.0248  1.8290
12135TIP3   OH257895   0.158   4.633   2.844 -0.7596 -0.0099 -0.4229
12135TIP3    H157896   0.069   4.656   2.872 -1.0181 -1.8669  0.4920
12135TIP3    H257897   0.163   4.539   2.860  0.8504 -0.2263 -1.9864
12136TIP3   OH257898   0.774   6.586   4.414  0.1375 -0.3275  0.1114
12136TIP3    H157899   0.728   6.648   4.471 -0.5431  0.2802 -1.0617
12136TIP3    H257900   0.866   6.593   4.439 -0.2911 -1.0954  2.0754
12137TIP3   OH257901   6.448   6.428   5.519 -0.0499  0.0150  0.3094
12137TIP3    H157902   6.372   6.373   5.539  1.3861 -2.5271 -0.7380
12137TIP3    H257903   6.490   6.443   5.604  0.2774 -1.7653  0.5085
12138TIP3   OH257904   1.730   2.432  12.786 -0.1417  0.6355 -0.2050
12138TIP3    H157905   1.637   2.421  12.807 -0.2510 -0.3290 -1.0947
12138TIP3    H257906   1.730   2.471  12.698  0.2278 -2.0406 -1.5065
12139TIP3   OH257907   5.232   6.390  12.443 -0.3496 -0.6815 -0.1037
12139TIP3    H157908   5.158   6.421  12.494  0.9987 -0.7283  2.0400
12139TIP3    H257909   5.273   6.324  12.498  1.4428 -0.4590 -1.0800
12140TIP3   OH257910   0.305   3.357   5.590  0.0057 -0.3460  0.2646
12140TIP3    H157911   0.328   3.288   5.527 -0.2703  0.3457 -0.6138
12140TIP3    H257912   0.315   3.438   5.541 -0.0348  0.2237  1.1841
12141TIP3   OH257913   6.483   2.912   4.783  0.1076 -0.0500 -0.1914
12141TIP3    H157914   6.470   2.835   4.727  3.1885 -1.5215  0.8618
12141TIP3    H257915   6.569   2.946   4.758  0.1894  1.1397  1.5125
12142TIP3   OH257916   3.457   0.716   3.717 -0.0221 -0.3091 -0.5784
12142TIP3    H157917   3.536   0.663   3.715  1.1406  1.3562 -1.7226
12142TIP3    H257918   3.485   0.801   3.751 -1.4595  0.1277 -0.3871
12143TIP3   OH257919   0.969   5.116   4.773  0.1636 -0.5516  0.5765
12143TIP3    H157920   1.034   5.045   4.777  0.5223 -0.2888 -0.3875
12143TIP3    H257921   0.951   5.127   4.680 -0.4733  0.1082  0.7697
12144TIP3   OH257922   1.713   5.909  16.695  0.0591  0.3603 -0.2881
12144TIP3    H157923   1.771   5.838  16.670  0.6664 -0.1044  2.1894
12144TIP3    H257924   1.766   5.966  16.750 -1.5801  0.2746  1.5112
12145TIP3   OH257925   0.114   4.151  13.109 -0.2063  0.3309 -0.4385
12145TIP3    H157926   0.096   4.085  13.175  1.2498 -0.2630 -0.6049
12145TIP3    H257927   0.028   4.173  13.073 -0.6926 -1.7273 -0.6304
12146TIP3   OH257928   0.242   1.083  13.983  0.0625  0.8073 -0.3793
12146TIP3    H157929   0.247   1.114  14.074  0.7913  1.0250 -0.4856
12146TIP3    H257930   0.156   1.110  13.953 -0.7381 -0.4826  0.6764
12147TIP3   OH257931   5.401   6.785  11.078  0.9005 -0.4209 -0.2766
12147TIP3    H157932   5.491   6.756  11.093  1.5433  1.1805 -0.8184
12147TIP3    H257933   5.387   6.773  10.984  0.9569  0.3710 -0.3941
12148TIP3   OH257934   2.776   2.141  13.769 -0.0077  0.1224  0.0129
12148TIP3    H157935   2.773   2.237  13.779  2.4840  0.3604 -0.8701
12148TIP3    H257936   2.869   2.119  13.779 -0.4816 -2.1751 -0.2113
12149TIP3   OH257937   1.966   1.465   6.133  0.2061  0.4583 -0.0428
12149TIP3    H157938   2.035   1.418   6.179  0.9766  0.6411 -0.9745
12149TIP3    H257939   1.961   1.550   6.177 -0.9776 -0.3173  1.4443
12150TIP3   OH257940   2.159   5.602  12.320  0.1586 -0.4534  0.4027
12150TIP3    H157941   2.161   5.507  12.318 -2.1487 -0.6370  2.5236
12150TIP3    H257942   2.140   5.628  12.229 -0.5288 -2.0726  0.0508
12151TIP3   OH257943   1.596   1.897   1.473 -0.3557  0.5772 -0.0714
12151TIP3    H157944   1.655   1.833   1.433 -0.6743  1.6604 -2.4070
12151TIP3    H257945   1.514   1.887   1.426 -0.9992  1.4210  0.8365
12152TIP3   OH257946   6.578   2.251   5.175  0.2650  0.4786 -0.2569
12152TIP3    H157947   6.528   2.188   5.123  0.7419 -1.1686  1.1464
12152TIP3    H257948   6.526   2.331   5.173 -1.3478 -0.5341 -0.5733
12153TIP3   OH257949   0.490   0.733   3.005  0.4131  0.4143 -0.0081
12153TIP3    H157950   0.579   0.702   2.991  0.8156  1.1457  0.7609
12153TIP3    H257951   0.434   0.657   2.991  1.1760 -0.0932 -0.3136
12154TIP3   OH257952   4.663   3.434   3.208  0.2082 -0.1687 -0.3782
12154TIP3    H157953   4.687   3.451   3.117  1.8495  0.7083  0.1934
12154TIP3    H257954   4.608   3.355   3.203  0.0413  0.0178 -2.1408
12155TIP3   OH257955   3.763   6.543   3.298 -0.3435 -0.2082  0.1856
12155TIP3    H157956   3.756   6.615   3.362 -1.0883  2.1306 -2.3081
12155TIP3    H257957   3.689   6.486   3.319 -0.7151  0.6120  1.2548
12156TIP3   OH257958   4.882   4.533   3.804  0.5361  0.0789 -0.2349
12156TIP3    H157959   4.921   4.448   3.826 -0.9790 -0.4706  0.4514
12156TIP3    H257960   4.819   4.512   3.734 -0.1208  0.5644  0.2063
12157TIP3   OH257961   1.227   1.932  10.872 -0.2050 -0.3644 -0.1804
12157TIP3    H157962   1.234   1.883  10.790 -0.9281 -0.6769 -0.0665
12157TIP3    H257963   1.300   1.993  10.870  0.6628 -1.3780 -0.3755
12158TIP3   OH257964   0.243   3.639   0.505 -0.3629 -0.4667  0.3513
12158TIP3    H157965   0.278   3.719   0.545 -0.6026  1.9435 -3.6804
12158TIP3    H257966   0.317   3.579   0.499  0.6351  0.7092  0.6637
12159TIP3   OH257967   0.838   2.767   0.478  0.1317  0.1467  0.0744
12159TIP3    H157968   0.894   2.692   0.496  2.2549  1.0945 -2.0728
12159TIP3    H257969   0.846   2.781   0.384 -2.7080  1.1913 -0.1150
12160TIP3   OH257970   6.323   4.056  15.782  0.1706 -0.2816 -0.0320
12160TIP3    H157971   6.243   4.017  15.816 -0.9350  1.8044 -0.1153
12160TIP3    H257972   6.371   3.982  15.743 -1.9292 -1.4935 -0.4321
12161TIP3   OH257973   4.890   0.244  16.497  0.4053 -0.0248 -0.0812
12161TIP3    H157974   4.799   0.231  16.469 -0.0560  0.8744  0.9149
12161TIP3    H257975   4.938   0.257  16.415  0.0163 -2.4626 -0.7704
12162TIP3   OH257976   6.369   0.002  14.778 -0.3840 -0.0410  0.3775
12162TIP3    H157977   6.337  -0.075  14.826 -1.8952 -0.1051 -0.6779
12162TIP3    H257978   6.363   0.074  14.841 -0.2836 -0.5134  0.9410
12163TIP3   OH257979   1.386   0.361  16.097 -0.2570 -0.4093  0.6210
12163TIP3    H157980   1.427   0.442  16.129  0.8659 -0.7260  0.0160
12163TIP3    H257981   1.458   0.311  16.059 -1.0433 -1.4447  0.4621
12164TIP3   OH257982   6.390   3.038   2.571 -0.0979 -0.0890  0.8047
12164TIP3    H157983   6.461   3.103   2.570 -0.6293  0.5123 -0.9044
12164TIP3    H257984   6.433   2.955   2.589  1.3380 -0.0103 -1.8795
12165TIP3   OH257985   2.862   2.773   2.196 -0.3018  0.6259 -0.1886
12165TIP3    H157986   2.947   2.781   2.239 -0.3299  1.4668 -0.2735
12165TIP3    H257987   2.882   2.735   2.110 -0.2229 -0.8652  0.4442
12166TIP3   OH257988   0.835   1.559   2.067 -1.0883 -0.0932 -0.1044
12166TIP3    H157989   0.744   1.540   2.043 -1.0240  0.5642 -0.9464
12166TIP3    H257990   0.852   1.644   2.027 -0.2627  0.0365  0.5029
12167TIP3   OH257991   4.548   2.615   4.638 -0.0938  0.3449  0.2122
12167TIP3    H157992   4.454   2.601   4.650  0.0751 -0.3471  0.7347
12167TIP3    H257993   4.554   2.704   4.602 -0.8554  1.0043  1.6178
12168TIP3   OH257994   4.071   5.626  14.431  0.2436 -0.5927 -0.3868
12168TIP3    H157995   4.045   5.538  14.406  1.8087 -0.8756 -1.1493
12168TIP3    H257996   4.100   5.618  14.522 -1.4655 -0.4308  0.2042
12169TIP3   OH257997   6.689   6.689  17.047 -0.1416  0.4440 -0.0071
12169TIP3    H157998   6.607   6.641  17.038  0.5895 -0.8528 -0.0308
12169TIP3    H257999   6.733   6.646  17.120  0.6400  0.9465 -0.1729
12170TIP3   OH258000   0.393   1.677  16.583  0.2515  0.6513  0.0564
12170TIP3    H158001   0.401   1.631  16.499  1.3081 -0.5277  0.7799
12170TIP3    H258002   0.300   1.669  16.605  0.2891 -0.5279 -0.1738
12171TIP3   OH258003   5.784   5.107  12.097 -0.5130 -0.3006 -0.4886
12171TIP3    H158004   5.697   5.147  12.092 -0.4571  0.0362  0.8235
12171TIP3    H258005   5.844   5.181  12.088 -0.3354 -0.5890 -1.8620
12172TIP3   OH258006   3.119   5.915  13.336 -0.3151  0.7184  0.1831
12172TIP3    H158007   3.147   5.998  13.297  0.2584  0.5200  0.1577
12172TIP3    H258008   3.088   5.863  13.262 -0.0768  0.6787  0.1087
12173TIP3   OH258009   2.846   0.787   2.306  0.5884 -0.3098  0.0600
12173TIP3    H158010   2.876   0.787   2.397 -0.2240  0.3640  0.3391
12173TIP3    H258011   2.926   0.802   2.255  0.9943 -0.3035  0.6810
12174TIP3   OH258012   2.219   4.201   5.070  0.4319  0.6192 -0.4310
12174TIP3    H158013   2.194   4.291   5.051 -0.8286  0.5498  0.7345
12174TIP3    H258014   2.145   4.148   5.041  1.0028 -0.0153 -0.7703
12175TIP3   OH258015   0.369   0.124   4.339  0.1320  0.0844 -0.1895
12175TIP3    H158016   0.439   0.127   4.274 -1.8907  0.9357 -2.4975
12175TIP3    H258017   0.399   0.181   4.410  1.7669  0.4140 -1.1004
12176TIP3   OH258018   1.569   6.737   6.744  0.4104 -0.1384  0.7365
12176TIP3    H158019   1.646   6.794   6.749  0.4876 -0.0928 -0.6568
12176TIP3    H258020   1.567   6.707   6.653 -1.2510 -0.1135  0.7446
12177TIP3   OH258021   2.095   2.578   2.213 -0.0381  0.1008 -0.3476
12177TIP3    H158022   2.168   2.553   2.157 -0.6065 -0.1758 -0.9756
12177TIP3    H258023   2.104   2.522   2.290  0.2066 -0.1795 -0.5771
12178TIP3   OH258024   2.175   1.440   5.304 -0.0106  0.2630 -0.0003
12178TIP3    H158025   2.157   1.488   5.385 -0.6223  0.2173 -0.1003
12178TIP3    H258026   2.107   1.372   5.302  0.0892  0.1762 -0.4777
12179TIP3   OH258027   3.221   2.983   3.392  0.7601  0.4149  0.5337
12179TIP3    H158028   3.294   2.994   3.331  0.8590 -1.2228  0.3072
12179TIP3    H258029   3.246   3.034   3.469  2.1865 -0.1523  0.4787
12180TIP3   OH258030   2.058   5.533  12.584  0.1218 -0.6260  0.0378
12180TIP3    H158031   2.141   5.533  12.631 -0.8097  2.1764  1.9410
12180TIP3    H258032   2.078   5.572  12.499  1.2201 -2.6832 -0.7017
12181TIP3   OH258033   5.596   2.886   3.526 -0.2152 -0.1165 -0.0797
12181TIP3    H158034   5.568   2.903   3.616  0.3169 -1.7031  0.4215
12181TIP3    H258035   5.582   2.969   3.481  1.4087  1.3857  1.9289
12182TIP3   OH258036   1.726   6.011   2.946  0.1288  0.3324 -0.3213
12182TIP3    H158037   1.658   5.996   2.880  0.8244 -0.7652 -0.8127
12182TIP3    H258038   1.697   6.089   2.993 -1.8418 -0.4988 -0.0579
12183TIP3   OH258039   5.779   1.838   0.135  0.1988  0.1096 -0.7168
12183TIP3    H158040   5.865   1.877   0.154  0.3592 -0.2179 -0.7659
12183TIP3    H258041   5.717   1.910   0.147  0.1870 -0.2422  1.9188
12184TIP3   OH258042   5.561   6.134  16.614 -0.3220 -0.4503 -0.0410
12184TIP3    H158043   5.613   6.201  16.659  0.3129 -2.6615  2.8371
12184TIP3    H258044   5.619   6.102  16.545 -0.4210  1.4894 -1.0880
12185TIP3   OH258045   4.868   4.690   2.217  0.5426  0.7005 -0.1743
12185TIP3    H158046   4.857   4.642   2.135 -1.4211  1.1756 -0.2260
12185TIP3    H258047   4.831   4.633   2.284  1.5523  0.5933  0.3222
12186TIP3   OH258048   2.414   0.639  11.538  0.5420  0.3507 -0.0601
12186TIP3    H158049   2.414   0.708  11.472  0.7037 -0.8690 -1.3935
12186TIP3    H258050   2.347   0.665  11.601  0.8158  1.8622 -0.3632
12187TIP3   OH258051   6.746   0.216  13.721 -0.6406  0.2415  1.1606
12187TIP3    H158052   6.726   0.246  13.810 -2.0431 -0.7789  1.2296
12187TIP3    H258053   6.777   0.127  13.732 -1.5888 -0.1770  0.5894
12188TIP3   OH258054   0.733   3.745   3.655 -0.1306 -0.4041 -0.7330
12188TIP3    H158055   0.717   3.828   3.610 -0.3884  0.8953  1.5621
12188TIP3    H258056   0.753   3.771   3.745  1.0069 -2.7943 -0.2208
12189TIP3   OH258057   3.586   2.267  11.918 -0.3710 -0.1475  0.8540
12189TIP3    H158058   3.589   2.362  11.907  0.9009  0.0920  2.8261
12189TIP3    H258059   3.493   2.246  11.922 -0.6616  1.2291  1.9566
12190TIP3   OH258060   4.479   0.425   1.335  0.3174 -0.0668 -0.2972
12190TIP3    H158061   4.524   0.444   1.253  2.0597  1.0574  0.8416
12190TIP3    H258062   4.533   0.467   1.402 -0.3566 -1.9599  1.5631
12191TIP3   OH258063   2.259   1.696  16.964  0.4783  0.3131 -0.4276
12191TIP3    H158064   2.319   1.639  16.917 -0.4124 -0.9883 -0.0366
12191TIP3    H258065   2.180   1.643  16.978 -0.0896  1.3700  0.6285
12192TIP3   OH258066   5.924   6.840  11.049 -0.0960 -0.7829  0.2095
12192TIP3    H158067   6.014   6.819  11.073 -0.5760 -3.0934  0.1645
12192TIP3    H258068   5.931   6.870  10.958  1.0122  2.7808  1.2718
12193TIP3   OH258069   1.501   4.350  13.524 -0.1687 -0.1507 -0.0428
12193TIP3    H158070   1.534   4.388  13.606  0.1493 -0.6677  0.0746
12193TIP3    H258071   1.577   4.352  13.465 -0.5581  0.8007 -0.5473
12194TIP3   OH258072   5.889   3.855   2.688 -0.0082  0.5652  0.2897
12194TIP3    H158073   5.951   3.788   2.713 -0.3666  1.1498  2.9830
12194TIP3    H258074   5.942   3.933   2.672  0.2429  0.1291 -1.1169
12195TIP3   OH258075   6.744   0.099  10.985  0.1785  0.5661 -0.1176
12195TIP3    H158076   6.798   0.022  10.967 -0.1676  0.4150 -0.4981
12195TIP3    H258077   6.654   0.066  10.984  0.1297  0.4771  2.1436
12196TIP3   OH258078   6.760   3.856   3.377  0.7434 -0.0789 -0.1437
12196TIP3    H158079   6.711   3.829   3.454 -2.0367  0.6150 -1.5167
12196TIP3    H258080   6.825   3.787   3.364 -1.2335 -2.2232  0.6743
12197TIP3   OH258081   6.547   1.501   2.632 -0.2272 -0.3875  0.0439
12197TIP3    H158082   6.475   1.448   2.666 -0.4005  0.6303  1.3363
12197TIP3    H258083   6.530   1.589   2.664  0.0242  0.5061 -2.1043
12198TIP3   OH258084   6.065   1.708   4.823  0.1911  0.4141 -0.3869
12198TIP3    H158085   6.149   1.739   4.856 -0.5503  0.5707  1.4809
12198TIP3    H258086   6.042   1.770   4.753  1.0703  1.0879 -0.0963
12199TIP3   OH258087   0.127   2.600  11.294 -0.6313 -0.1586  0.1402
12199TIP3    H158088   0.094   2.664  11.357  1.5507 -0.3568  1.6328
12199TIP3    H258089   0.099   2.632  11.209 -1.5370  1.5119  1.0169
12200TIP3   OH258090   2.262   2.077   1.802  0.3217  0.2359  0.0451
12200TIP3    H158091   2.325   2.078   1.730  0.5538  1.2879  0.2438
12200TIP3    H258092   2.310   2.040   1.876 -0.3350 -2.2090 -0.6646
12201TIP3   OH258093   3.780   3.484  16.071 -0.2575  0.1021  0.1957
12201TIP3    H158094   3.853   3.536  16.105 -1.1315  1.8487 -0.4738
12201TIP3    H258095   3.821   3.419  16.014  0.9181 -0.3522  1.5145
12202TIP3   OH258096   2.420   4.959  14.907  0.0272 -0.3806 -0.4492
12202TIP3    H158097   2.326   4.961  14.928 -0.4119  0.9718 -2.3372
12202TIP3    H258098   2.438   5.045  14.869  1.8282 -0.9539 -0.9702
12203TIP3   OH258099   3.328   3.035  15.455  0.1428  0.9357  0.9278
12203TIP3    H158100   3.336   2.941  15.472 -0.5155  0.9896  1.5905
12203TIP3    H258101   3.418   3.067  15.460  0.5142  0.1805 -0.4002
12204TIP3   OH258102   6.264   6.748   6.051 -0.3335 -0.7505 -0.7083
12204TIP3    H158103   6.332   6.761   5.984 -0.5811  1.2412 -0.6496
12204TIP3    H258104   6.312   6.749   6.134 -0.3953  1.0202 -0.6417
12205TIP3   OH258105   3.438   3.264  15.745  0.5067  0.1308  0.3508
12205TIP3    H158106   3.354   3.275  15.789 -0.9486 -1.2247 -1.8477
12205TIP3    H258107   3.450   3.345  15.696  1.3572  1.0042  1.9457
12206TIP3   OH258108   2.598   3.854  14.372 -0.4038 -0.3074  0.8217
12206TIP3    H158109   2.661   3.924  14.393 -0.4008 -0.4301  1.2361
12206TIP3    H258110   2.626   3.822  14.286  0.0475 -0.3016  0.9603
12207TIP3   OH258111   1.283   5.260  15.768 -1.0743 -0.8486  0.0501
12207TIP3    H158112   1.291   5.168  15.741 -0.5638 -0.9277  0.4655
12207TIP3    H258113   1.214   5.295  15.711 -0.3604 -1.1327 -1.0289
12208TIP3   OH258114   6.401   2.837   5.042  0.1459 -0.5648 -0.8572
12208TIP3    H158115   6.311   2.806   5.054  0.0877 -0.2560 -0.4359
12208TIP3    H258116   6.406   2.863   4.950 -0.1116 -0.8492 -0.9530
12209TIP3   OH258117   4.270   3.120  15.117  0.0739  0.2832  0.1182
12209TIP3    H158118   4.343   3.060  15.110 -0.6051 -0.5252 -0.1955
12209TIP3    H258119   4.262   3.159  15.030 -0.9556 -0.9504 -0.3711
12210TIP3   OH258120   1.871   5.340  12.317 -0.3503  0.2112 -0.2731
12210TIP3    H158121   1.940   5.398  12.350 -0.9383  0.5224  0.4124
12210TIP3    H258122   1.904   5.310  12.232  1.6057 -1.3263  0.9329
12211TIP3   OH258123   4.313   2.652   0.930  0.4967 -0.0777  0.0189
12211TIP3    H158124   4.379   2.721   0.939  0.1742  0.0540  1.6408
12211TIP3    H258125   4.232   2.693   0.960 -0.4069 -0.1751 -2.1226
12212TIP3   OH258126   1.548   0.655  16.550  0.8128 -0.4824 -0.2691
12212TIP3    H158127   1.507   0.570  16.535 -0.8578  0.3108 -0.5021
12212TIP3    H258128   1.559   0.661  16.645 -1.7217  0.1262  0.0727
12213TIP3   OH258129   5.304   5.942  14.936  0.6260 -0.3238 -0.3305
12213TIP3    H158130   5.250   5.960  15.013  0.0944 -0.7434 -0.5978
12213TIP3    H258131   5.256   5.983  14.864  0.3905 -1.1404 -0.6480
12214TIP3   OH258132   0.226   3.641  15.862  0.1616  0.0986 -0.8653
12214TIP3    H158133   0.198   3.621  15.951 -2.2887  0.6624 -1.4193
12214TIP3    H258134   0.253   3.557  15.825 -3.3313 -1.1178 -1.0105
12215TIP3   OH258135   3.325   2.891  16.049  0.7324  0.1538  0.5935
12215TIP3    H158136   3.409   2.848  16.033 -0.2695 -1.5657 -0.3467
12215TIP3    H258137   3.341   2.950  16.122  2.3947 -1.2630  1.4310
12216TIP3   OH258138   6.095   2.184   0.252 -0.0403 -0.4497 -0.3072
12216TIP3    H158139   6.031   2.115   0.236  0.7058 -1.1456 -0.3925
12216TIP3    H258140   6.071   2.220   0.337 -0.5537 -0.6813 -0.3500
12217TIP3   OH258141   3.683   5.344  16.791  0.3932 -0.3321  0.1872
12217TIP3    H158142   3.684   5.431  16.831 -0.6547  0.4155 -1.2656
12217TIP3    H258143   3.775   5.322  16.778  0.6666  0.9079 -0.0938
12218TIP3   OH258144   3.245   0.793   2.399 -0.4056 -0.1146 -0.2074
12218TIP3    H158145   3.230   0.882   2.367  2.1704  0.4451 -0.0626
12218TIP3    H258146   3.285   0.747   2.325 -0.4684 -0.7642  0.1543
12219TIP3   OH258147   3.558   6.264  15.374 -0.0845  0.4124  0.3844
12219TIP3    H158148   3.571   6.236  15.464  2.3438  0.1243  0.0170
12219TIP3    H258149   3.590   6.191  15.321  1.7635  1.8934 -0.6465
12220TIP3   OH258150   6.643   4.846   0.377  0.6596  0.3318 -0.0773
12220TIP3    H158151   6.678   4.926   0.339  2.3398 -1.1756 -1.9462
12220TIP3    H258152   6.587   4.809   0.309  3.3234 -2.1720 -1.1109
12221TIP3   OH258153   1.965   3.853  14.521 -0.6109 -0.3830  0.0200
12221TIP3    H158154   1.943   3.818  14.435  0.3466 -1.0637  0.0403
12221TIP3    H258155   1.906   3.928  14.532  1.3131  1.7250 -2.5767
12222TIP3   OH258156   6.168   5.018  16.390  0.0261 -0.7225  0.7495
12222TIP3    H158157   6.111   5.052  16.321  1.7316 -0.0825 -0.3940
12222TIP3    H258158   6.210   5.096  16.427  0.8363 -1.2386  0.9431
12223TIP3   OH258159   5.817   6.667   0.309  0.3917  0.6230  0.1388
12223TIP3    H158160   5.894   6.664   0.252  0.5185 -0.1684  0.3343
12223TIP3    H258161   5.764   6.591   0.281 -1.4202  2.3562 -1.4956
12224TIP3   OH258162   2.411   6.604  15.028 -0.3657 -0.0545 -0.0783
12224TIP3    H158163   2.469   6.667  15.070  0.1048 -0.1692 -0.5413
12224TIP3    H258164   2.460   6.522  15.028  0.3612  0.2985 -2.2885
12225TIP3   OH258165   5.605   3.069  12.918 -0.2435  0.7731  0.1099
12225TIP3    H158166   5.606   3.110  12.831  1.5688  1.3898  0.3601
12225TIP3    H258167   5.671   3.000  12.912 -2.8438 -1.8495 -0.1132
12226TIP3   OH258168   1.703   2.952  15.274  0.1230 -0.2265  0.5679
12226TIP3    H158169   1.657   2.888  15.221 -0.7787 -0.5454  1.6901
12226TIP3    H258170   1.638   3.020  15.293  0.3948 -0.1494  1.2915
12227TIP3   OH258171   1.242   4.573  13.145  0.5096 -0.3295  0.5259
12227TIP3    H158172   1.218   4.660  13.114 -0.8150 -0.6251  0.6563
12227TIP3    H258173   1.303   4.539  13.080 -1.8662 -0.7787 -1.6262
12228TIP3   OH258174   5.275   1.103  11.930  0.3420 -0.0493  0.2981
12228TIP3    H158175   5.207   1.054  11.883 -2.2878  2.6100  0.9764
12228TIP3    H258176   5.296   1.049  12.006  0.7481 -1.9840 -1.1278
12229TIP3   OH258177   2.652   4.036  13.201 -0.0497 -0.0263 -0.4712
12229TIP3    H158178   2.603   3.958  13.227  1.2425 -0.2571  1.5410
12229TIP3    H258179   2.733   4.001  13.164 -0.4842  0.3723 -1.8584
12230TIP3   OH258180   6.321   2.408  15.137 -0.1460 -0.3554  0.4409
12230TIP3    H158181   6.357   2.473  15.198  0.1039 -0.0450 -0.0302
12230TIP3    H258182   6.381   2.333  15.144 -1.0071 -0.9699  1.7518
12231TIP3   OH258183   5.390   6.019  13.563  0.0064 -0.1713  0.1863
12231TIP3    H158184   5.430   5.933  13.554 -0.2134 -0.3203  0.6024
12231TIP3    H258185   5.366   6.024  13.656  0.2634  0.4418  0.2256
12232TIP3   OH258186   4.486   4.083  13.603  0.5897  0.4030  0.2073
12232TIP3    H158187   4.438   4.018  13.655 -0.9450  1.5474  0.2651
12232TIP3    H258188   4.539   4.130  13.667  0.2651  0.4542  0.4401
12233TIP3   OH258189   5.095   1.919  10.957  0.3568 -0.5093 -0.2696
12233TIP3    H158190   5.045   1.995  10.927 -0.5930 -0.3564  1.5433
12233TIP3    H258191   5.162   1.956  11.015  1.1728 -0.9211 -0.9166
12234TIP3   OH258192   2.234   4.265   2.934 -0.3301 -0.3479 -0.6513
12234TIP3    H158193   2.153   4.278   2.983 -0.8236  0.3176 -1.6322
12234TIP3    H258194   2.303   4.284   2.997 -0.9572  0.7779 -0.2811
12235TIP3   OH258195   1.935   1.637  11.855 -0.7229  0.4189 -0.2169
12235TIP3    H158196   1.855   1.627  11.803 -1.9204  0.2874  1.5451
12235TIP3    H258197   1.910   1.606  11.942  1.9280 -1.8348 -0.1413
12236TIP3   OH258198   6.198   6.212  14.468  0.4264 -0.2748  0.1743
12236TIP3    H158199   6.293   6.200  14.460  0.3817 -1.7355  1.3780
12236TIP3    H258200   6.161   6.151  14.405  0.2446  1.8895 -1.9488
12237TIP3   OH258201   4.957   4.012   1.390 -0.3616  0.0877 -0.5494
12237TIP3    H158202   4.991   4.041   1.306 -0.3015 -0.3519 -0.6825
12237TIP3    H258203   5.014   3.938   1.415  0.1709  0.7550  0.2942
12238TIP3   OH258204   5.205   5.514  16.727 -0.3451 -0.4330 -0.0828
12238TIP3    H158205   5.265   5.483  16.659  1.2278  0.4519  0.8441
12238TIP3    H258206   5.240   5.599  16.753 -1.2384 -0.4927  1.4422
12239TIP3   OH258207   4.128   1.497  14.613  0.5160 -0.6105  0.0288
12239TIP3    H158208   4.063   1.563  14.589  1.4277  0.2586 -0.1246
12239TIP3    H258209   4.078   1.431  14.660 -0.4172  0.2096  0.2325
12240TIP3   OH258210   2.619   2.528  15.590 -0.2382  0.3340  0.1538
12240TIP3    H158211   2.560   2.574  15.530  0.1672 -0.4474 -0.8817
12240TIP3    H258212   2.692   2.589  15.603 -0.4695  0.6266  0.0858
12241TIP3   OH258213   3.203   4.315  12.859  0.1914  0.0793  0.8579
12241TIP3    H158214   3.109   4.305  12.870  0.1975  0.1922  1.0226
12241TIP3    H258215   3.229   4.243  12.803 -0.2308  0.9347 -0.4752
12242TIP3   OH258216   0.923   2.597   1.782 -0.7147  0.3150  0.1245
12242TIP3    H158217   0.984   2.530   1.750 -1.2015  0.3833 -1.0212
12242TIP3    H258218   0.885   2.559   1.861  0.8267  0.2957  0.8810
12243TIP3   OH258219   4.999   4.045  12.624  0.0954  0.4798 -0.3456
12243TIP3    H158220   4.960   3.960  12.604 -0.7544  1.2235 -2.0929
12243TIP3    H258221   4.925   4.101  12.646  0.4983  1.0970 -0.5343
12244TIP3   OH258222   2.434   1.887   2.459  0.3763  0.0927  0.4761
12244TIP3    H158223   2.388   1.804   2.467 -1.4938  1.2002  2.6227
12244TIP3    H258224   2.514   1.867   2.412 -0.6110 -2.6542 -0.1802
12245TIP3   OH258225   0.596   6.572   5.281 -0.0227  0.5423  0.0469
12245TIP3    H158226   0.661   6.517   5.323  0.0693  0.5966 -0.0249
12245TIP3    H258227   0.644   6.650   5.254  0.2449 -0.1319 -1.4984
12246TIP3   OH258228   4.986   2.140  10.613  0.1398  0.0522 -0.2820
12246TIP3    H158229   5.025   2.055  10.590  1.2589  0.6046 -0.4912
12246TIP3    H258230   4.955   2.129  10.703  1.2107 -0.2610  0.0574
12247TIP3   OH258231   1.504   2.637  11.241 -0.0031  0.5255  0.4016
12247TIP3    H158232   1.512   2.543  11.259 -0.9895  0.4093  0.2620
12247TIP3    H258233   1.590   2.672  11.263  0.3253 -0.3825  0.6274
12248TIP3   OH258234   3.510   3.463   0.794  0.1113 -0.0216 -0.1185
12248TIP3    H158235   3.545   3.404   0.861 -1.6375 -0.3439  0.5595
12248TIP3    H258236   3.453   3.523   0.842  1.4794  1.9866 -0.8625
12249TIP3   OH258237   1.557   1.683  13.916  0.3901  0.4992 -0.7403
12249TIP3    H158238   1.579   1.605  13.966 -1.0058  1.5375  1.6750
12249TIP3    H258239   1.607   1.753  13.958 -2.2672  1.7383  0.6082
12250TIP3   OH258240   1.670   0.671  16.033  0.2477  0.1285  0.1299
12250TIP3    H158241   1.628   0.635  15.955 -0.4641  1.6282 -0.2057
12250TIP3    H258242   1.616   0.639  16.106 -0.8632  1.1258 -0.2218
12251TIP3   OH258243   6.412   4.288   3.202  0.3888 -0.3601  0.3142
12251TIP3    H158244   6.383   4.210   3.156 -0.2026  0.4498 -0.7148
12251TIP3    H258245   6.494   4.262   3.244  0.6020 -1.3088 -0.6552
12252TIP3   OH258246   6.207   2.070  16.492 -0.7870  0.1799 -0.8997
12252TIP3    H158247   6.242   1.996  16.542 -1.1114  1.2904  1.0346
12252TIP3    H258248   6.116   2.078  16.522 -1.1622  0.5472 -2.0897
12253TIP3   OH258249   0.600   6.159  16.877  0.1856  0.5190  0.0501
12253TIP3    H158250   0.600   6.096  16.949  0.6853  1.1707  0.6268
12253TIP3    H258251   0.522   6.136  16.825  0.4593 -0.6896  0.1357
12254TIP3   OH258252   0.300   0.241  14.430 -0.8128 -0.1424  0.3046
12254TIP3    H158253   0.274   0.248  14.339  0.2236 -1.3197 -0.1221
12254TIP3    H258254   0.224   0.204  14.475 -0.3374 -2.5511 -0.7101
12255TIP3   OH258255   6.195   3.549  14.993 -0.1146 -0.0398 -0.2507
12255TIP3    H158256   6.254   3.557  14.918 -0.9908  1.6400 -0.7942
12255TIP3    H258257   6.247   3.578  15.068  0.6748 -1.4586 -0.2226
12256TIP3   OH258258   4.696   3.699  11.258 -0.1816  0.1660 -0.5446
12256TIP3    H158259   4.684   3.718  11.165  3.0720  1.2304 -0.8776
12256TIP3    H258260   4.770   3.638  11.261 -1.7788 -1.8338  1.2912
12257TIP3   OH258261   2.079   6.783  11.635 -0.0081  0.1200  0.1482
12257TIP3    H158262   2.015   6.815  11.572  0.9294  1.4903 -0.1461
12257TIP3    H258263   2.135   6.858  11.653  0.5942 -0.6299  1.5655
12258TIP3   OH258264   2.209   3.397  16.783 -0.2440  0.0282 -0.2903
12258TIP3    H158265   2.151   3.471  16.766 -0.4199  0.7444  2.9147
12258TIP3    H258266   2.296   3.428  16.756 -0.6536  0.5100 -1.1154
12259TIP3   OH258267   3.231   4.572   0.901  0.2458 -0.3603  0.0838
12259TIP3    H158268   3.256   4.488   0.862 -1.6110 -1.0036  0.1604
12259TIP3    H258269   3.136   4.578   0.886 -0.2601  0.1604  2.9205
12260TIP3   OH258270   1.779   5.410  15.847 -0.0474  0.3581 -1.0952
12260TIP3    H158271   1.843   5.459  15.796 -0.3700  2.2916  0.2780
12260TIP3    H258272   1.736   5.475  15.902 -0.6090 -1.4225  0.7180
12261TIP3   OH258273   2.065   6.217  13.836 -0.1962 -0.1663  0.2440
12261TIP3    H158274   1.980   6.188  13.870  0.3036 -3.0893 -0.7149
12261TIP3    H258275   2.046   6.245  13.747 -0.2298 -0.4175  0.1702
12262TIP3   OH258276   1.168   4.334  10.155  0.4056 -0.7484  0.5590
12262TIP3    H158277   1.087   4.361  10.197  0.6125  1.4881 -0.3444
12262TIP3    H258278   1.169   4.380  10.071  2.6228 -0.6368  0.5674
12263TIP3   OH258279   3.695   1.094   0.277 -0.3046 -0.5827 -0.6527
12263TIP3    H158280   3.693   1.172   0.332 -0.5231  0.0441 -1.5340
12263TIP3    H258281   3.691   1.021   0.339 -0.1893  0.1017  0.1744
12264TIP3   OH258282   2.320   4.375  12.567  0.2835 -0.4113 -0.0179
12264TIP3    H158283   2.289   4.459  12.603 -2.2966 -1.5309  0.6250
12264TIP3    H258284   2.275   4.368  12.483  0.1132 -1.3242  0.1424
12265TIP3   OH258285   4.936   3.866   0.759 -0.0305  0.6135  0.7233
12265TIP3    H158286   4.913   3.911   0.678  0.2030  0.6984  0.7035
12265TIP3    H258287   4.854   3.827   0.789  0.0163 -0.0275  0.0617
12266TIP3   OH258288   0.505   5.144  15.656  0.4197  0.0313 -0.2655
12266TIP3    H158289   0.598   5.168  15.649  0.0773  1.9049  1.0047
12266TIP3    H258290   0.461   5.224  15.683 -1.9619 -0.2074 -2.9967
12267TIP3   OH258291   6.279   0.658   5.789 -0.1032 -0.5564 -0.2934
12267TIP3    H158292   6.313   0.747   5.794 -0.5736 -0.0931 -3.3025
12267TIP3    H258293   6.247   0.639   5.877  0.7401  1.9392  0.6288
12268TIP3   OH258294   3.599   4.846   4.079 -0.0952 -0.5699  0.5788
12268TIP3    H158295   3.641   4.932   4.069  0.5762 -1.0306 -0.8931
12268TIP3    H258296   3.653   4.801   4.145  1.5196 -0.9590 -0.9046
12269TIP3   OH258297   1.022   0.172   1.529  0.0812 -0.2927  0.7977
12269TIP3    H158298   1.070   0.116   1.589  0.8196 -0.1279  0.3755
12269TIP3    H258299   1.001   0.115   1.455  2.5834  0.4202 -0.5582
12270TIP3   OH258300   3.957   0.028   0.288  0.1090  0.2289 -0.4027
12270TIP3    H158301   3.930   0.119   0.296 -1.2048 -0.1013 -0.7977
12270TIP3    H258302   3.895  -0.020   0.342  0.9065 -0.4268 -0.0443
12271TIP3   OH258303   1.726   3.923  13.462  0.0951 -0.8057  0.3549
12271TIP3    H158304   1.816   3.892  13.458  0.4027 -0.3132  2.3870
12271TIP3    H258305   1.706   3.929  13.556 -0.7659  2.7078  0.1067
12272TIP3   OH258306   2.724   6.778   1.330  0.6946  0.0774  0.2033
12272TIP3    H158307   2.672   6.698   1.320  0.0216  0.7761 -3.0002
12272TIP3    H258308   2.660   6.847   1.349  1.1254  0.1207  1.6173
12273TIP3   OH258309   3.169   1.518   3.945  0.0246 -0.0265 -0.8473
12273TIP3    H158310   3.258   1.544   3.920 -0.1283  1.0205 -0.3616
12273TIP3    H258311   3.158   1.552   4.034 -0.7697 -0.3800 -0.7990
12274TIP3   OH258312   4.716   2.027  14.968  0.0647 -0.1375 -0.0629
12274TIP3    H158313   4.660   1.978  14.909  1.3412 -1.0844 -0.5334
12274TIP3    H258314   4.658   2.092  15.008 -2.1841 -3.1305  1.9874
12275TIP3   OH258315   3.017   3.503  16.059  0.4913  0.5297 -0.0921
12275TIP3    H158316   3.102   3.537  16.090 -0.9168  4.2390  0.2739
12275TIP3    H258317   3.011   3.535  15.969 -0.1289 -0.5282 -0.4305
12276TIP3   OH258318   4.055   5.184  17.085  0.2086 -0.3897  0.0486
12276TIP3    H158319   4.063   5.278  17.103  0.3750 -0.6535  1.4623
12276TIP3    H258320   3.961   5.166  17.092  0.0051 -0.1140 -1.5271
12277TIP3   OH258321   4.610   6.070  13.614  0.1625 -0.4557  0.0962
12277TIP3    H158322   4.522   6.036  13.598 -0.6391  1.2449  0.6250
12277TIP3    H258323   4.662   6.036  13.542 -0.9395 -1.4156 -0.2912
12278TIP3   OH258324   6.801   4.918  16.424 -0.7249  0.0273 -0.6744
12278TIP3    H158325   6.758   4.889  16.344  1.9950 -1.1886 -1.8205
12278TIP3    H258326   6.809   5.013  16.413 -4.2551  0.5359  0.2710
12279TIP3   OH258327   6.090   3.956   0.470 -0.8678  0.4300 -0.4919
12279TIP3    H158328   6.101   3.885   0.533  0.9838  0.4868 -0.7059
12279TIP3    H258329   6.122   4.034   0.515  0.1523  0.5316 -1.3437
12280TIP3   OH258330   0.165   0.289  14.698 -0.2505 -0.0588  0.5263
12280TIP3    H158331   0.172   0.195  14.680  2.4911  0.1868 -0.1934
12280TIP3    H258332   0.229   0.305  14.767 -1.1845  1.1932  1.1436
12281TIP3   OH258333   4.464   3.457  15.064 -0.2462  0.6185 -0.5257
12281TIP3    H158334   4.399   3.443  15.132  1.9126 -0.5984  1.4112
12281TIP3    H258335   4.418   3.509  14.998 -2.9485  0.3665  1.0091
12282TIP3   OH258336   4.030   6.628   5.845 -0.1222  0.1285 -0.0079
12282TIP3    H158337   4.036   6.567   5.772 -1.9627 -0.5162  0.3241
12282TIP3    H258338   4.059   6.577   5.921  2.1405  0.9040 -0.2614
12283TIP3   OH258339   6.263   2.461  11.051  0.5232  0.0203 -0.0004
12283TIP3    H158340   6.255   2.367  11.039 -2.9390  0.0550  0.7786
12283TIP3    H258341   6.250   2.498  10.963  1.2411 -0.2126 -0.2051
12284TIP3   OH258342   1.203   4.904  12.771 -0.2179  0.4496 -0.0934
12284TIP3    H158343   1.109   4.908  12.755 -0.4959 -1.5822  0.7082
12284TIP3    H258344   1.226   4.991  12.802 -2.1681  0.5458  1.2370
12285TIP3   OH258345   0.833   5.115   5.485 -0.2471 -0.2036 -0.2428
12285TIP3    H158346   0.800   5.205   5.475 -0.4206 -0.3164 -0.6712
12285TIP3    H258347   0.877   5.096   5.403 -1.0424 -0.8580 -0.5317
12286TIP3   OH258348   2.255   3.892   3.318 -0.0031 -0.2266  1.0976
12286TIP3    H158349   2.236   3.805   3.281 -3.6798  0.6689  0.4971
12286TIP3    H258350   2.260   3.877   3.412  3.6064 -1.6001  0.8652
12287TIP3   OH258351   6.337   5.330   4.309  0.8665 -0.1233 -0.2723
12287TIP3    H158352   6.351   5.354   4.400  0.7684 -0.8015 -0.0727
12287TIP3    H258353   6.403   5.381   4.261  1.3645 -0.2615  0.2479
12288TIP3   OH258354   5.593   0.877   3.209  0.4653  0.0442  0.5532
12288TIP3    H158355   5.688   0.883   3.213  0.5021 -0.4292  0.4819
12288TIP3    H258356   5.576   0.825   3.130  0.2442 -1.9058  1.7972
12289TIP3   OH258357   4.160   2.365   4.139  0.8317 -0.1489  0.2582
12289TIP3    H158358   4.133   2.336   4.052  0.3700 -0.2084  0.4171
12289TIP3    H258359   4.245   2.323   4.153  0.9708 -0.0256 -0.2180
12290TIP3   OH258360   5.882   6.537   2.337 -0.1565 -0.1401 -0.0848
12290TIP3    H158361   5.865   6.590   2.260 -0.7404  0.3518  0.3719
12290TIP3    H258362   5.797   6.527   2.379  0.2495  0.1211  0.8246
12291TIP3   OH258363   4.001   6.707  14.694  0.0635  0.3338  0.7600
12291TIP3    H158364   3.962   6.749  14.771 -0.1121  0.7444  0.4529
12291TIP3    H258365   3.977   6.765  14.621  1.3155  0.6504  0.5720
12292TIP3   OH258366   5.876   1.825  10.363 -0.0816 -0.0063  0.3337
12292TIP3    H158367   5.813   1.845  10.294 -0.4083 -0.3714  0.5175
12292TIP3    H258368   5.938   1.898  10.362  1.0022 -0.8851 -1.5768
12293TIP3   OH258369   3.205   0.028  17.025  0.6951 -0.2755 -0.2537
12293TIP3    H158370   3.266  -0.044  17.042  0.6173 -0.2553  0.1104
12293TIP3    H258371   3.150  -0.004  16.953  1.7878  0.1005 -1.2849
12294TIP3   OH258372   3.963   4.343   0.559 -0.1075  0.0108 -0.7986
12294TIP3    H158373   4.013   4.414   0.520 -1.6597  0.3672 -2.2139
12294TIP3    H258374   4.013   4.320   0.638  1.6837  1.0533 -1.5583
12295TIP3   OH258375   2.413   0.194   2.449  0.2301 -0.0583  0.2604
12295TIP3    H158376   2.463   0.124   2.407  0.0686 -0.7694  1.2208
12295TIP3    H258377   2.480   0.252   2.485  0.3713 -0.3944  0.5486
12296TIP3   OH258378   5.518   0.121  15.622 -0.5156 -0.0154  0.0958
12296TIP3    H158379   5.532   0.206  15.581 -0.6493  0.3068  0.6930
12296TIP3    H258380   5.518   0.141  15.716 -2.8504 -0.2996  0.2127
12297TIP3   OH258381   3.810   0.483  16.536  0.7143  0.5513  0.0801
12297TIP3    H158382   3.857   0.565  16.554 -0.8506  1.0513  2.3031
12297TIP3    H258383   3.725   0.495  16.579  0.3124 -2.1108  0.1506
12298TIP3   OH258384   5.260   6.262  15.425 -0.4475 -0.3861  0.0746
12298TIP3    H158385   5.269   6.356  15.410  1.6212 -0.5677 -0.0138
12298TIP3    H258386   5.296   6.248  15.512  3.2025 -1.5731 -1.4294
12299TIP3   OH258387   3.597   3.839   3.499 -0.0251 -0.1537  0.5638
12299TIP3    H158388   3.539   3.813   3.571 -0.3983 -0.2727  0.2208
12299TIP3    H258389   3.648   3.760   3.480 -0.4561 -0.3403  0.1916
12300TIP3   OH258390   1.443   6.209   0.537  0.3766 -0.4506  0.1285
12300TIP3    H158391   1.454   6.167   0.452  0.0732  1.3381 -0.8453
12300TIP3    H258392   1.386   6.285   0.519  2.1577  1.3063  1.4309
12301TIP3   OH258393   5.329   1.864   2.123 -0.1263 -0.3988  0.2899
12301TIP3    H158394   5.271   1.803   2.169 -1.9037  0.8385 -0.2095
12301TIP3    H258395   5.416   1.825   2.133 -1.1976 -3.2579 -0.3911
12302TIP3   OH258396   1.444   1.249   3.799  0.1653  0.2243  0.0462
12302TIP3    H158397   1.383   1.304   3.848 -0.2890  1.1124 -1.4584
12302TIP3    H258398   1.390   1.178   3.763  0.2830  0.1986 -0.0835
12303TIP3   OH258399   0.667   6.842   3.005 -0.1860 -0.4602  0.3310
12303TIP3    H158400   0.740   6.793   3.041  1.4279  1.5809 -0.0192
12303TIP3    H258401   0.669   6.926   3.050 -2.4908 -0.4209  0.4807
12304TIP3   OH258402   3.660   4.186  12.777  0.1030  0.2132  0.0751
12304TIP3    H158403   3.602   4.110  12.784  1.0499 -0.6556 -1.0234
12304TIP3    H258404   3.681   4.209  12.868 -0.7704 -0.3782  0.4427
12305TIP3   OH258405   3.851   6.646  11.978  0.1454  0.0171  0.2092
12305TIP3    H158406   3.766   6.604  11.967 -0.4977  1.6605 -1.8999
12305TIP3    H258407   3.838   6.707  12.051  0.2929 -1.4368  1.4995
12306TIP3   OH258408   6.419   6.657   2.691 -0.5811  0.1933  0.3053
12306TIP3    H158409   6.341   6.699   2.655 -0.3728  0.5663  0.2820
12306TIP3    H258410   6.420   6.570   2.651 -0.3322  0.6197 -0.6471
12307TIP3   OH258411   5.702   4.008   5.897  0.4816  0.1239 -0.1495
12307TIP3    H158412   5.695   3.937   5.962  0.0393 -1.1269 -1.4945
12307TIP3    H258413   5.642   3.981   5.827  0.7821  1.5453 -0.9786
12308TIP3   OH258414   6.448   1.737  16.967 -0.2993  0.1310 -0.2408
12308TIP3    H158415   6.419   1.699  16.883 -2.1560 -2.0437  1.2464
12308TIP3    H258416   6.542   1.751  16.956  0.1528 -3.0693 -1.7111
12309TIP3   OH258417   1.382   3.579  12.012 -0.1472  0.3136 -0.5271
12309TIP3    H158418   1.349   3.489  12.005 -0.6126  0.5031 -0.8269
12309TIP3    H258419   1.371   3.601  12.105  2.6012 -0.9147  0.1882
12310TIP3   OH258420   3.831   3.996   5.773 -0.0918  0.8847 -0.5723
12310TIP3    H158421   3.751   3.955   5.806  1.1597  0.1067  1.7148
12310TIP3    H258422   3.885   3.923   5.745  0.3682  1.3175 -0.8220
12311TIP3   OH258423   2.546   6.061  15.253 -0.2875  0.1359  0.1389
12311TIP3    H158424   2.548   6.114  15.174 -0.7078  1.9441  1.2645
12311TIP3    H258425   2.458   6.073  15.288 -0.1320 -0.6847  0.8546
12312TIP3   OH258426   1.630   0.121   5.899  0.0028  0.4014  0.5036
12312TIP3    H158427   1.642   0.071   5.818 -1.4417 -2.3670  1.8523
12312TIP3    H258428   1.676   0.071   5.966  1.7209  2.9734  1.3931
12313TIP3   OH258429   0.909   5.450   4.055 -0.0309  0.6125 -0.0659
12313TIP3    H158430   0.958   5.430   4.135  0.7715 -1.7878 -1.0628
12313TIP3    H258431   0.976   5.481   3.993 -0.0187 -0.9144 -0.8598
12314TIP3   OH258432   5.708   0.107   2.071 -0.2341  0.4078  0.0274
12314TIP3    H158433   5.729   0.106   1.977  1.2239  0.8612  0.3207
12314TIP3    H258434   5.635   0.168   2.079  0.0250  0.8338 -0.7425
12315TIP3   OH258435   5.973   0.672  13.465 -0.3190  0.3388  0.4089
12315TIP3    H158436   6.054   0.684  13.514  0.2764 -0.6643 -0.2878
12315TIP3    H258437   5.991   0.711  13.379 -1.4570  2.3604  1.0210
12316TIP3   OH258438   0.950   3.536   2.669  0.1109  0.0201 -0.5215
12316TIP3    H158439   0.963   3.462   2.729 -0.2325 -1.4096 -2.1293
12316TIP3    H258440   1.023   3.529   2.607 -0.7876  0.0649 -1.6135
12317TIP3   OH258441   5.289   2.084   1.340 -0.1132 -0.2014  0.1592
12317TIP3    H158442   5.226   2.142   1.298 -1.3530 -0.9510  0.9351
12317TIP3    H258443   5.281   2.001   1.292  0.7312 -0.1341 -0.1228
12318TIP3   OH258444   2.738   0.323   6.321 -0.1423 -0.2925  0.2890
12318TIP3    H158445   2.666   0.279   6.366  0.5270 -0.0862  1.6363
12318TIP3    H258446   2.815   0.303   6.375  0.5063  0.8667 -0.1783
12319TIP3   OH258447   3.216   1.314  15.758 -0.6476  0.2235 -0.1563
12319TIP3    H158448   3.308   1.341  15.766  0.3894 -3.0556  0.3841
12319TIP3    H258449   3.211   1.272  15.672 -1.8070  0.7742 -0.3755
12320TIP3   OH258450   5.415   2.014   0.230 -0.6074  0.0378  0.2320
12320TIP3    H158451   5.383   2.045   0.145 -0.7064 -0.9177 -0.1002
12320TIP3    H258452   5.510   2.008   0.218 -0.6686 -0.5907  0.0033
12321TIP3   OH258453   0.733   4.872   5.527  0.2215  0.3683 -0.7293
12321TIP3    H158454   0.717   4.880   5.433 -0.0339  0.5268 -0.6746
12321TIP3    H258455   0.775   4.955   5.551  0.9466  0.0459 -0.8299
12322TIP3   OH258456   1.150   2.787  15.343 -0.0619  0.1543  0.1759
12322TIP3    H158457   1.209   2.745  15.280  1.6105  0.0026  1.7612
12322TIP3    H258458   1.143   2.724  15.415  0.1310  1.3374  1.2744
12323TIP3   OH258459   3.667   6.180  13.472 -0.2962 -0.5299 -0.2604
12323TIP3    H158460   3.630   6.224  13.548  0.6101 -0.0135 -0.1173
12323TIP3    H258461   3.603   6.111  13.452 -0.6862 -0.4920  0.7840
12324TIP3   OH258462   6.204   5.243  13.163  0.1968  0.6530  0.4999
12324TIP3    H158463   6.201   5.281  13.251 -1.0834  0.2890  0.6283
12324TIP3    H258464   6.173   5.153  13.174 -0.1051  0.6468 -0.3462
12325TIP3   OH258465   5.005   3.912   1.679  0.1134  0.1240 -0.1748
12325TIP3    H158466   5.017   3.903   1.774 -2.2707 -0.1548  0.1586
12325TIP3    H258467   5.072   3.975   1.653  1.2035 -0.2232  1.5888
12326TIP3   OH258468   6.690   1.463   6.004 -0.8481  0.1521 -0.3090
12326TIP3    H158469   6.607   1.471   6.051 -0.8132 -0.7019 -0.0922
12326TIP3    H258470   6.725   1.552   6.003 -2.3345  0.7535 -1.4683
12327TIP3   OH258471   6.264   4.088   3.118 -0.0213  0.4207 -0.0699
12327TIP3    H158472   6.301   4.010   3.076 -0.0754  0.9501 -1.1250
12327TIP3    H258473   6.184   4.105   3.068  0.0715  1.2397  0.0587
12328TIP3   OH258474   0.763   3.565   4.042  0.0520 -0.8541  0.4079
12328TIP3    H158475   0.676   3.558   4.002  0.5951 -1.8427 -0.6815
12328TIP3    H258476   0.767   3.654   4.076 -1.7679 -1.1099  1.4308
12329TIP3   OH258477   3.758   6.829  10.680  0.5021  0.0019 -0.1166
12329TIP3    H158478   3.773   6.752  10.736  0.2784 -0.7251 -1.0341
12329TIP3    H258479   3.792   6.903  10.731 -0.9914 -0.4201  1.6243
12330TIP3   OH258480   2.853   1.661   1.264 -0.0983  0.5222  0.1406
12330TIP3    H158481   2.861   1.735   1.203 -1.5772  0.6382  0.0478
12330TIP3    H258482   2.759   1.651   1.277  0.1641  0.1079  1.9528
12331TIP3   OH258483   2.545   5.049   6.374 -0.0800 -0.6914  0.0920
12331TIP3    H158484   2.626   5.025   6.419 -0.4977 -0.7882  0.8137
12331TIP3    H258485   2.515   5.128   6.420  0.4505  0.3027 -1.2237
12332TIP3   OH258486   0.061   2.066   1.584 -0.1640  0.1705 -0.2745
12332TIP3    H158487   0.123   1.995   1.566  0.6221  0.8063 -0.1201
12332TIP3    H258488   0.035   2.098   1.497  1.0235  1.0095 -0.3299
12333TIP3   OH258489   1.263   3.825  11.329  0.0054  0.4431  0.1782
12333TIP3    H158490   1.248   3.909  11.285 -1.5227 -0.0846 -0.3596
12333TIP3    H258491   1.305   3.771  11.262 -0.2236  0.3626  0.0990
12334TIP3   OH258492   5.242   1.203  13.185 -0.5250 -0.6569  0.1746
12334TIP3    H158493   5.198   1.280  13.148 -0.6368 -1.4736 -1.4945
12334TIP3    H258494   5.170   1.143  13.206 -0.3847 -0.6954  0.5419
12335TIP3   OH258495   0.892   6.472  12.942 -0.7164  0.0500 -0.1621
12335TIP3    H158496   0.854   6.545  12.991 -0.4746  0.2235 -0.2297
12335TIP3    H258497   0.949   6.428  13.006 -0.4315  0.2531 -0.2710
12336TIP3   OH258498   5.328   5.325  13.373  0.2634  0.4877  0.0938
12336TIP3    H158499   5.298   5.325  13.282  0.6945  3.2866 -0.1614
12336TIP3    H258500   5.248   5.312  13.424 -0.0466 -0.6882 -0.6457
12337TIP3   OH258501   0.796   1.100   2.325 -0.0588 -0.4156  0.1503
12337TIP3    H158502   0.717   1.059   2.361 -0.0097  0.1165  0.8881
12337TIP3    H258503   0.765   1.149   2.248  0.0921 -2.8964 -1.6116
12338TIP3   OH258504   0.242   6.657   4.063  0.1054  0.1276 -0.5710
12338TIP3    H158505   0.202   6.634   3.979  0.2102 -0.5569 -0.4350
12338TIP3    H258506   0.333   6.677   4.041  0.6418 -1.9177 -0.3693
12339TIP3   OH258507   4.885   5.126   3.759 -0.1334  0.5245 -0.9681
12339TIP3    H158508   4.871   5.032   3.767 -0.2638  0.5981 -0.2416
12339TIP3    H258509   4.969   5.135   3.715  0.8516  0.0553  0.7369
12340TIP3   OH258510   5.866   2.004   2.821  1.0227 -0.5331 -0.1771
12340TIP3    H158511   5.835   2.048   2.900  0.1407 -0.7832 -0.3641
12340TIP3    H258512   5.950   2.044   2.802  0.4667  0.7227 -0.0732
12341TIP3   OH258513   4.272   5.921   3.512  0.3174  0.4916  0.0754
12341TIP3    H158514   4.177   5.919   3.496  0.3778  1.9178 -0.6345
12341TIP3    H258515   4.297   5.829   3.520 -1.3514  0.1165  1.8062
12342TIP3   OH258516   3.102   2.309   4.885 -0.4565  0.3872 -0.0255
12342TIP3    H158517   3.021   2.259   4.882 -0.0527 -0.2185 -1.3824
12342TIP3    H258518   3.143   2.293   4.801  2.3884 -1.4907  1.5706
12343TIP3   OH258519   1.790   4.606  15.508 -0.1373 -0.4272  0.2829
12343TIP3    H158520   1.812   4.587  15.600  1.0475 -2.5406 -0.3641
12343TIP3    H258521   1.805   4.700  15.499 -0.0928 -0.2016  2.1994
12344TIP3   OH258522   2.924   3.312  12.659  0.0828 -0.3441 -0.3055
12344TIP3    H158523   2.997   3.259  12.691  0.1777  0.0472  0.1344
12344TIP3    H258524   2.966   3.391  12.624 -0.1490  0.0647  0.3187
12345TIP3   OH258525   0.685   3.096  14.027  0.3624  0.2999 -0.0830
12345TIP3    H158526   0.743   3.051  13.965 -0.7688 -1.0592 -0.2042
12345TIP3    H258527   0.724   3.076  14.113 -0.1867 -1.0876 -0.1226
12346TIP3   OH258528   5.984   0.266   4.605  0.3870  0.3254 -0.1482
12346TIP3    H158529   6.028   0.327   4.546  1.1797 -0.0310  0.0687
12346TIP3    H258530   6.054   0.224   4.654 -0.1997 -0.1637  0.2956
12347TIP3   OH258531   1.902   2.068   2.086 -0.3477 -0.3175  0.0938
12347TIP3    H158532   1.843   2.083   2.160 -1.2981 -0.1832 -0.6720
12347TIP3    H258533   1.863   2.117   2.014  0.1604 -1.0416 -0.6960
12348TIP3   OH258534   1.300   6.585  13.417  0.3592 -0.2615  0.1113
12348TIP3    H158535   1.394   6.600  13.406  0.2233  1.3358  0.8966
12348TIP3    H258536   1.259   6.648  13.357 -0.2180  0.3326  1.1135
12349TIP3   OH258537   6.811   2.200   2.366 -0.6951  0.2120  0.1677
12349TIP3    H158538   6.756   2.122   2.375  2.4249 -2.1884  0.2103
12349TIP3    H258539   6.830   2.205   2.272  0.8865 -0.4575  0.4311
12350TIP3   OH258540   6.549   0.767   1.793  0.6629 -0.0560  0.0194
12350TIP3    H158541   6.614   0.816   1.741  1.1276 -0.7381 -0.0504
12350TIP3    H258542   6.600   0.700   1.838 -0.1469 -1.4427 -1.0469
12351TIP3   OH258543   0.013   5.039  11.927 -0.2299  0.7087  0.4606
12351TIP3    H158544  -0.082   5.052  11.929 -0.1602  1.3480 -0.0947
12351TIP3    H258545   0.044   5.079  12.009 -0.3299  1.5156  0.1193
12352TIP3   OH258546   5.925   6.691   2.080  0.3592 -0.0294  0.2846
12352TIP3    H158547   5.975   6.625   2.032  1.7666  1.8134 -0.9443
12352TIP3    H258548   5.843   6.699   2.032 -0.2140 -1.4875  0.9798
12353TIP3   OH258549   2.671   3.332  11.618 -0.5164  0.4246  0.2331
12353TIP3    H158550   2.677   3.427  11.606  2.4967  0.3402  0.4347
12353TIP3    H258551   2.711   3.315  11.703 -1.0294 -1.0474  0.2167
12354TIP3   OH258552   4.830   1.807  16.253  0.7698 -0.2959 -0.0802
12354TIP3    H158553   4.779   1.853  16.320  1.5802  2.5908 -1.2969
12354TIP3    H258554   4.919   1.840  16.264  1.7644 -2.7422 -0.1404
12355TIP3   OH258555   6.221   3.539   0.469 -1.0278 -0.4369  0.1141
12355TIP3    H158556   6.204   3.580   0.554 -0.1803 -0.3401  0.2473
12355TIP3    H258557   6.275   3.603   0.422 -0.9685 -0.7600 -0.2633
12356TIP3   OH258558   2.069   3.228  10.559  0.7092  0.1941 -0.0915
12356TIP3    H158559   1.975   3.246  10.557  0.8738  1.3481  0.8937
12356TIP3    H258560   2.096   3.231  10.467 -0.1359  0.3355 -0.3409
12357TIP3   OH258561   3.420   2.756   3.867 -0.1129 -0.1730 -0.3685
12357TIP3    H158562   3.382   2.813   3.933  0.4347  0.3560 -0.4949
12357TIP3    H258563   3.482   2.702   3.914 -1.0073 -1.0360 -0.1621
12358TIP3   OH258564   5.567   5.750  11.511  0.3923 -0.0321 -0.7639
12358TIP3    H158565   5.565   5.703  11.594 -3.1174  0.4609 -0.4146
12358TIP3    H258566   5.541   5.685  11.446  0.7788  0.1635 -1.1208
12359TIP3   OH258567   1.745   0.653  12.887  0.7668 -0.4529  0.1044
12359TIP3    H158568   1.727   0.562  12.864 -0.8245  0.1083 -1.0175
12359TIP3    H258569   1.705   0.664  12.974  1.6260 -1.0002  0.5842
12360TIP3   OH258570   1.243   0.659   5.696 -0.2742 -0.0021 -0.1999
12360TIP3    H158571   1.307   0.598   5.659  0.0341 -1.1386  2.0442
12360TIP3    H258572   1.160   0.611   5.694 -0.4345  0.2747 -0.2355
12361TIP3   OH258573   5.504   5.635  15.171 -0.0395 -0.2378 -0.1584
12361TIP3    H158574   5.557   5.611  15.247 -0.1969 -0.7770 -0.2118
12361TIP3    H258575   5.468   5.721  15.193  1.5009  0.5147 -0.4653
12362TIP3   OH258576   0.367   2.275   4.490 -0.3585 -0.1576 -0.1445
12362TIP3    H158577   0.450   2.304   4.453  0.5458 -1.3461  0.8413
12362TIP3    H258578   0.363   2.317   4.576 -1.4674  0.9815 -0.7155
12363TIP3   OH258579   3.951   6.777   3.077  0.3092  0.1024 -0.3657
12363TIP3    H158580   3.884   6.711   3.062 -0.3753  0.7308 -0.1220
12363TIP3    H258581   4.031   6.726   3.093 -0.7973 -0.8039  3.0221
12364TIP3   OH258582   0.051   4.270  16.432  0.6503  0.3132  0.9005
12364TIP3    H158583   0.137   4.231  16.423 -0.1327 -1.0691 -1.6357
12364TIP3    H258584   0.003   4.241  16.354 -1.8651  1.6502  1.8237
12365TIP3   OH258585   4.769   1.278  12.999  0.2576  0.6001  0.0667
12365TIP3    H158586   4.762   1.373  13.011  0.5909  0.7097 -0.5437
12365TIP3    H258587   4.699   1.242  13.053  1.4910  1.0432  2.0405
12366TIP3   OH258588   5.027   0.789   2.740  0.4221 -0.0309 -0.0521
12366TIP3    H158589   4.988   0.768   2.824  0.4399 -1.7728 -0.4336
12366TIP3    H258590   4.968   0.750   2.675  1.5191 -0.6439 -0.7296
12367TIP3   OH258591   2.366   5.258   1.960  0.2043 -0.3209  0.3944
12367TIP3    H158592   2.321   5.174   1.953 -0.1610 -0.3756  2.5761
12367TIP3    H258593   2.410   5.254   2.045  0.1402  1.7049  0.5676
12368TIP3   OH258594   4.154   3.382  11.806 -0.3493  0.1439 -0.3327
12368TIP3    H158595   4.137   3.299  11.760 -0.8501 -0.2611  0.5545
12368TIP3    H258596   4.204   3.357  11.884 -0.4303  0.6848 -0.0992
12369TIP3   OH258597   1.436   3.297   1.792  0.4828  0.1747  0.1500
12369TIP3    H158598   1.450   3.237   1.866 -0.0548 -0.5838 -0.3471
12369TIP3    H258599   1.356   3.344   1.815  0.2706 -0.1190  0.0128
12370TIP3   OH258600   0.560   1.235   4.221  0.4705  0.0321  0.6358
12370TIP3    H158601   0.494   1.173   4.190  1.0141 -0.7127  0.9454
12370TIP3    H258602   0.592   1.278   4.141 -2.1567  2.2713  0.6540
12371TIP3   OH258603   2.989   1.068  14.950  0.2056  0.1016  0.2935
12371TIP3    H158604   2.999   1.011  15.026  0.8885  0.3304  0.3843
12371TIP3    H258605   3.010   1.013  14.875 -3.4501 -1.0404 -0.1006
12372TIP3   OH258606   4.785   1.924  15.246  0.4309  0.2612  0.3021
12372TIP3    H158607   4.762   1.977  15.170  4.2987 -1.2854 -2.2399
12372TIP3    H258608   4.822   1.987  15.308  1.0493  1.1136 -0.8831
12373TIP3   OH258609   4.564   5.323   1.283  0.8999 -0.3494  0.0147
12373TIP3    H158610   4.565   5.308   1.377  1.0312  0.8927  0.2320
12373TIP3    H258611   4.493   5.386   1.269 -1.1728 -2.7672 -1.1201
12374TIP3   OH258612   4.821   0.749   5.935  0.0136 -0.1631 -0.0793
12374TIP3    H158613   4.774   0.724   6.014 -0.3592  2.2080  0.5125
12374TIP3    H258614   4.914   0.740   5.959 -0.1019 -0.1254  0.3911
12375TIP3   OH258615   2.779   4.327  16.302  0.4943  0.0068  0.1840
12375TIP3    H158616   2.856   4.362  16.346 -0.6319  0.4739  1.8764
12375TIP3    H258617   2.776   4.235  16.329  0.9539 -0.2652 -0.6463
12376TIP3   OH258618   1.699   5.497  13.626  0.1703  0.4564  0.3452
12376TIP3    H158619   1.682   5.442  13.549  2.0002 -0.3692  0.4763
12376TIP3    H258620   1.629   5.562  13.625  0.2251  0.5729 -2.1172
12377TIP3   OH258621   4.996   6.040  11.417  0.1297  0.2463 -0.6153
12377TIP3    H158622   4.956   5.956  11.441 -2.9706  1.3575 -1.3885
12377TIP3    H258623   5.009   6.035  11.323 -0.1932  0.6489 -0.6871
12378TIP3   OH258624   1.492   0.500   0.950  0.1654 -0.4362  0.1180
12378TIP3    H158625   1.440   0.456   1.017 -0.6301 -0.2846 -0.3887
12378TIP3    H258626   1.526   0.578   0.993 -0.1132 -0.4835  0.4251
12379TIP3   OH258627   4.139   1.203  11.084 -0.0180  0.6002  0.1314
12379TIP3    H158628   4.058   1.223  11.131 -0.8445 -1.0477 -0.5211
12379TIP3    H258629   4.208   1.212  11.150 -0.9698 -0.0651  1.2616
12380TIP3   OH258630   5.546   0.412  14.196  0.0510  0.1917  0.0969
12380TIP3    H158631   5.636   0.383  14.183 -0.6242 -1.2759 -1.9792
12380TIP3    H258632   5.519   0.371  14.278  0.5663 -1.3371 -0.4637
12381TIP3   OH258633   4.515   3.754   5.723 -0.1762 -0.1671 -0.2028
12381TIP3    H158634   4.600   3.738   5.682 -0.4843  1.5285 -1.6148
12381TIP3    H258635   4.535   3.770   5.815  0.7908 -1.7314 -0.0999
12382TIP3   OH258636   3.659   2.251   1.313 -0.4373  0.2094  0.1680
12382TIP3    H158637   3.717   2.260   1.237  1.2101  0.2483  1.3728
12382TIP3    H258638   3.634   2.341   1.335 -1.5069  0.1593 -0.7040
12383TIP3   OH258639   5.580   1.389  15.209 -0.4176 -0.0679 -0.3540
12383TIP3    H158640   5.616   1.393  15.120  1.6734  0.3171  0.4613
12383TIP3    H258641   5.495   1.345  15.198 -1.4069  2.2189 -2.8578
12384TIP3   OH258642   4.455   0.693  13.565  0.2186  0.4454  0.0126
12384TIP3    H158643   4.370   0.737  13.560  1.1592  2.2716 -0.7829
12384TIP3    H258644   4.503   0.726  13.489  1.0236 -1.9715 -0.6269
12385TIP3   OH258645   3.618   0.995   1.775 -0.2379  0.8822  0.8742
12385TIP3    H158646   3.638   0.996   1.869 -0.6317  0.5404  0.9610
12385TIP3    H258647   3.676   1.062   1.738 -0.9590  1.9016  1.5406
12386TIP3   OH258648   0.103   5.720   1.903 -0.1836 -0.4196 -0.0482
12386TIP3    H158649   0.159   5.651   1.868 -2.4055 -2.8505  0.8133
12386TIP3    H258650   0.125   5.724   1.996  0.3039  0.4636 -0.1906
12387TIP3   OH258651   3.101   5.760  12.847 -0.0231  0.8535 -0.1415
12387TIP3    H158652   3.061   5.684  12.805 -0.2433  0.8473  0.0776
12387TIP3    H258653   3.190   5.763  12.811  0.0044  0.4618 -0.1090
12388TIP3   OH258654   2.856   5.467   3.500 -0.4786  0.2447  0.3600
12388TIP3    H158655   2.886   5.379   3.523  0.0705  0.1519 -0.6586
12388TIP3    H258656   2.934   5.522   3.507 -0.1727  0.1283 -1.6487
12389TIP3   OH258657   5.900   1.815   1.758  0.1112 -0.0727 -0.6341
12389TIP3    H158658   5.945   1.898   1.744  0.9746 -0.3110  0.5533
12389TIP3    H258659   5.840   1.831   1.831  1.1956 -0.7682  0.4717
12390TIP3   OH258660   4.704   2.189  16.693 -0.0261  0.5780  0.4287
12390TIP3    H158661   4.724   2.269  16.645 -1.4131 -0.2889 -1.7738
12390TIP3    H258662   4.789   2.157  16.724  1.1594  0.6987 -2.4024
12391TIP3   OH258663   6.686   2.955  16.537  0.1175  0.2922  0.0584
12391TIP3    H158664   6.716   3.012  16.608  2.7049 -1.3407  0.3980
12391TIP3    H258665   6.750   2.969  16.467 -0.0751 -1.0422 -0.4072
12392TIP3   OH258666   3.996   6.705  11.747  0.1394 -0.0887  0.2316
12392TIP3    H158667   3.994   6.617  11.708  0.3524  0.1621 -0.3496
12392TIP3    H258668   3.949   6.695  11.829  0.3285 -0.7991  0.2648
12393TIP3   OH258669   5.249   1.296  15.614  0.1523  0.3730  0.1204
12393TIP3    H158670   5.274   1.227  15.675 -0.8193 -1.4228 -1.4483
12393TIP3    H258671   5.159   1.318  15.638 -0.2093 -0.2922 -0.6117
12394TIP3   OH258672   1.987   3.727  15.555  0.2376  0.4308  0.1282
12394TIP3    H158673   1.979   3.694  15.466  1.1569  1.3911 -0.3357
12394TIP3    H258674   2.006   3.650  15.608 -0.7409 -0.2085 -0.4247
12395TIP3   OH258675   6.830   5.361   1.905  0.4556  0.0225  0.2966
12395TIP3    H158676   6.829   5.309   1.824  0.9002  1.3701 -0.6214
12395TIP3    H258677   6.738   5.369   1.929  0.3202 -0.4352 -0.0491
12396TIP3   OH258678   3.766   5.210   0.796 -0.0517 -0.3589  0.4226
12396TIP3    H158679   3.719   5.163   0.726 -0.8732 -0.9930  1.3764
12396TIP3    H258680   3.838   5.152   0.819  1.0524  0.4667 -0.8138
12397TIP3   OH258681   4.981   5.815  12.127  0.2099 -0.0621 -0.0827
12397TIP3    H158682   4.961   5.751  12.196 -0.2243  2.3426  2.2040
12397TIP3    H258683   5.075   5.832  12.137  0.7917 -1.7481 -2.0678
12398TIP3   OH258684   0.422   4.414  12.137 -0.4745  0.2042 -0.8574
12398TIP3    H158685   0.379   4.487  12.093 -2.5313 -1.4239 -1.7312
12398TIP3    H258686   0.356   4.380  12.197  0.7092 -0.4647  0.1038
12399TIP3   OH258687   5.445   3.596  14.287 -0.4009 -0.3827  0.3046
12399TIP3    H158688   5.409   3.519  14.330 -0.8652 -0.2692  0.1219
12399TIP3    H258689   5.373   3.631  14.235 -0.5006  0.7371  1.1499
12400TIP3   OH258690   3.782   3.357   2.979 -0.3754 -0.2274  0.1746
12400TIP3    H158691   3.715   3.290   2.975 -0.6834  0.0673  0.3233
12400TIP3    H258692   3.835   3.335   3.056 -0.4006 -0.3708  0.1494
12401TIP3   OH258693   3.466   5.853  16.667  0.0172  0.8452  0.6542
12401TIP3    H158694   3.503   5.941  16.672  1.3307  0.3940 -0.4252
12401TIP3    H258695   3.446   5.830  16.757 -1.7499  2.7859  0.8301
12402TIP3   OH258696   2.447   5.858  15.581 -0.2607 -0.3729 -0.1905
12402TIP3    H158697   2.497   5.937  15.602 -0.8805  0.4782 -1.7425
12402TIP3    H258698   2.474   5.794  15.646  0.4802  1.0329  0.9309
12403TIP3   OH258699   0.782   3.198   6.365 -0.0889 -0.0396 -0.1349
12403TIP3    H158700   0.835   3.151   6.428 -0.6135 -0.2017  0.1915
12403TIP3    H258701   0.772   3.137   6.292 -0.4603 -0.3000  0.1297
12404TIP3   OH258702   1.232   0.283  15.189 -0.1042 -0.0158  0.0281
12404TIP3    H158703   1.213   0.266  15.097 -0.4694 -0.0291  0.1064
12404TIP3    H258704   1.203   0.373  15.203  4.2168  1.8304 -1.0843
12405TIP3   OH258705   0.597   0.153   1.737 -0.2763 -0.4101  0.4255
12405TIP3    H158706   0.516   0.202   1.750 -0.4478 -0.8614  1.0683
12405TIP3    H258707   0.569   0.068   1.705  0.0574  0.1173 -1.3739
12406TIP3   OH258708   1.822   5.004   0.545 -0.5203  0.0128  0.2542
12406TIP3    H158709   1.901   4.983   0.495 -0.7510 -1.1368  0.3391
12406TIP3    H258710   1.829   4.950   0.624 -1.2915  0.0379  0.3484
12407TIP3   OH258711   3.171   0.699   5.889  0.3127 -0.1059 -0.3456
12407TIP3    H158712   3.244   0.738   5.936  1.4889 -0.9320 -1.4121
12407TIP3    H258713   3.093   0.741   5.926  1.2598  0.2705  1.3364
12408TIP3   OH258714   2.973   4.423  11.017 -0.5040  0.0373 -0.2544
12408TIP3    H158715   2.878   4.431  11.028 -0.6894  3.7385 -2.8691
12408TIP3    H258716   3.009   4.500  11.061  1.3931 -1.3668  0.7985
12409TIP3   OH258717   2.753   1.001  11.228  0.3378  0.4062  0.6030
12409TIP3    H158718   2.692   1.013  11.156 -0.2201 -1.5334  0.6715
12409TIP3    H258719   2.698   0.976  11.302  1.1545 -1.5735  0.6200
12410TIP3   OH258720   6.286   3.308  11.445 -0.0535  0.3308 -0.1739
12410TIP3    H158721   6.207   3.280  11.398 -0.9966  0.4047  1.3116
12410TIP3    H258722   6.347   3.332  11.376 -0.2323 -2.5586 -1.4862
12411TIP3   OH258723   5.222   4.546   0.843 -0.1805 -0.3303  0.0801
12411TIP3    H158724   5.262   4.622   0.885  0.4093 -0.1857 -0.7218
12411TIP3    H258725   5.140   4.579   0.807 -1.7588 -0.9272  2.8810
12412TIP3   OH258726   4.823   3.266  17.116  0.1447  0.0715 -0.2509
12412TIP3    H158727   4.750   3.210  17.144 -0.0947  0.2612 -0.4987
12412TIP3    H258728   4.857   3.223  17.038 -0.5850  0.7371 -0.9404
12413TIP3   OH258729   4.230   3.108   4.155 -0.7165 -0.3212 -0.3236
12413TIP3    H158730   4.233   3.013   4.157  2.6620 -0.3020  1.1847
12413TIP3    H258731   4.197   3.133   4.242  0.0434 -0.1058 -0.0955
12414TIP3   OH258732   3.236   6.416  15.710  0.0169 -0.3122 -0.3944
12414TIP3    H158733   3.230   6.471  15.633 -0.5127 -0.0566 -0.1794
12414TIP3    H258734   3.187   6.463  15.778 -2.7878 -2.1932 -0.8973
12415TIP3   OH258735   4.753   1.593   2.369  0.0846  0.1259 -0.1734
12415TIP3    H158736   4.735   1.514   2.319  0.0839  0.0392 -0.0349
12415TIP3    H258737   4.759   1.662   2.302  3.0757 -0.4556 -0.6646
12416TIP3   OH258738   4.436   4.662  15.521 -0.2101  0.0135 -0.3474
12416TIP3    H158739   4.353   4.678  15.566  0.4945  2.2790  0.3105
12416TIP3    H258740   4.416   4.672  15.428 -1.1616 -2.0949 -0.4035
12417TIP3   OH258741   0.057   3.484   1.043 -0.2300 -0.0194  0.0045
12417TIP3    H158742   0.088   3.542   0.973 -0.3731  0.1257  0.0608
12417TIP3    H258743   0.058   3.539   1.121  0.4537 -0.3331  0.2236
12418TIP3   OH258744   0.324   2.062   2.767 -0.1054 -1.0449  0.2631
12418TIP3    H158745   0.398   2.002   2.762  0.3779 -0.4323 -0.0059
12418TIP3    H258746   0.331   2.103   2.854  1.6829  1.2776 -0.8699
12419TIP3   OH258747   6.262   0.185   3.758  0.1465 -0.3048 -0.3364
12419TIP3    H158748   6.214   0.254   3.805 -1.7549 -0.4989 -1.8969
12419TIP3    H258749   6.285   0.122   3.826  0.4625  1.0335  0.8533
12420TIP3   OH258750   3.242   4.887   1.017 -0.1187  0.8756  0.6093
12420TIP3    H158751   3.162   4.878   0.966  1.1145 -0.3658 -1.2252
12420TIP3    H258752   3.226   4.833   1.095 -0.2232 -1.4689 -0.9085
12421TIP3   OH258753   5.518   5.230  10.919  0.9446  0.1714 -0.3491
12421TIP3    H158754   5.540   5.300  10.858  0.3791  0.2773 -0.4417
12421TIP3    H258755   5.508   5.152  10.864 -0.7625  0.5111 -0.5834
12422TIP3   OH258756   4.291   0.112  14.349  0.3145  0.0294 -0.3091
12422TIP3    H158757   4.230   0.115  14.275 -0.7544 -1.7308  0.4418
12422TIP3    H258758   4.365   0.061  14.317 -1.7111 -3.9956  0.7627
12423TIP3   OH258759   2.548   4.062   0.911 -0.2611  1.2443  0.0067
12423TIP3    H158760   2.504   4.144   0.891 -0.9839  0.6400 -1.0352
12423TIP3    H258761   2.641   4.081   0.900 -0.4858  1.6181 -1.5575
12424TIP3   OH258762   6.498   0.498   2.149  0.0361  0.2372  0.1709
12424TIP3    H158763   6.560   0.569   2.135  1.2841 -0.4607  1.7667
12424TIP3    H258764   6.487   0.494   2.244 -1.3655 -0.6006  0.0109
12425TIP3   OH258765   0.950   4.200  12.535  0.4968 -0.7859 -0.4791
12425TIP3    H158766   0.854   4.200  12.541  0.4474 -1.5428 -1.0720
12425TIP3    H258767   0.971   4.281  12.488  0.3043  0.4116  1.3869
12426TIP3   OH258768   4.661   1.903  15.675  0.0106  0.3822  0.1179
12426TIP3    H158769   4.619   1.879  15.758  0.5468  1.2691  0.6737
12426TIP3    H258770   4.665   1.822  15.625  1.1297 -0.5495  1.6228
12427TIP3   OH258771   1.667   0.383   4.307  0.4182 -0.2531  0.4662
12427TIP3    H158772   1.635   0.469   4.334  2.1015  0.3594  0.6352
12427TIP3    H258773   1.741   0.402   4.249  0.2093 -1.5963 -0.2861
12428TIP3   OH258774   2.599   5.436   3.131  0.3259  0.1527 -0.1563
12428TIP3    H158775   2.614   5.389   3.049  0.0640 -0.7593  0.3064
12428TIP3    H258776   2.505   5.452   3.132  0.3722  0.4292 -0.1712
12429TIP3   OH258777   5.166   0.774   2.421 -0.0379  0.1005 -0.0923
12429TIP3    H158778   5.088   0.800   2.371 -0.9636 -0.2543  1.1164
12429TIP3    H258779   5.146   0.798   2.511  1.1545 -0.2422  0.2834
12430TIP3   OH258780   5.594   1.775  11.956  0.1255 -0.4590 -0.1612
12430TIP3    H158781   5.534   1.804  11.886  0.0252 -2.1046 -0.8019
12430TIP3    H258782   5.656   1.718  11.911 -0.2541 -1.9773  1.1622
12431TIP3   OH258783   5.377   4.890  12.985 -0.3454 -0.1444  0.8170
12431TIP3    H158784   5.344   4.964  12.934 -1.2589 -0.3836  1.0461
12431TIP3    H258785   5.434   4.842  12.924 -1.0605 -0.1704  0.1562
12432TIP3   OH258786   3.185   1.911  14.873 -0.1672 -0.5430  0.5903
12432TIP3    H158787   3.222   1.986  14.920  0.6816  0.5095 -1.6072
12432TIP3    H258788   3.260   1.853  14.858 -0.9458 -2.3161  2.9389
12433TIP3   OH258789   5.155   6.703   0.427  0.2439  0.1726 -0.2418
12433TIP3    H158790   5.104   6.729   0.504  0.2875 -0.9061  0.1586
12433TIP3    H258791   5.101   6.637   0.384  1.5144 -1.3771  0.4719
12434TIP3   OH258792   2.328   6.603  15.952  0.3164 -0.0565 -0.2628
12434TIP3    H158793   2.256   6.650  15.910  1.4356 -0.0932 -2.3751
12434TIP3    H258794   2.402   6.664  15.949  0.4616 -0.0824  1.7067
12435TIP3   OH258795   2.001   4.133   4.890 -0.1011 -0.5500 -0.0661
12435TIP3    H158796   1.997   4.055   4.946  0.1260  0.9597  2.1821
12435TIP3    H258797   1.916   4.175   4.902 -0.7516 -1.1100 -2.3556
12436TIP3   OH258798   2.513   3.122  16.843  0.5342  0.2875 -0.1660
12436TIP3    H158799   2.538   3.054  16.906 -1.4475  0.5243  0.9817
12436TIP3    H258800   2.439   3.083  16.795 -0.3964  1.4627  0.2677
12437TIP3   OH258801   4.906   6.340   3.664  0.1204  0.0984 -0.4030
12437TIP3    H158802   4.855   6.377   3.736 -1.7341 -0.1657 -1.4958
12437TIP3    H258803   4.904   6.246   3.679 -1.0852 -0.0420 -1.2317
12438TIP3   OH258804   5.467   1.182   3.016  0.1149 -0.7365 -0.5540
12438TIP3    H158805   5.377   1.181   3.050  0.3013 -0.9665 -0.0776
12438TIP3    H258806   5.520   1.141   3.084  0.7212  0.1774 -0.4508
12439TIP3   OH258807   0.806   0.734  14.756  0.0260  0.2011 -0.4355
12439TIP3    H158808   0.797   0.714  14.663 -0.2848 -1.3130 -0.0950
12439TIP3    H258809   0.757   0.666  14.801  2.3630 -0.6778  0.9497
12440TIP3   OH258810   4.701   0.508   4.706  0.3948 -0.5837  0.5917
12440TIP3    H158811   4.756   0.556   4.645 -1.9429 -1.6344 -2.5926
12440TIP3    H258812   4.665   0.575   4.764 -1.5039  1.5239 -2.6821
12441TIP3   OH258813   1.373   2.420   5.423  0.2306 -0.1672 -0.1868
12441TIP3    H158814   1.381   2.445   5.331 -3.9894  2.8398 -0.0071
12441TIP3    H258815   1.359   2.502   5.470  0.1472 -1.7601  2.8410
12442TIP3   OH258816   0.309   1.920   3.191 -0.4034  0.1002  0.5467
12442TIP3    H158817   0.217   1.918   3.167 -0.0759 -0.7796 -0.7692
12442TIP3    H258818   0.347   1.988   3.135  0.0726 -0.8530 -0.3317
12443TIP3   OH258819   1.790   4.285  11.214  0.4468  0.1899 -0.2657
12443TIP3    H158820   1.782   4.240  11.130 -0.9095 -0.7872  0.3525
12443TIP3    H258821   1.807   4.215  11.277 -0.6354  0.6320  0.5539
12444TIP3   OH258822   1.540   5.365   6.417  0.2657 -0.8546 -0.3614
12444TIP3    H158823   1.526   5.290   6.359  0.2235 -0.5686 -0.7269
12444TIP3    H258824   1.611   5.414   6.376 -0.6364  0.0553 -0.8926
12445TIP3   OH258825   1.453   0.318   5.322  0.8710  0.2698 -0.3629
12445TIP3    H158826   1.510   0.253   5.363 -1.2043 -0.6252  1.2843
12445TIP3    H258827   1.410   0.270   5.251  0.2590  0.1637  0.0686
12446TIP3   OH258828   0.895   4.984  15.597 -0.4099 -0.0100 -0.3348
12446TIP3    H158829   0.964   5.050  15.590  0.3936 -0.9091 -1.5459
12446TIP3    H258830   0.864   4.990  15.687  1.6576  0.0553  0.4234
12447TIP3   OH258831   1.426   1.176   1.447  0.0610  0.4751  0.0002
12447TIP3    H158832   1.484   1.208   1.517  0.7408 -0.9900  0.1422
12447TIP3    H258833   1.474   1.195   1.367  0.6561 -0.5412  0.1064
12448TIP3   OH258834   1.902   4.450   4.923  0.1721 -0.5530 -0.4782
12448TIP3    H158835   1.989   4.411   4.914  0.2541 -0.3513 -0.5755
12448TIP3    H258836   1.888   4.496   4.840 -0.3071 -1.1446 -0.7267
12449TIP3   OH258837   6.547   4.598  12.693  0.0172 -0.5017  0.2182
12449TIP3    H158838   6.567   4.524  12.750  1.7509  0.2843  0.7064
12449TIP3    H258839   6.453   4.592  12.677 -0.2705 -1.5375  2.0529
12450TIP3   OH258840   3.035   0.624  12.575  0.8886 -0.2758 -0.0315
12450TIP3    H158841   3.093   0.603  12.502  2.9504  0.3649  1.3543
12450TIP3    H258842   3.067   0.570  12.648  0.8913  1.3881  1.2576
12451TIP3   OH258843   3.327   3.666  15.009 -0.0402  0.4801  0.7083
12451TIP3    H158844   3.312   3.597  14.945  0.3886  0.5535  0.5294
12451TIP3    H258845   3.263   3.733  14.988 -0.1174  0.3612  0.5644
12452TIP3   OH258846   0.842   0.211  16.554 -0.1082 -0.0412 -0.3667
12452TIP3    H158847   0.850   0.300  16.518 -0.4760 -0.8110 -2.5217
12452TIP3    H258848   0.761   0.178  16.516 -0.9126 -0.7354  1.8041
12453TIP3   OH258849   3.649   1.003  15.047  0.4808  0.0124  0.0860
12453TIP3    H158850   3.624   1.056  15.123  0.4695  0.4245 -0.1970
12453TIP3    H258851   3.704   1.061  14.994  0.7160 -0.3612 -0.0847
12454TIP3   OH258852   6.314   3.158   4.980  0.2803  0.3301 -0.0138
12454TIP3    H158853   6.265   3.239   4.992 -1.9005 -0.7809 -0.9236
12454TIP3    H258854   6.400   3.186   4.950 -0.8475  2.2864 -1.6658
12455TIP3   OH258855   2.028   0.161  14.589  0.4137 -0.2483  0.5369
12455TIP3    H158856   1.969   0.235  14.584 -0.1204 -0.6459  0.8941
12455TIP3    H258857   2.056   0.147  14.498 -1.3606 -1.1054  0.0680
12456TIP3   OH258858   1.269   3.101   3.007 -0.0869  0.1132 -0.2950
12456TIP3    H158859   1.204   3.044   3.047  1.2016 -2.0529 -1.1040
12456TIP3    H258860   1.297   3.160   3.077 -2.7642  1.0390  0.0855
12457TIP3   OH258861   5.927   5.654  14.776  0.2705 -0.4620 -0.3108
12457TIP3    H158862   6.003   5.673  14.831  0.3170  1.6863 -1.0348
12457TIP3    H258863   5.961   5.656  14.687 -0.6764  1.0154 -0.6763
12458TIP3   OH258864   1.306   2.039  12.038 -0.0997 -0.9782  0.4101
12458TIP3    H158865   1.232   2.094  12.061 -0.6024 -1.4863  0.0295
12458TIP3    H258866   1.383   2.087  12.070 -0.5288 -0.0784  0.1118
12459TIP3   OH258867   6.610   3.633   3.023  0.0354  0.3027 -0.5191
12459TIP3    H158868   6.535   3.687   3.049 -0.6962 -0.1297 -1.6592
12459TIP3    H258869   6.686   3.676   3.064 -0.8771  0.4276  1.1222
12460TIP3   OH258870   5.531   1.068   5.691  0.1985  0.4140  0.2142
12460TIP3    H158871   5.482   1.080   5.772 -0.5946 -1.5498  0.0789
12460TIP3    H258872   5.480   1.005   5.640  1.3792  0.5429 -1.2197
12461TIP3   OH258873   4.526   3.192   5.867 -0.0325 -0.2109 -0.1179
12461TIP3    H158874   4.522   3.270   5.923  0.1222 -1.5062  1.7748
12461TIP3    H258875   4.537   3.119   5.928 -0.8971 -1.8091 -1.7918
12462TIP3   OH258876   5.108   0.198   2.950  0.0397  0.0754 -0.1247
12462TIP3    H158877   5.152   0.253   2.885  1.1216  0.8502  1.2172
12462TIP3    H258878   5.106   0.111   2.910 -1.6762  1.0101 -2.2806
12463TIP3   OH258879   1.346   6.631   5.343  0.1779 -0.0980 -0.4517
12463TIP3    H158880   1.395   6.594   5.416 -1.0959 -2.3518 -0.6146
12463TIP3    H258881   1.277   6.683   5.384  0.1591 -0.4075 -0.0887
12464TIP3   OH258882   4.711   6.314  14.570 -0.2223 -0.1037 -0.9324
12464TIP3    H158883   4.786   6.373  14.558 -0.5437  0.5323  0.0313
12464TIP3    H258884   4.672   6.342  14.653 -1.0365 -0.9717 -1.0082
12465TIP3   OH258885   0.461   4.721  16.418 -0.0470  0.2344  0.3208
12465TIP3    H158886   0.477   4.815  16.424  0.3307  0.4582 -2.6917
12465TIP3    H258887   0.376   4.708  16.460 -0.0359  1.8760  0.9356
12466TIP3   OH258888   6.505   3.627  14.523 -0.0881  0.0987 -0.4772
12466TIP3    H158889   6.464   3.548  14.557 -0.2790  1.3397  2.4713
12466TIP3    H258890   6.591   3.630  14.567 -1.0848  2.7271  1.5715
12467TIP3   OH258891   4.412   2.436   1.412 -0.2722 -0.0385  0.7199
12467TIP3    H158892   4.462   2.416   1.332 -1.3959 -1.3031  0.2936
12467TIP3    H258893   4.393   2.350   1.449 -2.1310  0.4057  0.8521
12468TIP3   OH258894   1.099   4.762  14.581  0.0303 -0.3380  0.5911
12468TIP3    H158895   1.078   4.707  14.657 -0.0021 -0.5116  0.4552
12468TIP3    H258896   1.095   4.703  14.506  0.4336 -0.2463  0.4963
12469TIP3   OH258897   3.611   1.606  14.724 -0.3977  0.1150 -0.4998
12469TIP3    H158898   3.682   1.625  14.662  0.8306 -0.4559  0.6966
12469TIP3    H258899   3.652   1.611  14.810 -1.0883 -3.0574  0.1125
12470TIP3   OH258900   3.176   6.120   0.383  0.0364 -0.0622 -0.1464
12470TIP3    H158901   3.256   6.165   0.411  1.0262 -1.3499 -0.7975
12470TIP3    H258902   3.206   6.059   0.315 -1.2814 -1.5460  0.5605
12471TIP3   OH258903   3.800   6.573   4.938 -0.0520 -0.0625  0.2107
12471TIP3    H158904   3.890   6.552   4.914 -0.0910  1.1061 -1.0306
12471TIP3    H258905   3.804   6.663   4.970 -0.7886  0.0281  0.0610
12472TIP3   OH258906   2.135   6.129   4.742  0.3915 -0.4816  0.0586
12472TIP3    H158907   2.225   6.113   4.771  0.8821  0.8883 -0.6302
12472TIP3    H258908   2.136   6.219   4.709 -1.4417 -0.1406  0.8047
12473TIP3   OH258909   6.098   0.891  16.268 -0.6318 -0.2784 -0.3967
12473TIP3    H158910   6.053   0.809  16.249 -0.5158 -0.6171  0.7197
12473TIP3    H258911   6.029   0.952  16.291 -0.6156 -0.5031  0.2761
12474TIP3   OH258912   1.051   0.737  16.125  0.4178 -0.1222  0.3948
12474TIP3    H158913   1.022   0.647  16.118 -0.0735  0.0581  0.1135
12474TIP3    H258914   1.121   0.745  16.060  3.0820 -1.3141  2.8906
12475TIP3   OH258915   3.399   2.803  15.111  0.1064 -0.0738  0.0312
12475TIP3    H158916   3.404   2.779  15.204 -1.3899  0.9459  0.4079
12475TIP3    H258917   3.443   2.887  15.105  0.8112 -0.4596 -0.3310
12476TIP3   OH258918   0.513   0.101  12.569 -0.6692  0.3131  0.2775
12476TIP3    H158919   0.561   0.026  12.605 -1.8560 -0.8963 -0.5798
12476TIP3    H258920   0.540   0.105  12.477 -2.1201 -0.3418 -0.2006
12477TIP3   OH258921   2.498   6.067   5.019  0.2422 -0.0153  0.0708
12477TIP3    H158922   2.581   6.092   5.058  0.1765 -0.2283  0.3465
12477TIP3    H258923   2.435   6.130   5.053  0.6497  1.4767 -1.7709
12478TIP3   OH258924   4.212   6.447   0.896  0.6386  0.3963  0.0460
12478TIP3    H158925   4.263   6.525   0.871  1.2567 -0.0405 -0.0976
12478TIP3    H258926   4.237   6.382   0.830  2.0838 -0.7073  1.6077
12479TIP3   OH258927   4.803   6.388   4.787 -0.2761 -0.1684  0.1723
12479TIP3    H158928   4.851   6.331   4.848  0.3127 -0.2233 -0.3429
12479TIP3    H258929   4.711   6.378   4.814 -0.2218 -1.5497 -0.0468
12480TIP3   OH258930   0.304   5.687   6.385 -0.7338 -0.1642  0.6378
12480TIP3    H158931   0.210   5.673   6.394 -0.7256  0.3140  1.5981
12480TIP3    H258932   0.343   5.636   6.457 -0.2702 -0.2360  0.3391
12481TIP3   OH258933   5.751   3.325  11.160 -0.0572 -0.2497 -0.5807
12481TIP3    H158934   5.737   3.268  11.235  0.5560 -1.4720 -1.3534
12481TIP3    H258935   5.751   3.265  11.085  0.2994  0.8161 -1.4498
12482TIP3   OH258936   1.423   3.307   4.301 -0.0436  0.1776  0.8213
12482TIP3    H158937   1.435   3.232   4.360 -0.5686  0.6946  1.6161
12482TIP3    H258938   1.510   3.325   4.267 -0.1647 -1.8844 -0.7992
12483TIP3   OH258939   0.906   5.067   6.204 -0.0758  0.1572  0.1662
12483TIP3    H158940   0.840   5.043   6.269  1.7195 -0.3159  1.9213
12483TIP3    H258941   0.945   5.148   6.238  0.1839  0.4810 -0.8726
12484TIP3   OH258942   4.576   6.591  12.724 -0.2652  0.2117  0.3114
12484TIP3    H158943   4.669   6.612  12.716 -0.7342  2.3694 -0.2212
12484TIP3    H258944   4.555   6.545  12.642  0.4333 -0.8972  0.7221
12485TIP3   OH258945   1.205   2.005   4.114  0.1790  0.5727  0.2019
12485TIP3    H158946   1.288   2.038   4.148 -0.0324  0.0594  1.2723
12485TIP3    H258947   1.154   1.984   4.192 -0.3642 -0.5729 -0.4352
12486TIP3   OH258948   1.627   1.737   6.406 -0.1632  0.1166  0.2375
12486TIP3    H158949   1.565   1.665   6.421  0.0424 -0.2539 -0.6663
12486TIP3    H258950   1.704   1.696   6.368  0.5038  0.6351  0.9943
12487TIP3   OH258951   5.475   4.003  12.760 -0.1479  0.1905  0.2922
12487TIP3    H158952   5.561   4.008  12.717  0.1770  0.1369  0.9325
12487TIP3    H258953   5.430   3.932  12.715  0.5980 -0.5853  0.7574
12488TIP3   OH258954   0.921   1.123  12.956 -0.2341  0.1440 -0.5556
12488TIP3    H158955   0.897   1.036  12.924  1.6018 -0.0067 -1.6471
12488TIP3    H258956   0.916   1.115  13.051  0.9701 -1.5040 -0.5909
12489TIP3   OH258957   5.953   5.308  16.505 -0.4828  0.7153  0.1998
12489TIP3    H158958   5.963   5.337  16.595 -0.4315  2.1862 -0.2619
12489TIP3    H258959   5.954   5.212  16.511  1.8428  0.7352  1.5217
12490TIP3   OH258960   0.703   6.636  11.613 -0.2137  0.0138 -0.4472
12490TIP3    H158961   0.681   6.631  11.706  1.4615  1.0094  0.0690
12490TIP3    H258962   0.774   6.701  11.610  1.2585 -1.5838 -2.1290
12491TIP3   OH258963   2.931   0.547  13.497  0.0768  0.3205  0.0449
12491TIP3    H158964   3.010   0.493  13.502 -0.1527  0.0248  0.6250
12491TIP3    H258965   2.859   0.483  13.489 -0.1064  0.5854 -0.4625
12492TIP3   OH258966   5.281   3.427   5.670  0.2334  0.0477  0.0284
12492TIP3    H158967   5.304   3.342   5.632 -1.2418 -1.0794  1.4787
12492TIP3    H258968   5.214   3.462   5.612 -0.9291 -0.9717  0.6914
12493TIP3   OH258969   3.000   2.969   5.371 -0.2403 -0.1369 -0.4709
12493TIP3    H158970   2.980   2.927   5.455 -0.8833 -1.2827 -1.1687
12493TIP3    H258971   2.973   3.060   5.383  0.4881 -0.0593  0.8393
12494TIP3   OH258972   4.486   4.487   5.257 -0.2292  0.2604 -0.2134
12494TIP3    H158973   4.550   4.553   5.283 -0.3582  0.0920  0.5412
12494TIP3    H258974   4.401   4.524   5.283 -0.2746 -0.3501  0.5629
12495TIP3   OH258975   3.053   3.845  15.699  0.4904 -0.0601 -0.0873
12495TIP3    H158976   3.114   3.838  15.626  0.3479  0.5670 -0.2740
12495TIP3    H258977   3.105   3.822  15.776  1.1809  1.2181 -0.1468
12496TIP3   OH258978   1.093   4.668   1.914  0.2355  0.2010  0.4507
12496TIP3    H158979   1.118   4.686   1.824 -0.6226 -0.8176 -0.0107
12496TIP3    H258980   1.107   4.751   1.960  0.1447  0.8977 -0.7380
12497TIP3   OH258981   1.858   2.677   0.081  0.6044 -0.3295  0.1411
12497TIP3    H158982   1.867   2.766   0.117 -0.1473 -0.6302  1.1241
12497TIP3    H258983   1.932   2.629   0.118  0.8170 -0.1972 -0.1130
12498TIP3   OH258984   0.582   5.784   0.754 -0.0282  0.1270  0.2499
12498TIP3    H158985   0.591   5.856   0.817 -0.5210  0.3773  0.0425
12498TIP3    H258986   0.670   5.773   0.717 -0.2573  1.6900 -0.8635
12499TIP3   OH258987   3.746   5.579   3.767  0.1759 -0.3305  0.5548
12499TIP3    H158988   3.674   5.530   3.726 -0.6276  0.2069  1.2763
12499TIP3    H258989   3.718   5.670   3.763  0.1233 -0.2531  2.1444
12500TIP3   OH258990   3.286   1.499   0.603 -0.4911 -0.2355  0.2273
12500TIP3    H158991   3.234   1.473   0.527 -0.8493  0.9031  0.0610
12500TIP3    H258992   3.364   1.540   0.565 -0.9447  0.8765  0.4433
12501TIP3   OH258993   0.205   1.967  16.781  0.4326 -0.2152 -0.4045
12501TIP3    H158994   0.152   2.000  16.708 -0.1057 -1.0769 -0.4163
12501TIP3    H258995   0.200   1.872  16.773 -0.5595 -0.3719  1.3972
12502TIP3   OH258996   6.343   5.719   1.345 -0.3855 -0.1222 -0.3969
12502TIP3    H158997   6.368   5.713   1.437  1.0360 -0.5637 -0.7852
12502TIP3    H258998   6.370   5.806   1.318  1.4615 -0.8261 -0.9862
12503TIP3   OH258999   1.220   0.613   2.541 -0.8197  0.1797  0.5090
12503TIP3    H159000   1.207   0.574   2.628 -1.2568  1.2683  0.9449
12503TIP3    H259001   1.138   0.658   2.522 -0.1867  1.2383  0.2027
12504TIP3   OH259002   0.782   4.027   1.816 -0.2138 -0.1940 -0.6302
12504TIP3    H159003   0.785   3.932   1.828 -0.2735 -0.1034  0.1138
12504TIP3    H259004   0.835   4.043   1.737 -1.9679 -1.0483 -2.0441
12505TIP3   OH259005   3.879   5.162  16.164  0.9547  0.1584  0.3577
12505TIP3    H159006   3.853   5.254  16.171 -0.5169 -0.1939 -0.0544
12505TIP3    H259007   3.936   5.159  16.087  2.7342  1.0438  1.5593
12506TIP3   OH259008   5.289   2.523  11.264 -0.0961 -0.0935  0.6462
12506TIP3    H159009   5.365   2.549  11.317  1.7443 -0.5143 -1.6371
12506TIP3    H259010   5.313   2.437  11.228  0.0670  1.3550 -3.0910
12507TIP3   OH259011   5.540   4.547   2.493  0.0019  0.5988  0.2155
12507TIP3    H159012   5.625   4.533   2.451 -0.1673  1.1772 -0.3204
12507TIP3    H259013   5.540   4.639   2.517 -0.9016  0.8645 -0.7487
12508TIP3   OH259014   5.414   6.824   3.841  0.5288  0.4905 -0.0853
12508TIP3    H159015   5.456   6.873   3.769  1.9069 -0.4071  0.0735
12508TIP3    H259016   5.366   6.891   3.890  0.9913  1.4062 -0.8416
12509TIP3   OH259017   5.845   6.490  13.257 -0.3248  0.7967 -0.5302
12509TIP3    H159018   5.890   6.476  13.340  1.2570 -0.9983 -1.6088
12509TIP3    H259019   5.768   6.542  13.280  0.2063  0.6054  1.9902
12510TIP3   OH259020   3.834   3.027  13.438 -0.4778 -0.3221  0.3464
12510TIP3    H159021   3.920   2.997  13.467 -1.0180 -1.2388  1.0488
12510TIP3    H259022   3.842   3.033  13.343 -0.2420 -2.4957  0.1688
12511TIP3   OH259023   1.950   5.088   6.332  0.2571  0.1123  0.6234
12511TIP3    H159024   1.938   5.080   6.237 -0.8790  2.3701  0.5257
12511TIP3    H259025   2.018   5.023   6.352  0.3439 -0.6192 -1.6705
12512TIP3   OH259026   2.050   4.079   3.902 -0.1220 -0.6545  0.2882
12512TIP3    H159027   2.090   3.993   3.912 -1.5024 -1.2915  0.6010
12512TIP3    H259028   2.106   4.138   3.953  1.3065 -1.1900 -0.5999
12513TIP3   OH259029   2.895   6.266  15.074 -0.1773  0.1569 -0.0165
12513TIP3    H159030   2.871   6.342  15.127 -0.4184 -0.8496  1.3814
12513TIP3    H259031   2.814   6.244  15.028 -0.5415 -0.1239  0.7260
12514TIP3   OH259032   6.426   2.250  10.942  0.4230 -0.1374  0.2108
12514TIP3    H159033   6.420   2.176  11.003 -0.6292  0.2559  0.5958
12514TIP3    H259034   6.387   2.218  10.861  1.8757 -0.6802 -0.3033
12515TIP3   OH259035   0.340   1.151  16.262 -0.4076  0.0997  0.1631
12515TIP3    H159036   0.414   1.142  16.321  1.2606  1.8790 -1.5110
12515TIP3    H259037   0.294   1.067  16.267 -0.0318 -0.0157  3.4683
12516TIP3   OH259038   6.704   0.496  15.015 -0.3206  0.3063 -0.5447
12516TIP3    H159039   6.791   0.464  15.041 -0.1090  1.1884 -0.1271
12516TIP3    H259040   6.660   0.419  14.978 -0.6618 -1.0947  2.4638
12517TIP3   OH259041   3.318   0.206   2.389 -0.2810 -0.1515  0.0372
12517TIP3    H159042   3.224   0.189   2.399 -0.6572  0.4215 -1.9923
12517TIP3    H259043   3.361   0.129   2.428 -1.6191 -0.9243  0.0439
12518TIP3   OH259044   3.779   0.339   3.007  0.1617 -0.8369 -0.0907
12518TIP3    H159045   3.810   0.266   2.954 -0.9474  0.0377 -2.0435
12518TIP3    H259046   3.795   0.416   2.953 -2.2570 -0.0402  0.2375
12519TIP3   OH259047   3.546   3.704   3.136  0.4337  0.1598 -0.2835
12519TIP3    H159048   3.486   3.761   3.183 -0.1305 -1.2313  0.7429
12519TIP3    H259049   3.616   3.762   3.106 -1.3032  1.7959 -1.3760
12520TIP3   OH259050   4.172   1.907   1.410 -0.4553  0.5197 -0.3967
12520TIP3    H159051   4.089   1.914   1.458 -0.7169  2.8068 -1.0815
12520TIP3    H259052   4.146   1.911   1.318  0.3413 -0.1419 -0.6622
12521TIP3   OH259053   5.413   2.844  11.830  0.2913  0.4529  0.1760
12521TIP3    H159054   5.497   2.865  11.871 -0.2130  2.0437  0.4467
12521TIP3    H259055   5.436   2.822  11.740  1.1767 -1.0000  0.7029
12522TIP3   OH259056   2.866   1.767  13.739 -0.7137 -0.0292  0.3398
12522TIP3    H159057   2.892   1.677  13.757  0.3554  0.4979  1.5726
12522TIP3    H259058   2.789   1.781  13.795 -0.8072 -0.1400  0.2386
12523TIP3   OH259059   1.469   1.696  12.120 -0.6189 -0.5424  0.1281
12523TIP3    H159060   1.491   1.734  12.035 -0.8838 -0.3660  0.1374
12523TIP3    H259061   1.451   1.604  12.101  2.1803 -1.2545  0.4174
12524TIP3   OH259062   6.774   2.484   2.467 -0.5095 -0.6150  0.3595
12524TIP3    H159063   6.770   2.407   2.411 -0.3582  0.0410 -0.5702
12524TIP3    H259064   6.855   2.528   2.442  0.2591 -0.9746  2.0126
12525TIP3   OH259065   2.492   2.403  15.836 -0.6453  0.0349 -0.3340
12525TIP3    H159066   2.411   2.362  15.806  0.2713 -0.9662 -1.6021
12525TIP3    H259067   2.518   2.460  15.764  0.7687 -1.1691 -0.8237
12526TIP3   OH259068   5.075   6.421   4.035 -0.2355  0.1447 -0.2095
12526TIP3    H159069   5.031   6.427   4.120 -0.5645  0.9263 -0.4299
12526TIP3    H259070   5.164   6.450   4.052 -0.1933 -0.0777 -0.0497
12527TIP3   OH259071   5.799   1.571   4.128 -0.0879  0.9387  0.4689
12527TIP3    H159072   5.878   1.517   4.139 -0.1109  0.0792 -2.5464
12527TIP3    H259073   5.832   1.653   4.092 -0.3804  1.6242  1.7202
12528TIP3   OH259074   0.166   0.474   4.543 -0.3452 -0.1672 -0.5802
12528TIP3    H159075   0.215   0.499   4.465  0.1178 -0.3516 -0.3513
12528TIP3    H259076   0.192   0.539   4.609  0.0690 -0.6379 -0.2799
12529TIP3   OH259077   3.985   2.652   0.391  0.9356 -0.1435 -0.5719
12529TIP3    H159078   3.923   2.585   0.420  0.6186 -0.0472 -1.0112
12529TIP3    H259079   4.058   2.645   0.452  0.3680 -0.0655  0.1325
12530TIP3   OH259080   4.343   3.370  14.723  0.1141  0.0317  0.0425
12530TIP3    H159081   4.361   3.287  14.769 -0.6836  0.5311  1.3197
12530TIP3    H259082   4.308   3.343  14.638  0.1018 -0.9510  0.3447
12531TIP3   OH259083   4.877   3.868  14.108  0.2120  0.1627 -0.6109
12531TIP3    H159084   4.926   3.846  14.188  0.8441  1.2288 -0.6801
12531TIP3    H259085   4.786   3.847  14.130  0.3758  0.4055  0.3907
12532TIP3   OH259086   0.755   2.287   2.194  0.3817 -0.0618  0.2581
12532TIP3    H159087   0.761   2.332   2.278  1.0046  1.2972 -0.4788
12532TIP3    H259088   0.661   2.274   2.180  0.2252  0.4676  0.7787
12533TIP3   OH259089   2.093   3.510   1.171  0.2582 -0.0726  0.1278
12533TIP3    H159090   2.179   3.507   1.130  0.3302  0.4046  0.2387
12533TIP3    H259091   2.096   3.588   1.227  0.0708 -0.5599  0.8280
12534TIP3   OH259092   2.918   1.015   1.096 -0.2157  0.3781  0.2049
12534TIP3    H159093   2.881   1.025   1.008  0.6867 -0.6678 -0.3134
12534TIP3    H259094   2.891   1.095   1.142 -0.5870  1.0138 -1.0603
12535TIP3   OH259095   6.220   3.866   2.098  0.6129 -0.2097 -0.3596
12535TIP3    H159096   6.208   3.955   2.131  1.8906  0.0680 -0.5758
12535TIP3    H259097   6.258   3.818   2.172 -1.2972 -0.9509  0.1924
12536TIP3   OH259098   5.827   6.585   1.606  0.4995  0.0334  0.0470
12536TIP3    H159099   5.814   6.554   1.695 -1.1605  1.2171  0.2544
12536TIP3    H259100   5.908   6.542   1.577  1.0972 -0.3227  2.1185
12537TIP3   OH259101   6.702   6.037  14.687  0.3988 -0.2998  0.3642
12537TIP3    H159102   6.759   5.970  14.649  0.4317 -1.6739  2.6160
12537TIP3    H259103   6.760   6.090  14.741  0.1539  0.7558 -0.3940
12538TIP3   OH259104   5.554   4.892   2.096  0.1440  0.3446  0.5594
12538TIP3    H159105   5.587   4.842   2.021 -1.6240  0.0284 -0.0546
12538TIP3    H259106   5.472   4.930   2.065  0.2047  1.5944  1.8239
12539TIP3   OH259107   6.420   5.882  11.950  0.1585  0.4489  0.2846
12539TIP3    H159108   6.417   5.916  12.040 -0.0914 -0.4566  0.6265
12539TIP3    H259109   6.513   5.865  11.934  0.0327 -1.2096  1.0907
12540TIP3   OH259110   2.104   5.691  12.064  0.6698  0.4339  0.0920
12540TIP3    H159111   2.086   5.769  12.011 -2.0370 -0.1996 -0.0834
12540TIP3    H259112   2.125   5.623  11.999 -0.2612  0.2338 -0.0050
12541TIP3   OH259113   1.879   3.426   1.394  0.0583  0.3726 -0.3681
12541TIP3    H159114   1.875   3.397   1.302 -0.7968  2.0147 -0.8800
12541TIP3    H259115   1.802   3.386   1.435  0.7643 -0.8628 -0.1638
12542TIP3   OH259116   3.332   0.379  13.105 -0.4212 -0.4388 -0.0592
12542TIP3    H159117   3.311   0.471  13.121 -0.7660 -0.2735 -1.3041
12542TIP3    H259118   3.428   0.378  13.097 -0.0979 -0.7430  2.9885
12543TIP3   OH259119   2.745   0.662  12.531 -0.1684 -0.0597 -0.3735
12543TIP3    H159120   2.685   0.594  12.561  0.0218  0.2247  0.7173
12543TIP3    H259121   2.818   0.614  12.493 -0.4497 -0.4424 -0.4417
12544TIP3   OH259122   3.714   5.433  10.547  0.1309 -0.0187  0.6678
12544TIP3    H159123   3.688   5.499  10.611 -0.9059  0.3461 -0.1083
12544TIP3    H259124   3.769   5.480  10.485 -0.1060 -0.0133  0.4583
12545TIP3   OH259125   5.437   1.635  12.699 -0.1845  0.0411 -0.2452
12545TIP3    H159126   5.443   1.591  12.784 -0.9868  0.8406  0.2269
12545TIP3    H259127   5.526   1.669  12.685 -0.5084  1.6169  1.2107
12546TIP3   OH259128   0.974   0.693  15.184 -0.4852 -0.1724  0.0714
12546TIP3    H159129   0.984   0.677  15.090  2.8474 -1.4352  0.5202
12546TIP3    H259130   1.002   0.784  15.196 -1.7710  0.2872 -0.1989
12547TIP3   OH259131   2.085   6.699   6.653 -0.3254  0.4660 -0.3173
12547TIP3    H159132   2.074   6.609   6.622  0.5860  0.6029 -1.0724
12547TIP3    H259133   2.100   6.750   6.574 -0.7458  1.2798  0.1163
12548TIP3   OH259134   1.295   3.674  12.251  0.5053 -0.0852  0.2566
12548TIP3    H159135   1.217   3.654  12.303  0.9986  0.3324  1.1923
12548TIP3    H259136   1.310   3.767  12.265  1.4652 -0.2646  0.5019
12549TIP3   OH259137   1.147   5.134   1.529  0.4788 -0.5236 -0.1704
12549TIP3    H159138   1.119   5.154   1.619  0.8775  0.0500 -0.1656
12549TIP3    H259139   1.120   5.211   1.479  2.9840  0.5716  0.0345
12550TIP3   OH259140   3.846   1.181   1.240  0.3507  0.1060  0.8383
12550TIP3    H159141   3.908   1.196   1.311  0.9939 -0.1929  0.3577
12550TIP3    H259142   3.863   1.252   1.178  2.0363 -1.3762 -0.5136
12551TIP3   OH259143   3.324   2.802  13.955  0.0364  0.3747  0.0734
12551TIP3    H159144   3.298   2.710  13.948 -1.7267  0.8329  0.1920
12551TIP3    H259145   3.401   2.809  13.898 -2.2592 -0.3156 -3.4827
12552TIP3   OH259146   2.277   4.648  12.618 -0.0129  0.1903 -0.0517
12552TIP3    H159147   2.253   4.679  12.531 -2.0457 -0.5302  0.2171
12552TIP3    H259148   2.266   4.724  12.675 -0.0403  0.2855 -0.1849
12553TIP3   OH259149   5.576   5.488  12.160  0.0358  0.4073 -0.0505
12553TIP3    H159150   5.560   5.449  12.075  1.2281 -0.4490  0.0962
12553TIP3    H259151   5.671   5.483  12.171 -0.2095 -0.8576  1.9513
12554TIP3   OH259152   5.009   2.709  10.676  0.2266 -0.1905  0.1663
12554TIP3    H159153   5.025   2.675  10.588 -0.8660  0.0981 -0.1630
12554TIP3    H259154   4.923   2.751  10.670 -0.1950 -0.7936  1.5558
12555TIP3   OH259155   5.349   3.816   3.576  0.3041  0.2303  0.2969
12555TIP3    H159156   5.387   3.730   3.593  1.6170  0.5263 -0.9116
12555TIP3    H259157   5.419   3.878   3.598  0.6097  0.7892 -1.9575
12556TIP3   OH259158   2.204   3.073   2.567  0.2023  0.2190 -0.5393
12556TIP3    H159159   2.151   3.123   2.505  0.1481  1.0711  0.1776
12556TIP3    H259160   2.140   3.019   2.615 -0.0239  1.1426  0.2293
12557TIP3   OH259161   5.040   5.535  11.829  0.1626  0.2534 -0.7371
12557TIP3    H159162   5.000   5.614  11.866 -0.1873  1.1261 -2.8107
12557TIP3    H259163   5.098   5.568  11.760  1.4262 -1.2200 -0.4290
12558TIP3   OH259164   0.356   1.829  11.333  0.2508 -0.1979 -0.4608
12558TIP3    H159165   0.432   1.773  11.322  0.5122  0.1180 -0.2521
12558TIP3    H259166   0.286   1.783  11.285  0.3393 -0.9357  0.0991
12559TIP3   OH259167   1.777   0.317  12.190  0.0342 -0.0563  0.7242
12559TIP3    H159168   1.843   0.346  12.253  2.2781 -0.5398 -1.2523
12559TIP3    H259169   1.802   0.227  12.169 -0.0207  0.3933 -1.5108
12560TIP3   OH259170   3.107   5.536  11.566 -0.1962  0.3112  0.0118
12560TIP3    H159171   3.140   5.447  11.558 -2.4684 -0.4576 -1.6902
12560TIP3    H259172   3.088   5.564  11.476  0.7209  2.6656  0.4541
12561TIP3   OH259173   2.069   4.011   3.558 -0.4813  0.2574 -0.2306
12561TIP3    H159174   2.004   3.973   3.617 -1.3742 -0.7471 -1.7934
12561TIP3    H259175   2.151   3.968   3.580  0.2369  2.8949  3.0915
12562TIP3   OH259176   4.084   6.008  12.202 -0.1711  0.3081  0.3400
12562TIP3    H159177   4.144   6.005  12.276  0.7763 -1.2363 -0.4421
12562TIP3    H259178   4.095   5.924  12.158 -1.1517  0.9377 -1.2161
12563TIP3   OH259179   6.634   0.093   1.497  0.0353  0.4171  0.3897
12563TIP3    H159180   6.577   0.021   1.523  1.4019 -0.3164  1.5402
12563TIP3    H259181   6.618   0.105   1.404 -1.2075 -0.4546  0.4685
12564TIP3   OH259182   2.460   3.557  13.141 -0.0426 -0.0383  0.5089
12564TIP3    H159183   2.543   3.510  13.143  1.2485  2.1567  1.1366
12564TIP3    H259184   2.397   3.495  13.179  2.3055 -0.0035  5.1565
12565TIP3   OH259185   5.887   2.068  14.299  0.2822 -0.5492  0.2267
12565TIP3    H159186   5.842   1.998  14.252  0.6545 -0.9792  0.5026
12565TIP3    H259187   5.928   2.024  14.373  3.2788 -0.6456 -1.3481
12566TIP3   OH259188   3.924   1.009  11.346  0.1661  0.0632  0.1216
12566TIP3    H159189   3.901   1.064  11.271  1.2197 -0.6913 -0.7777
12566TIP3    H259190   3.878   1.049  11.420 -0.7263  0.9371 -0.8836
12567TIP3   OH259191   2.171   6.469   3.090 -0.0877  0.1045 -0.2100
12567TIP3    H159192   2.079   6.444   3.082  0.4189 -1.7302 -0.6574
12567TIP3    H259193   2.189   6.466   3.184 -0.0904 -1.0998 -0.2407
12568TIP3   OH259194   5.817   6.594   3.385 -0.1698  0.2429  0.1763
12568TIP3    H159195   5.881   6.665   3.389  0.2044 -0.0543 -0.4080
12568TIP3    H259196   5.785   6.595   3.295 -0.2420 -0.2578  0.1957
12569TIP3   OH259197   1.255   5.814  14.117 -0.2014 -0.2296 -0.4583
12569TIP3    H159198   1.276   5.794  14.209  0.7244  0.5172 -0.4978
12569TIP3    H259199   1.185   5.879  14.122 -0.7072 -0.7676 -0.3052
12570TIP3   OH259200   5.760   3.012  15.405 -0.3480  0.5993 -0.0444
12570TIP3    H159201   5.664   3.011  15.401 -0.3532  1.8859 -0.8877
12570TIP3    H259202   5.788   3.026  15.315  0.6472  0.1890  0.1870
12571TIP3   OH259203   2.641   2.210  15.946 -0.6536  0.5789  0.4783
12571TIP3    H159204   2.632   2.141  15.881 -0.0654  2.4870 -1.7324
12571TIP3    H259205   2.589   2.283  15.912  1.3306  2.3545  1.0505
12572TIP3   OH259206   4.120   0.235  12.964 -0.1954  0.0457  0.4837
12572TIP3    H159207   4.027   0.258  12.958 -0.4702 -0.4308  2.2910
12572TIP3    H259208   4.146   0.261  13.052  0.3968 -3.0511  1.3741
12573TIP3   OH259209   0.862   1.388   0.774  1.2488 -0.0230  0.4612
12573TIP3    H159210   0.815   1.449   0.718  1.8128  1.6613  1.7291
12573TIP3    H259211   0.812   1.306   0.769  0.5907  0.4493 -1.4415
12574TIP3   OH259212   3.487   2.384   0.482  0.8261  0.0530 -0.1514
12574TIP3    H159213   3.549   2.315   0.503  1.4064 -0.0154 -1.8844
12574TIP3    H259214   3.501   2.451   0.548  1.5329 -0.7116  0.4785
12575TIP3   OH259215   4.702   3.722   2.019  0.0149  0.1967 -0.3327
12575TIP3    H159216   4.777   3.666   1.997  0.5440  1.1593 -1.0687
12575TIP3    H259217   4.659   3.677   2.091 -0.3068 -1.7964 -1.7017
12576TIP3   OH259218   6.121   3.724   1.351  0.0476 -0.0265  0.1629
12576TIP3    H159219   6.180   3.649   1.344 -1.7856 -1.5966  0.8292
12576TIP3    H259220   6.081   3.731   1.264 -0.1409 -0.1235  0.2424
12577TIP3   OH259221   4.502   3.001   4.253  0.5388 -0.1824  0.3667
12577TIP3    H159222   4.419   2.953   4.250 -0.1726  1.0246  0.0127
12577TIP3    H259223   4.527   3.012   4.161  0.2955  0.7687  0.4056
12578TIP3   OH259224   1.949   1.195   0.794 -0.2535  0.0472 -0.3868
12578TIP3    H159225   1.945   1.284   0.829 -0.9203 -0.5914  1.2621
12578TIP3    H259226   2.039   1.166   0.813  0.2228  0.6325 -1.6684
12579TIP3   OH259227   2.587   4.672   0.127 -0.5938  0.3536 -0.3868
12579TIP3    H159228   2.570   4.579   0.142  0.7476  0.0363 -0.6915
12579TIP3    H259229   2.608   4.678   0.034  0.9359  0.6593 -0.0550
12580TIP3   OH259230   4.492   0.918  15.408  0.6582 -0.5072  0.0782
12580TIP3    H159231   4.551   0.975  15.359  1.8650 -0.9036  1.0224
12580TIP3    H259232   4.493   0.954  15.497  0.7617 -1.4834  0.4797
12581TIP3   OH259233   3.514   2.059  11.391 -0.1019 -0.2799  0.0446
12581TIP3    H159234   3.421   2.068  11.371  0.2217  0.4597 -1.2305
12581TIP3    H259235   3.523   1.970  11.426 -1.2210 -0.5087 -0.2322
12582TIP3   OH259236   6.182   1.608   1.470 -0.1048 -0.1178 -0.0304
12582TIP3    H159237   6.132   1.531   1.443  0.4179 -0.6734  0.5618
12582TIP3    H259238   6.115   1.675   1.485 -0.6982 -0.8865  0.8888
12583TIP3   OH259239   4.670   1.498   3.131  0.1035 -0.1914  0.1104
12583TIP3    H159240   4.602   1.560   3.106  0.2002 -0.1936 -0.1617
12583TIP3    H259241   4.623   1.417   3.153 -0.0343  0.0215  0.6137
12584TIP3   OH259242   0.422   1.015  11.460 -0.3064  0.0677 -0.5605
12584TIP3    H159243   0.366   0.964  11.519 -0.3651  0.2924 -0.4207
12584TIP3    H259244   0.503   1.028  11.510 -0.6833  1.0314 -0.1620
12585TIP3   OH259245   0.839   6.391  11.923  0.3319 -0.2762  0.5461
12585TIP3    H159246   0.827   6.349  12.008  0.1772 -0.5823  0.3734
12585TIP3    H259247   0.758   6.439  11.908  0.1913 -0.5669  0.3776
12586TIP3   OH259248   0.934   3.729   2.356  0.1654 -0.4552  0.5081
12586TIP3    H159249   0.977   3.709   2.273  0.5106  4.5397 -0.8927
12586TIP3    H259250   0.841   3.714   2.340  0.5241 -4.2919  1.1084
12587TIP3   OH259251   0.068   0.672  13.567 -0.0644 -0.5237  0.0443
12587TIP3    H159252  -0.009   0.621  13.592 -0.7850  0.1750 -0.6963
12587TIP3    H259253   0.115   0.686  13.649 -1.3984  0.1387  0.7348
12588TIP3   OH259254   0.888   3.939   3.823 -0.3023 -0.1777  0.0160
12588TIP3    H159255   0.917   3.948   3.914 -0.2942  0.4933 -0.0480
12588TIP3    H259256   0.932   3.860   3.791  0.3270  0.0327  0.3516
12589TIP3   OH259257   2.123   5.625   4.416  0.4005  0.5723 -0.2204
12589TIP3    H159258   2.091   5.643   4.504 -1.8681 -1.6869 -0.4984
12589TIP3    H259259   2.162   5.538   4.421  2.8018  1.5102 -0.9120
12590TIP3   OH259260   5.803   6.675  16.679 -0.2395  0.1145  0.1826
12590TIP3    H159261   5.832   6.699  16.767  0.4474  0.1571 -0.0522
12590TIP3    H259262   5.855   6.598  16.657 -0.9172 -0.3216  0.0894
12591TIP3   OH259263   6.055   3.979  15.669  0.3403  0.3665  0.1568
12591TIP3    H159264   6.116   3.905  15.673 -1.6106 -1.3823 -0.9964
12591TIP3    H259265   6.006   3.974  15.751 -0.1087  0.0741 -0.1254
12592TIP3   OH259266   2.580   2.662   0.639 -0.5123  0.3241  0.2233
12592TIP3    H159267   2.490   2.679   0.667 -0.3892  2.5645 -0.5350
12592TIP3    H259268   2.625   2.636   0.719 -1.9057 -1.4143  0.5226
12593TIP3   OH259269   1.766   2.074  16.141  0.1280 -0.0650 -0.1450
12593TIP3    H159270   1.700   2.104  16.203  0.5167  0.5247 -0.0096
12593TIP3    H259271   1.731   2.097  16.055 -0.2760 -0.6178 -0.1328
12594TIP3   OH259272   5.849   2.347   1.188  0.0782 -0.4403  0.3896
12594TIP3    H159273   5.880   2.342   1.279 -0.0634  1.6712  0.5982
12594TIP3    H259274   5.928   2.333   1.135  0.4754 -0.0277  0.8623
12595TIP3   OH259275   1.192   5.013  11.419 -0.1257 -0.2645  0.4692
12595TIP3    H159276   1.230   4.926  11.404 -0.4477 -0.0534 -1.9012
12595TIP3    H259277   1.097   5.000  11.409 -0.2901  0.1471  1.3625
12596TIP3   OH259278   4.708   3.202  12.263  0.3461  0.1796  0.5782
12596TIP3    H159279   4.758   3.125  12.237  1.0161  1.4824 -2.4362
12596TIP3    H259280   4.717   3.206  12.358 -0.1103 -3.6443  0.9191
12597TIP3   OH259281   3.590   1.467   2.222 -0.6814  0.0530  0.2777
12597TIP3    H159282   3.499   1.442   2.241 -1.8902  3.4438 -0.2902
12597TIP3    H259283   3.582   1.547   2.170  2.6498  0.7573  0.6429
12598TIP3   OH259284   5.475   2.842  15.091 -0.0088  0.1401  0.1615
12598TIP3    H159285   5.510   2.864  15.177  0.0770 -1.3781  0.5561
12598TIP3    H259286   5.383   2.824  15.107  0.0639 -0.3976 -0.0031
12599TIP3   OH259287   6.824   2.547  16.349  0.7368  0.1754  0.1584
12599TIP3    H159288   6.851   2.456  16.345 -0.1342 -0.3170  3.1973
12599TIP3    H259289   6.903   2.594  16.377  0.7116  0.0458  0.4545
12600TIP3   OH259290   3.378   6.520  12.416  0.0064 -0.6540  0.4212
12600TIP3    H159291   3.435   6.456  12.375 -2.7261 -2.4804 -0.8140
12600TIP3    H259292   3.365   6.488  12.505  0.7785 -0.2912  0.6707
12601TIP3   OH259293   1.628   6.791   0.875  0.1134 -0.0333  0.3508
12601TIP3    H159294   1.642   6.696   0.868 -0.5506 -0.0747 -0.6887
12601TIP3    H259295   1.698   6.830   0.823  0.1182  0.0283  0.4030
12602TIP3   OH259296   4.073   1.247  14.773  0.6918  0.2071  0.4808
12602TIP3    H159297   4.014   1.207  14.837  0.0617  2.2402  1.2502
12602TIP3    H259298   4.133   1.300  14.826  1.5667  0.2053 -0.4824
12603TIP3   OH259299   4.667   2.992   5.520  0.2942  0.0860 -0.0668
12603TIP3    H159300   4.575   3.019   5.523  0.2873 -0.0198  0.7127
12603TIP3    H259301   4.712   3.050   5.581  0.7650  0.1774 -0.4873
12604TIP3   OH259302   6.838   4.749  15.212 -0.1154 -0.2261  0.6545
12604TIP3    H159303   6.798   4.834  15.233  0.5220  0.5398 -1.0163
12604TIP3    H259304   6.827   4.697  15.291 -1.1434  1.1826  1.4918
12605TIP3   OH259305   6.168   2.577   4.654  0.1772 -0.0990  0.3351
12605TIP3    H159306   6.229   2.559   4.583  1.0952 -0.6194  1.2336
12605TIP3    H259307   6.146   2.669   4.645 -1.0029 -0.5303 -1.5999
12606TIP3   OH259308   1.015   0.208   4.943 -0.5368  0.1466  0.1992
12606TIP3    H159309   1.002   0.295   4.980  0.1461  0.1995  0.3424
12606TIP3    H259310   0.929   0.181   4.913 -1.1843 -0.0048  2.0507
12607TIP3   OH259311   5.541   5.212   6.493  0.6011 -0.2570 -0.2840
12607TIP3    H159312   5.517   5.174   6.408  0.9681  1.2154 -1.0873
12607TIP3    H259313   5.568   5.302   6.472  0.6377  0.1604  1.4078
12608TIP3   OH259314   6.493   2.502  13.924  0.1364 -0.4671  0.3637
12608TIP3    H159315   6.585   2.503  13.951 -0.1480  0.4905  1.3731
12608TIP3    H259316   6.457   2.424  13.965  0.4687 -0.7522  0.1102
12609TIP3   OH259317   3.104   3.118  15.632  0.6205  0.1910 -0.5921
12609TIP3    H159318   3.106   3.067  15.713  2.1806  1.4812  0.2513
12609TIP3    H259319   3.191   3.105  15.593 -0.3057 -0.8897 -2.4105
12610TIP3   OH259320   4.261   5.355  12.077  0.7454 -0.4893 -0.9042
12610TIP3    H159321   4.219   5.408  12.009  0.3998  1.3182  0.6508
12610TIP3    H259322   4.354   5.356  12.053  1.0367  2.4250  0.0343
12611TIP3   OH259323   3.119   0.618   3.206  0.1412  0.0454  0.0434
12611TIP3    H159324   3.101   0.704   3.243 -0.5883  0.4158 -1.0955
12611TIP3    H259325   3.093   0.556   3.274 -1.2050  0.6916  0.1660
12612TIP3   OH259326   1.822   1.706   4.543 -0.3047 -0.3650 -0.8951
12612TIP3    H159327   1.743   1.694   4.490 -2.5596  1.5961  1.7292
12612TIP3    H259328   1.811   1.647   4.617 -1.6306  2.7472  1.6735
12613TIP3   OH259329   0.049   5.904  12.457  0.1852 -0.2281  0.2729
12613TIP3    H159330   0.140   5.879  12.442  0.5628  0.8634  0.5964
12613TIP3    H259331  -0.000   5.822  12.450  1.2735 -0.9540  0.7651
12614TIP3   OH259332   0.552   3.994  12.913  0.0877 -0.2576 -0.4785
12614TIP3    H159333   0.474   3.995  12.858 -1.7493  0.5687  1.9661
12614TIP3    H259334   0.528   3.938  12.988  1.2236  1.2391  1.0898
12615TIP3   OH259335   0.211   4.859   0.342 -0.2304  0.2716  0.1944
12615TIP3    H159336   0.253   4.823   0.421  0.9996 -1.3350 -1.1246
12615TIP3    H259337   0.283   4.875   0.282 -1.1798  1.1443 -0.7430
12616TIP3   OH259338   1.949   2.528   4.923 -0.1816  0.1512  0.2776
12616TIP3    H159339   1.940   2.613   4.880 -0.2416 -0.5629 -1.1622
12616TIP3    H259340   2.011   2.480   4.869 -1.5402 -1.3914  0.0116
12617TIP3   OH259341   6.302   4.018  13.314 -0.5398  0.1202  0.1611
12617TIP3    H159342   6.318   3.925  13.332  1.8235  0.6211  1.0089
12617TIP3    H259343   6.369   4.064  13.364 -3.0539  2.4736  1.6647
12618TIP3   OH259344   5.058   3.082  12.840  0.4274  0.5384  0.5409
12618TIP3    H159345   5.036   3.173  12.820  3.2014  1.2882  0.4539
12618TIP3    H259346   5.055   3.037  12.756 -0.2141  0.7210  0.4640
12619TIP3   OH259347   2.993   4.435   5.545 -0.8164  0.1484 -0.5065
12619TIP3    H159348   2.976   4.384   5.625 -0.1200 -0.0668 -0.4950
12619TIP3    H259349   2.906   4.446   5.506 -0.9295 -1.6964 -0.8989
12620TIP3   OH259350   0.527   2.848  13.721  0.3259 -0.6275  0.1733
12620TIP3    H159351   0.589   2.878  13.655  0.3536  1.4513  1.0465
12620TIP3    H259352   0.581   2.837  13.800 -0.0538 -0.8949  0.3941
12621TIP3   OH259353   3.756   5.986  13.771  0.0397 -0.0315  0.2960
12621TIP3    H159354   3.847   6.008  13.790  0.6823 -1.6192 -0.7920
12621TIP3    H259355   3.758   5.895  13.743 -1.9613 -0.2491  0.6865
12622TIP3   OH259356   6.789   6.345   1.861 -0.2767  0.1144 -0.5905
12622TIP3    H159357   6.878   6.381   1.853  0.7693 -2.5339 -2.7902
12622TIP3    H259358   6.731   6.421   1.855  1.7446  2.1749  2.7388
12623TIP3   OH259359   4.285   2.762  10.645  0.7133  0.3869 -0.1475
12623TIP3    H159360   4.375   2.793  10.638  0.4220  2.1289  2.5120
12623TIP3    H259361   4.269   2.717  10.562  4.3271 -0.8941 -0.3558
12624TIP3   OH259362   2.617   1.320   2.115 -0.2250 -0.2482 -0.2646
12624TIP3    H159363   2.650   1.300   2.203  1.3032  0.6495 -0.6140
12624TIP3    H259364   2.683   1.377   2.076 -1.9210  1.1800 -1.2089
12625TIP3   OH259365   0.139   3.322   0.835  0.1230  0.1277  0.4122
12625TIP3    H159366   0.063   3.371   0.803  0.9648  0.5275 -1.0384
12625TIP3    H259367   0.157   3.360   0.921 -0.6465  0.7950  0.2903
12626TIP3   OH259368   4.676   3.684  16.129  0.0740  0.4941 -0.3484
12626TIP3    H159369   4.587   3.684  16.095  0.3383  2.0567 -1.1549
12626TIP3    H259370   4.691   3.594  16.159 -1.6247  0.1178 -0.5472
12627TIP3   OH259371   6.508   3.430  13.868  0.4532 -0.3830  0.2063
12627TIP3    H159372   6.522   3.396  13.957 -0.5875  1.0914  0.9692
12627TIP3    H259373   6.416   3.453  13.866  0.7291  0.6658 -0.8923
12628TIP3   OH259374   1.710   2.664   2.520 -0.1357  0.5446  0.5403
12628TIP3    H159375   1.788   2.665   2.465  1.7839 -1.6247  2.9496
12628TIP3    H259376   1.679   2.574   2.517 -0.4917  0.5763  2.2523
12629TIP3   OH259377   0.916   2.649  16.620  0.5593 -0.3143  0.2234
12629TIP3    H159378   1.000   2.616  16.652 -0.8090 -1.8357  2.5556
12629TIP3    H259379   0.900   2.728  16.673 -0.4542 -1.3087  1.4790
12630TIP3   OH259380   3.240   2.209  14.659  0.0507  0.3102  0.5068
12630TIP3    H159381   3.288   2.230  14.579  0.2452 -1.4241  0.1337
12630TIP3    H259382   3.294   2.244  14.730  0.2975  1.1145 -0.0662
12631TIP3   OH259383   2.049   5.643  13.423 -0.4997 -0.0891 -0.1237
12631TIP3    H159384   2.017   5.660  13.511 -1.4418 -1.9369 -0.0508
12631TIP3    H259385   1.979   5.593  13.381 -0.2088  1.0255 -2.0462
12632TIP3   OH259386   3.141   3.215  11.922  0.2049 -0.1510  0.0788
12632TIP3    H159387   3.163   3.309  11.926  0.2898 -0.1022 -1.2077
12632TIP3    H259388   3.095   3.204  11.839  0.6167 -1.3400 -0.0125
12633TIP3   OH259389   6.309   1.850   3.353  0.2998  0.6182 -0.4285
12633TIP3    H159390   6.269   1.898   3.280  1.9510  1.2341 -0.9799
12633TIP3    H259391   6.403   1.863   3.341  0.7208 -1.3356  0.4188
12634TIP3   OH259392   3.856   2.874  12.909 -0.3483 -0.4594  0.5235
12634TIP3    H159393   3.772   2.890  12.866 -0.5771  0.4223  1.2639
12634TIP3    H259394   3.849   2.785  12.943 -1.4372 -0.0231  1.5252
12635TIP3   OH259395   5.490   4.022  15.290 -0.3768 -0.1582 -0.6161
12635TIP3    H159396   5.572   3.985  15.258  0.5460 -1.0871  2.4731
12635TIP3    H259397   5.422   3.976  15.240  0.8394 -3.9820  0.8122
12636TIP3   OH259398   6.663   4.774  16.218 -0.5424 -0.1134 -0.3444
12636TIP3    H159399   6.630   4.812  16.137  2.7927 -0.7561 -2.1647
12636TIP3    H259400   6.660   4.679  16.204 -1.7943 -0.3443  1.1564
12637TIP3   OH259401   0.583   0.812   6.100  0.1751 -0.8616  0.8968
12637TIP3    H159402   0.542   0.768   6.174  0.4742 -1.9361  0.4506
12637TIP3    H259403   0.661   0.852   6.136 -1.5973  1.9145  1.9317
12638TIP3   OH259404   1.027   5.255   0.685  0.6876 -0.0987  0.1987
12638TIP3    H159405   0.993   5.292   0.767 -0.8132  0.2519 -0.5540
12638TIP3    H259406   1.031   5.161   0.701 -1.0314 -0.1945  0.2000
12639TIP3   OH259407   0.430   4.140   4.976  0.2272  0.2784 -0.0156
12639TIP3    H159408   0.474   4.083   5.038 -0.5118  0.4549  0.6815
12639TIP3    H259409   0.455   4.229   5.001 -2.2012  0.5499  1.8046
12640TIP3   OH259410   2.994   4.527  11.972 -0.1876 -0.4506  0.4322
12640TIP3    H159411   3.044   4.511  11.892 -1.7200  0.0126 -0.6620
12640TIP3    H259412   3.041   4.599  12.015 -0.1791  0.3458 -0.8424
12641TIP3   OH259413   4.456   1.996  13.001  0.8327  0.0380 -0.1910
12641TIP3    H159414   4.531   1.938  12.984  0.6674  0.2050 -1.5957
12641TIP3    H259415   4.496   2.080  13.026  1.1183 -0.0425 -0.3700
12642TIP3   OH259416   2.345   5.442  13.760 -0.5133  0.3026 -0.2636
12642TIP3    H159417   2.377   5.492  13.835  1.3733 -0.8168 -0.2495
12642TIP3    H259418   2.352   5.350  13.788 -0.6565 -0.0926 -1.4681
12643TIP3   OH259419   0.011   4.921  15.602 -0.1312  0.2471  0.9937
12643TIP3    H159420   0.104   4.945  15.595 -0.4921  1.4533 -0.1969
12643TIP3    H259421  -0.030   4.965  15.528 -1.2517 -2.4352 -0.0757
12644TIP3   OH259422   6.242   4.892   6.601  0.5145  0.1533  0.2498
12644TIP3    H159423   6.221   4.967   6.545  0.1806 -0.1683 -0.0577
12644TIP3    H259424   6.161   4.876   6.650  1.3743  1.7009  2.3272
12645TIP3   OH259425   5.789   0.783  15.489  0.2874  0.7583  0.5299
12645TIP3    H159426   5.836   0.855  15.447  0.1878  0.0502 -0.8719
12645TIP3    H259427   5.811   0.706  15.436 -1.5865  0.2123  0.4773
12646TIP3   OH259428   4.325   0.658   5.552 -0.1008  0.0971 -0.1507
12646TIP3    H159429   4.260   0.686   5.617 -0.2686 -0.2896 -0.1470
12646TIP3    H259430   4.368   0.582   5.593 -0.6176 -0.5209 -0.7309
12647TIP3   OH259431   0.603   6.405   2.723  0.3333 -1.0180 -0.1097
12647TIP3    H159432   0.532   6.360   2.677 -1.7925  0.6567  1.3096
12647TIP3    H259433   0.632   6.473   2.662 -0.3786 -0.7244 -0.1288
12648TIP3   OH259434   3.932   0.777  16.153  0.0125  0.2470  0.4930
12648TIP3    H159435   3.910   0.869  16.161  0.7267  0.5360 -0.5394
12648TIP3    H259436   4.016   0.777  16.106 -1.7279 -0.9861 -2.9677
12649TIP3   OH259437   4.135   2.595  12.405  0.1824 -0.4704 -0.0216
12649TIP3    H159438   4.049   2.635  12.420  1.5259  2.3682  0.6355
12649TIP3    H259439   4.148   2.600  12.310 -0.4036 -1.0869 -0.1478
12650TIP3   OH259440   1.836   6.260  12.764  0.5534 -0.1800 -0.4711
12650TIP3    H159441   1.922   6.245  12.724 -0.4236 -0.0875 -2.7738
12650TIP3    H259442   1.824   6.354  12.760 -0.3678 -0.3296 -1.8428
12651TIP3   OH259443   0.739   0.346   0.636  0.3028  0.0705 -0.5846
12651TIP3    H159444   0.831   0.353   0.611  0.5237 -2.3354 -0.6405
12651TIP3    H259445   0.729   0.410   0.707  2.2876 -0.3309  0.1332
12652TIP3   OH259446   6.136   6.646   5.711 -0.1885  0.2003 -0.2251
12652TIP3    H159447   6.130   6.591   5.633  1.0409  1.3249 -1.1523
12652TIP3    H259448   6.045   6.670   5.730 -0.4905  0.0550 -1.4224
12653TIP3   OH259449   5.994   4.188   2.184  0.4414 -0.0724 -0.1475
12653TIP3    H159450   6.088   4.172   2.188  0.4113 -0.3754 -0.5455
12653TIP3    H259451   5.957   4.104   2.159  0.0551  0.0195  0.1208
12654TIP3   OH259452   4.706   6.550   3.371  0.0300  0.0468 -0.0356
12654TIP3    H159453   4.703   6.462   3.409 -1.8247  0.2746  0.4410
12654TIP3    H259454   4.782   6.591   3.411  0.4474 -1.0812  0.3545
12655TIP3   OH259455   2.599   2.953   0.477 -0.4329 -0.4965  0.0638
12655TIP3    H159456   2.505   2.956   0.461 -0.5250 -0.4506  0.5790
12655TIP3    H259457   2.608   2.902   0.558  0.0440 -1.2251 -0.4343
12656TIP3   OH259458   1.830   3.259  11.727  0.1089  0.0159  0.9669
12656TIP3    H159459   1.857   3.200  11.657 -1.0166  0.9881 -0.3561
12656TIP3    H259460   1.911   3.302  11.755  0.4074  0.7588 -0.8724
12657TIP3   OH259461   3.949   4.067   1.934  0.4753 -0.1167 -0.7264
12657TIP3    H159462   4.007   3.999   1.900 -2.4060 -2.3997 -1.4324
12657TIP3    H259463   3.896   4.022   2.000 -0.8874  1.6947 -0.5239
12658TIP3   OH259464   0.643   0.507   5.050  0.2801  0.2200  0.2957
12658TIP3    H159465   0.614   0.442   5.114  0.8006  0.1993  0.5129
12658TIP3    H259466   0.617   0.591   5.088 -0.7330  0.1335 -0.1599
12659TIP3   OH259467   1.151   1.640   2.901 -0.6317  0.3402 -0.5152
12659TIP3    H159468   1.074   1.644   2.958 -0.8291 -0.7982 -0.6648
12659TIP3    H259469   1.116   1.649   2.812 -0.4243  1.2074 -0.5201
12660TIP3   OH259470   4.566   1.620   4.596  0.2029  0.0732  0.7889
12660TIP3    H159471   4.485   1.588   4.557 -0.8067  1.0292  2.0166
12660TIP3    H259472   4.573   1.711   4.567  1.5863 -0.3753 -0.4139
12661TIP3   OH259473   1.539   5.859  16.045 -0.1719 -0.4152  0.0246
12661TIP3    H159474   1.478   5.823  16.109 -0.6565  1.3377  0.6175
12661TIP3    H259475   1.616   5.803  16.050 -1.5631 -2.4789 -0.4814
12662TIP3   OH259476   1.459   1.529   2.025 -0.0052 -0.6225  0.2517
12662TIP3    H159477   1.415   1.509   2.107  0.9606 -1.8203  0.4983
12662TIP3    H259478   1.391   1.570   1.971 -0.8517 -0.5302  1.3572
12663TIP3   OH259479   2.788   4.745   3.382 -0.1268 -0.1375  0.0985
12663TIP3    H159480   2.786   4.658   3.341 -0.5648 -0.6999  1.2696
12663TIP3    H259481   2.703   4.753   3.425  0.3209  0.4108  0.9118
12664TIP3   OH259482   0.629   2.947  12.083  0.4909 -0.3347  0.0802
12664TIP3    H159483   0.631   3.039  12.111  1.4258  0.2867 -1.8352
12664TIP3    H259484   0.540   2.935  12.048  0.4477 -0.0885  0.1008
12665TIP3   OH259485   6.068   1.041  13.185 -0.0252  0.2016  0.3596
12665TIP3    H159486   6.072   1.086  13.101 -0.2396  1.6001  1.0750
12665TIP3    H259487   6.019   1.100  13.242  0.3175 -0.6112  1.5373
12666TIP3   OH259488   3.143   5.170   5.920 -0.6235  0.3430  0.1035
12666TIP3    H159489   3.109   5.203   5.837  0.2881 -1.1317 -0.8861
12666TIP3    H259490   3.087   5.096   5.942  2.4081 -3.0030 -2.2320
12667TIP3   OH259491   3.514   5.355  13.881  0.3626 -0.3756  0.4780
12667TIP3    H159492   3.474   5.439  13.904  0.7527 -0.3449  1.0688
12667TIP3    H259493   3.608   5.375  13.874  0.2407 -0.2826 -1.5802
12668TIP3   OH259494   6.419   5.385  14.006 -0.1239  0.1593  0.0467
12668TIP3    H159495   6.374   5.318  13.955  1.4913 -0.8186 -0.1778
12668TIP3    H259496   6.505   5.347  14.025 -0.4698  0.6322  3.1179
12669TIP3   OH259497   5.188   6.782  15.722  0.2990 -0.1615  0.7217
12669TIP3    H159498   5.262   6.814  15.774 -0.1934  0.2586  1.1736
12669TIP3    H259499   5.134   6.859  15.707  0.8218 -0.0869 -1.1286
12670TIP3   OH259500   4.126   4.619   1.683  0.3333 -0.6341  0.5577
12670TIP3    H159501   4.130   4.549   1.619  0.1641  1.2182 -1.5918
12670TIP3    H259502   4.217   4.639   1.704  0.4514 -0.2357 -0.3083
12671TIP3   OH259503   4.013   2.059  14.112 -0.0048  0.2460  0.1906
12671TIP3    H159504   3.965   1.976  14.110  1.4516 -0.6305  0.8073
12671TIP3    H259505   3.976   2.110  14.039 -1.3219 -0.6927  0.1752
12672TIP3   OH259506   0.359   1.971  16.056  0.2405  0.3304  0.2328
12672TIP3    H159507   0.365   1.888  16.010 -1.1857  0.5070 -0.3209
12672TIP3    H259508   0.415   1.960  16.133  1.8698 -0.3305 -0.9796
12673TIP3   OH259509   4.525   4.331   5.028  0.0446  0.1132 -0.2525
12673TIP3    H159510   4.501   4.400   5.091  0.4653  0.6472 -0.6607
12673TIP3    H259511   4.584   4.274   5.076  1.3413  1.2015 -0.4966
12674TIP3   OH259512   5.875   6.399   2.690 -0.0345 -0.0059  0.2674
12674TIP3    H159513   5.882   6.491   2.715 -0.2553  0.0446  0.1410
12674TIP3    H259514   5.963   6.364   2.707 -0.4439 -0.2506  2.1982
12675TIP3   OH259515   3.008   1.931  15.443 -0.1998 -0.2373  0.0625
12675TIP3    H159516   3.073   1.976  15.389  0.4642  0.0284  1.0466
12675TIP3    H259517   2.925   1.946  15.398  0.3739 -0.3401 -1.0642
12676TIP3   OH259518   4.989   4.844   5.865 -0.2287 -0.0349  0.1530
12676TIP3    H159519   5.046   4.856   5.941 -0.2213 -0.7412  0.2681
12676TIP3    H259520   4.908   4.808   5.901 -0.3124 -0.1465 -0.1474
12677TIP3   OH259521   3.998   3.601  11.772  0.0241 -0.2608 -0.4671
12677TIP3    H159522   4.024   3.509  11.777 -0.6617 -0.5352 -1.5501
12677TIP3    H259523   4.025   3.628  11.684  0.2566  0.5952 -0.1426
12678TIP3   OH259524   1.282   4.544   0.672  0.5221 -0.1949  0.1557
12678TIP3    H159525   1.251   4.474   0.616  2.8639 -1.8866  0.7962
12678TIP3    H259526   1.342   4.501   0.733 -0.8063  1.7757  3.0822
12679TIP3   OH259527   3.298   0.963   5.797  0.1955 -0.9400  0.1204
12679TIP3    H159528   3.348   0.904   5.853  1.2263  1.5475  2.0210
12679TIP3    H259529   3.227   0.909   5.762 -1.4199 -2.4769  4.9563
12680TIP3   OH259530   6.837   4.200  16.172  0.7606  0.0434  0.1893
12680TIP3    H159531   6.906   4.179  16.110 -0.2467 -1.0413 -0.6111
12680TIP3    H259532   6.756   4.181  16.125 -0.0401 -0.8773  1.8662
12681TIP3   OH259533   5.585   4.541  12.589  0.7599 -0.4645  0.0413
12681TIP3    H159534   5.606   4.504  12.675  0.1634 -0.5388  0.1614
12681TIP3    H259535   5.518   4.481  12.553  1.0353 -0.4580 -0.4900
12682TIP3   OH259536   3.318   1.061  15.192 -0.1405  0.4996 -0.1427
12682TIP3    H159537   3.406   1.094  15.212  0.0253  0.1482 -0.2901
12682TIP3    H259538   3.265   1.140  15.184 -0.0228  0.6778  0.7902
12683TIP3   OH259539   2.447   5.515  14.015  0.1847 -0.1998  0.2154
12683TIP3    H159540   2.534   5.497  13.982  0.8027  1.6883  0.6731
12683TIP3    H259541   2.442   5.468  14.098  1.1245  0.3945  0.6220
12684TIP3   OH259542   5.342   2.660  11.558  0.0882  0.1186 -0.1999
12684TIP3    H159543   5.426   2.705  11.567  1.7100 -2.7041 -0.1912
12684TIP3    H259544   5.321   2.630  11.646 -0.2881 -0.2488 -0.4084
12685TIP3   OH259545   2.731   1.356   5.399 -0.3115 -0.4092  0.1782
12685TIP3    H159546   2.678   1.277   5.396 -0.1491 -0.4948 -0.6653
12685TIP3    H259547   2.679   1.422   5.352 -0.5213  0.0358  1.0175
12686TIP3   OH259548   2.538   2.447   2.424 -0.0249  0.0869  0.6354
12686TIP3    H159549   2.466   2.403   2.378 -0.4766  0.2511  1.1712
12686TIP3    H259550   2.571   2.510   2.361 -0.2044 -0.1497  0.3009
12687TIP3   OH259551   0.310   2.028   5.454  0.3554  0.1202 -0.3338
12687TIP3    H159552   0.368   2.074   5.393  0.3409  1.6676  0.7469
12687TIP3    H259553   0.354   1.945   5.471  1.9239  0.9463 -0.1036
12688TIP3   OH259554   1.299   0.802   0.377 -0.5057 -0.2382 -0.0714
12688TIP3    H159555   1.381   0.848   0.361  0.2308 -0.9830  1.3997
12688TIP3    H259556   1.245   0.864   0.425 -0.5514 -0.0008 -0.4212
12689TIP3   OH259557   2.047   2.046  15.307  0.4251 -0.6389  0.6211
12689TIP3    H159558   1.962   2.067  15.344 -0.8158  0.7662 -2.6047
12689TIP3    H259559   2.110   2.090  15.364 -1.1494 -0.2593  2.1204
12690TIP3   OH259560   5.638   1.981  15.961  0.4800  0.4107 -0.1088
12690TIP3    H159561   5.732   1.975  15.944  0.4427  0.4933 -0.3406
12690TIP3    H259562   5.615   2.072  15.943  0.3247  0.3534 -0.2105
12691TIP3   OH259563   5.689   5.138   5.438  0.1809  0.2021 -0.4864
12691TIP3    H159564   5.690   5.046   5.410 -4.3758 -0.1805 -0.1493
12691TIP3    H259565   5.690   5.188   5.356  0.9317 -0.2109 -0.7373
12692TIP3   OH259566   3.262   5.269  14.265 -0.1227 -0.4313 -0.3914
12692TIP3    H159567   3.197   5.309  14.207  0.0250  0.9391  0.3563
12692TIP3    H259568   3.334   5.245  14.207 -0.7593 -0.8227 -1.0425
12693TIP3   OH259569   3.820   5.741  15.185  0.3859  0.3366 -0.1888
12693TIP3    H159570   3.795   5.829  15.155  0.5156  0.5225  0.2349
12693TIP3    H259571   3.804   5.743  15.279 -2.4933 -1.0599 -0.5348
12694TIP3   OH259572   1.635   3.008  11.357 -0.2399  0.0816  0.2157
12694TIP3    H159573   1.646   2.980  11.266 -1.0987 -1.0487  0.4342
12694TIP3    H259574   1.572   3.079  11.352 -0.4109 -0.0831 -0.0688
12695TIP3   OH259575   1.343   4.062   2.653 -0.1599 -0.2387  0.1183
12695TIP3    H159576   1.341   3.971   2.682  0.8883 -0.0035  0.9651
12695TIP3    H259577   1.424   4.097   2.689  0.5519  0.4430 -1.9959
12696TIP3   OH259578   3.224   6.526   2.970 -0.3646  0.0566  0.5137
12696TIP3    H159579   3.182   6.458   2.918 -1.3966  1.1436 -0.1441
12696TIP3    H259580   3.288   6.480   3.023 -1.9733 -1.6177  1.1124
12697TIP3   OH259581   0.614   6.381  13.296  0.5115  0.0902  0.0999
12697TIP3    H159582   0.574   6.312  13.348 -0.2194 -0.1992 -0.8217
12697TIP3    H259583   0.540   6.430  13.260  1.0169  1.0704  0.3661
12698TIP3   OH259584   6.333   4.493  15.690 -0.2445 -0.2659 -0.1528
12698TIP3    H159585   6.392   4.546  15.744  0.0919 -0.7173 -0.0710
12698TIP3    H259586   6.386   4.419  15.661 -1.4140 -2.0854  2.0310
12699TIP3   OH259587   5.367   3.517   0.311  0.3346 -0.1781  0.2659
12699TIP3    H159588   5.425   3.579   0.267  0.1117  0.3484  0.7134
12699TIP3    H259589   5.327   3.467   0.239 -0.9468  1.4843 -0.2330
12700TIP3   OH259590   2.979   0.068  14.414 -0.0202 -0.0341 -0.4740
12700TIP3    H159591   2.968   0.097  14.504 -0.3918  2.1261 -1.1614
12700TIP3    H259592   2.958  -0.026  14.416 -2.1062  0.4041  1.3074
12701TIP3   OH259593   5.685   0.261   0.144  0.2462  0.5713  0.4944
12701TIP3    H159594   5.650   0.279   0.232 -0.9464  0.5223  0.0460
12701TIP3    H259595   5.670   0.342   0.095 -0.0423  0.2534  0.0490
12702TIP3   OH259596   6.088   2.690  11.632  0.3396 -0.3678  0.1505
12702TIP3    H159597   6.101   2.783  11.612  0.6781 -0.5866 -0.7207
12702TIP3    H259598   6.116   2.681  11.723 -0.4198  0.5253  0.4883
12703TIP3   OH259599   4.128   3.251  13.311  0.9578 -0.1237 -0.1554
12703TIP3    H159600   4.043   3.289  13.288  0.5470 -0.7395  0.3144
12703TIP3    H259601   4.139   3.177  13.250  0.6727 -0.6839  0.4655
12704TIP3   OH259602   6.654   5.007  14.833 -0.0507  0.4421 -0.8707
12704TIP3    H159603   6.649   5.042  14.922 -0.2816 -2.8028  0.5324
12704TIP3    H259604   6.568   5.026  14.796 -0.3468  0.8831 -0.0079
12705TIP3   OH259605   1.878   5.750   6.833 -0.1100 -0.3488  0.1817
12705TIP3    H159606   1.916   5.803   6.763  0.6908 -1.2815 -0.1090
12705TIP3    H259607   1.844   5.814   6.896  0.7149  0.5081 -0.2199
12706TIP3   OH259608   1.923   6.272   3.971 -0.4526 -0.2337  0.2179
12706TIP3    H159609   1.926   6.253   4.064  0.1483  0.6354  0.3881
12706TIP3    H259610   1.861   6.345   3.963 -1.5745 -1.2064 -0.2401
12707TIP3   OH259611   4.433   6.215   3.438 -0.1123 -0.1465 -0.3159
12707TIP3    H159612   4.527   6.234   3.439  0.1444 -1.3221 -0.6085
12707TIP3    H259613   4.404   6.236   3.526  0.4772 -0.0074 -0.1471
12708TIP3   OH259614   2.973   3.529   0.383  0.1779  0.0447 -0.0813
12708TIP3    H159615   3.002   3.530   0.474  2.4071  0.7796 -0.7241
12708TIP3    H259616   3.040   3.579   0.336 -2.0175  1.5679 -1.8362
12709TIP3   OH259617   0.234   6.269   0.146  0.2554  0.2246  0.5673
12709TIP3    H159618   0.294   6.196   0.163  0.8707  0.8781  1.2598
12709TIP3    H259619   0.268   6.310   0.067  0.4146  0.2711  0.6591
12710TIP3   OH259620   0.424   2.686  12.745 -0.7174  0.3292 -1.1119
12710TIP3    H159621   0.392   2.596  12.739 -1.1938  0.4822 -0.9137
12710TIP3    H259622   0.499   2.688  12.686  0.9203 -0.8975  0.7949
12711TIP3   OH259623   4.920   2.616   3.546 -0.3135  0.4874 -0.0686
12711TIP3    H159624   4.964   2.695   3.513 -0.8985  0.9078  0.1468
12711TIP3    H259625   4.886   2.641   3.631  0.9458 -0.5105  0.7712
12712TIP3   OH259626   2.166   3.062  11.388  0.4900  0.1338  0.4453
12712TIP3    H159627   2.187   3.155  11.377 -0.4660  0.3286  0.1329
12712TIP3    H259628   2.246   3.023  11.424  0.9354  1.0548  0.4841
12713TIP3   OH259629   5.565   3.150  12.120  0.0678  0.7025 -0.0748
12713TIP3    H159630   5.608   3.217  12.174 -0.7641  0.6411  0.6808
12713TIP3    H259631   5.601   3.067  12.152  2.4686  0.7903 -2.2028
12714TIP3   OH259632   3.133   0.449   4.130  0.7183  0.1558  0.6104
12714TIP3    H159633   3.149   0.452   4.224  0.7924  1.2914  0.5767
12714TIP3    H259634   3.221   0.452   4.091  0.6842 -0.2288  0.5011
12715TIP3   OH259635   0.585   5.654  12.620  0.0960 -0.6686 -0.0890
12715TIP3    H159636   0.644   5.708  12.672 -0.2410  0.1597 -0.5382
12715TIP3    H259637   0.637   5.629  12.543 -0.8343  2.3121 -1.8777
12716TIP3   OH259638   2.953   5.624   4.269 -0.3049 -0.5000  0.2025
12716TIP3    H159639   2.964   5.538   4.229 -1.0258 -0.6303  0.2677
12716TIP3    H259640   3.038   5.644   4.309 -0.3176 -1.4485  0.7094
12717TIP3   OH259641   6.106   4.084   4.672 -0.2605 -0.2191  0.0186
12717TIP3    H159642   6.030   4.033   4.700 -0.3674  0.0326  0.1935
12717TIP3    H259643   6.179   4.049   4.723 -0.0577 -1.1478 -0.8829
12718TIP3   OH259644   1.740   1.456   1.500  0.3719  0.2935 -0.2731
12718TIP3    H159645   1.800   1.430   1.570  0.1318 -0.7177 -0.4288
12718TIP3    H259646   1.754   1.391   1.430 -1.4877 -0.5109  0.0203
12719TIP3   OH259647   3.385   5.564  16.397 -0.2380  0.7284 -0.3286
12719TIP3    H159648   3.470   5.566  16.353  0.8877  2.7563  1.6931
12719TIP3    H259649   3.372   5.473  16.421  1.4766  0.3913 -0.5406
12720TIP3   OH259650   3.982   4.438   5.676 -0.3213  0.2590  0.4342
12720TIP3    H159651   4.005   4.443   5.769 -1.7329  1.4178  0.7704
12720TIP3    H259652   4.023   4.358   5.644  1.0393  0.3733  1.8066
12721TIP3   OH259653   0.136   0.489  15.725 -0.2815  0.6290  0.4031
12721TIP3    H159654   0.230   0.478  15.708 -0.3128  1.6879 -0.6234
12721TIP3    H259655   0.115   0.574  15.686 -2.3027 -0.9132 -2.2304
12722TIP3   OH259656   0.494   2.780   1.288  0.2146 -0.0363  0.2122
12722TIP3    H159657   0.518   2.793   1.380  1.7948  0.5278 -0.2437
12722TIP3    H259658   0.553   2.837   1.239 -0.4598 -0.4743 -1.1768
12723TIP3   OH259659   1.244   5.139   5.406 -0.0083  0.1364 -0.6280
12723TIP3    H159660   1.249   5.096   5.492  4.4386  1.3156 -0.0639
12723TIP3    H259661   1.243   5.233   5.426 -1.8827  0.4546 -1.9275
12724TIP3   OH259662   0.326   3.993  14.761  0.1179 -0.1366 -0.4594
12724TIP3    H159663   0.242   3.956  14.732 -0.0021 -0.0040 -0.2820
12724TIP3    H259664   0.320   3.993  14.857  0.5086 -0.5591 -0.4345
12725TIP3   OH259665   0.369   5.674   2.841  0.5865  0.3340 -0.2100
12725TIP3    H159666   0.463   5.659   2.851  0.3919 -0.3694  0.7945
12725TIP3    H259667   0.333   5.658   2.929 -0.5783 -0.3685 -0.7910
12726TIP3   OH259668   3.743   4.963  15.739 -0.5286 -0.2364 -0.5438
12726TIP3    H159669   3.786   4.960  15.824  0.3184  0.0363 -0.9477
12726TIP3    H259670   3.650   4.952  15.758 -0.4362  0.6075  0.4895
12727TIP3   OH259671   6.212   4.631   5.065 -0.7639 -0.2074 -0.1824
12727TIP3    H159672   6.225   4.557   5.006 -1.6497 -0.7170  0.2425
12727TIP3    H259673   6.278   4.696   5.038  1.1598 -1.7718  0.5004
12728TIP3   OH259674   6.640   3.122   4.631  0.7423 -0.1546 -0.0861
12728TIP3    H159675   6.629   3.201   4.578 -2.3041 -0.7519 -0.4975
12728TIP3    H259676   6.623   3.050   4.571 -0.3842 -0.9388  1.1248
12729TIP3   OH259677   0.459   0.815  13.013  0.5008  0.0850 -0.3281
12729TIP3    H159678   0.416   0.790  12.931  1.5461 -1.1665 -0.5404
12729TIP3    H259679   0.534   0.755  13.019 -0.1851 -0.6134  2.1043
12730TIP3   OH259680   2.999   0.261  12.836  0.0593 -0.1429 -0.4513
12730TIP3    H159681   3.049   0.179  12.836 -2.4199 -1.7847 -1.0949
12730TIP3    H259682   2.932   0.247  12.904 -0.7589  1.0980 -0.9722
12731TIP3   OH259683   1.254   0.512   6.398 -0.0911 -0.1467  0.2435
12731TIP3    H159684   1.295   0.440   6.350 -1.4477 -1.1919  0.5734
12731TIP3    H259685   1.161   0.503   6.379 -0.5483  0.0820  2.1338
12732TIP3   OH259686   3.519   0.732  13.191 -0.7060 -0.2162  0.6857
12732TIP3    H159687   3.431   0.713  13.161 -0.2436 -0.9249 -0.2520
12732TIP3    H259688   3.512   0.816  13.235 -2.0701 -0.8120  1.6510
12733TIP3   OH259689   1.322   5.555   1.610  0.0168  0.3970 -0.2920
12733TIP3    H159690   1.329   5.510   1.525  1.2892  2.2945 -1.2469
12733TIP3    H259691   1.343   5.487   1.674  0.1584 -0.7992 -1.5458
12734TIP3   OH259692   5.992   5.884  13.177  0.3046 -0.2984 -0.0918
12734TIP3    H159693   6.023   5.952  13.116  0.0721  0.3806  0.5286
12734TIP3    H259694   6.050   5.810  13.161  1.1580  0.3583 -0.1590
12735TIP3   OH259695   2.689   2.639  11.852  0.1169  0.8302  0.8452
12735TIP3    H159696   2.718   2.723  11.887  0.4643  0.0260  2.5913
12735TIP3    H259697   2.734   2.574  11.905 -1.0202 -0.4596  0.2875
12736TIP3   OH259698   4.327   4.423   3.849 -0.3350  0.5618  0.4046
12736TIP3    H159699   4.285   4.350   3.805  0.1446  0.8620 -0.5878
12736TIP3    H259700   4.389   4.383   3.910  0.2402  0.1407 -0.4515
12737TIP3   OH259701   5.443   1.124   0.985  0.3290  0.0119 -0.3990
12737TIP3    H159702   5.381   1.118   1.058 -0.5413  1.1567 -1.0123
12737TIP3    H259703   5.415   1.202   0.937  1.8808  0.1893 -1.0440
12738TIP3   OH259704   6.212   2.025   6.078 -0.3356 -0.0385 -0.1359
12738TIP3    H159705   6.165   1.974   6.145 -2.1393  0.9901 -0.5562
12738TIP3    H259706   6.246   2.101   6.126  3.2950 -1.9763  0.7301
12739TIP3   OH259707   1.359   4.372   1.214 -0.1362 -0.3925  0.2217
12739TIP3    H159708   1.307   4.424   1.152 -0.8569  1.3536  2.1577
12739TIP3    H259709   1.428   4.334   1.161 -1.2462  0.2422 -1.8095
12740TIP3   OH259710   1.984   5.099  12.380  0.4322 -0.2546 -0.1815
12740TIP3    H159711   1.903   5.149  12.367  1.1064  0.9240  0.0084
12740TIP3    H259712   2.035   5.152  12.442  1.2725 -1.0791 -0.1449
12741TIP3   OH259713   3.711   0.047  16.954  0.3823  0.2796 -0.3974
12741TIP3    H159714   3.624   0.043  16.915  0.3965 -0.0500 -0.4002
12741TIP3    H259715   3.739   0.137  16.941 -1.1700  1.2394  2.2786
12742TIP3   OH259716   6.559   0.316  15.667 -0.0713 -0.0146  0.5801
12742TIP3    H159717   6.521   0.364  15.741  0.4695  0.8545  0.3091
12742TIP3    H259718   6.518   0.230  15.672 -2.0623  0.8480  0.3367
12743TIP3   OH259719   0.295   4.068   3.871  0.0008  0.0099 -0.6227
12743TIP3    H159720   0.213   4.109   3.844 -0.7110 -1.5891 -1.0462
12743TIP3    H259721   0.357   4.090   3.801  0.9385  3.8341  1.1540
12744TIP3   OH259722   5.896   1.808   2.353  0.5159  0.0709 -0.3234
12744TIP3    H159723   5.824   1.748   2.373  1.7643 -2.0207 -1.7529
12744TIP3    H259724   5.956   1.799   2.428 -0.3568  1.3299  0.5601
12745TIP3   OH259725   4.510   2.805   3.691 -0.7807  0.3448 -0.2245
12745TIP3    H159726   4.535   2.789   3.600 -2.4565  1.4569 -0.9302
12745TIP3    H259727   4.563   2.743   3.742  1.5275  0.9112 -1.7590
12746TIP3   OH259728   1.953   4.597   4.693  0.2123  0.1263  0.0255
12746TIP3    H159729   1.874   4.608   4.640  0.1553 -0.7340 -0.0928
12746TIP3    H259730   1.961   4.678   4.742 -0.1450  0.6555 -0.7603
12747TIP3   OH259731   4.710   5.042   6.514  0.6988  0.2472 -0.1891
12747TIP3    H159732   4.769   4.989   6.568 -2.2319 -2.6206  0.5705
12747TIP3    H259733   4.679   5.111   6.573  1.3545  0.2070  0.2122
12748TIP3   OH259734   1.551   3.091   3.008 -0.0186 -0.2826  0.6425
12748TIP3    H159735   1.469   3.118   2.967 -0.1061  1.2162  1.7107
12748TIP3    H259736   1.605   3.060   2.935 -1.1483 -0.3099 -0.2127
12749TIP3   OH259737   1.349   5.360  12.716  0.3018 -0.1025 -0.0759
12749TIP3    H159738   1.393   5.316  12.643  0.7137 -1.2851  0.8436
12749TIP3    H259739   1.374   5.452  12.708  1.0093 -0.3597 -0.9349
12750TIP3   OH259740   5.818   0.680  12.574 -0.1510  0.1983  0.2765
12750TIP3    H159741   5.734   0.639  12.593  0.4870 -0.8742  0.8260
12750TIP3    H259742   5.818   0.760  12.627 -1.0932  0.5568 -0.2442
12751TIP3   OH259743   2.507   2.327  13.231 -0.7056  0.3790  0.4467
12751TIP3    H159744   2.576   2.305  13.168 -1.4146  0.2988 -0.3374
12751TIP3    H259745   2.524   2.271  13.306  1.5672  2.1809  1.3583
12752TIP3   OH259746   1.998   2.311   3.552  0.1712  0.0295  0.6500
12752TIP3    H159747   1.985   2.406   3.549 -1.0240 -0.1377 -0.7902
12752TIP3    H259748   2.046   2.296   3.634  0.8273  1.9065  0.6678
12753TIP3   OH259749   5.466   5.409  13.598 -0.8570  0.7773 -0.2129
12753TIP3    H159750   5.423   5.392  13.514 -2.1769 -0.9442  0.7323
12753TIP3    H259751   5.533   5.340  13.604  0.1874  1.7436 -0.4291
12754TIP3   OH259752   5.093   5.060  15.758 -0.1042 -0.0255  0.2191
12754TIP3    H159753   5.036   4.984  15.744  0.9531 -0.8556  0.2986
12754TIP3    H259754   5.119   5.086  15.669  2.2757 -1.9418  0.2376
12755TIP3   OH259755   5.651   6.592   4.485  0.7485 -0.1358 -0.0206
12755TIP3    H159756   5.650   6.628   4.396 -2.0883 -1.6508 -0.7234
12755TIP3    H259757   5.645   6.497   4.473 -1.8348 -0.2974  1.6769
12756TIP3   OH259758   4.584   1.023   3.692 -0.2396 -0.0420 -0.0270
12756TIP3    H159759   4.569   1.111   3.660 -0.2264 -0.7860 -2.2565
12756TIP3    H259760   4.557   0.966   3.619 -0.4479 -1.8811  1.4120
12757TIP3   OH259761   0.259   0.404   0.815  0.0695  0.7100 -0.0667
12757TIP3    H159762   0.220   0.442   0.894  0.5312  0.0506  0.4993
12757TIP3    H259763   0.191   0.347   0.779  0.0712  0.5349  0.2055
12758TIP3   OH259764   5.640   0.759   1.476 -0.3683  0.0185  0.0745
12758TIP3    H159765   5.602   0.713   1.551 -1.1067 -0.8607 -0.8136
12758TIP3    H259766   5.565   0.795   1.429  0.1963  2.1613  0.7310
12759TIP3   OH259767   4.022   2.816   3.497  0.0659  0.0297 -0.1799
12759TIP3    H159768   4.104   2.861   3.475  0.3255 -0.1485  0.4198
12759TIP3    H259769   3.955   2.885   3.492  0.1766  0.0928 -1.0711
12760TIP3   OH259770   2.090   0.823  16.525 -0.4879 -0.2524 -0.3428
12760TIP3    H159771   2.180   0.837  16.555 -1.2773  3.4427  0.7883
12760TIP3    H259772   2.098   0.816  16.429  1.0333 -1.0292 -0.1990
12761TIP3   OH259773   6.371   3.169   5.801 -0.6301  0.3794  0.6713
12761TIP3    H159774   6.417   3.143   5.722 -0.6522  1.9107  0.1224
12761TIP3    H259775   6.410   3.116   5.871 -0.1868 -0.5401 -0.2545
12762TIP3   OH259776   4.488   5.208  14.913  0.1965 -0.5012 -0.8133
12762TIP3    H159777   4.514   5.116  14.907 -0.5505 -0.6952 -1.1840
12762TIP3    H259778   4.449   5.216  15.000  2.2585  0.0103  0.1240
12763TIP3   OH259779   2.864   5.606  15.073 -0.0884  0.7111 -0.2493
12763TIP3    H159780   2.856   5.624  14.979  0.8942  1.9449 -0.1229
12763TIP3    H259781   2.777   5.579  15.100 -0.6365  1.3646 -1.3082
12764TIP3   OH259782   5.324   5.837  15.637  0.1119 -0.4655  0.0049
12764TIP3    H159783   5.315   5.929  15.663 -0.4383 -0.6938  0.6564
12764TIP3    H259784   5.244   5.819  15.587  0.9968 -0.1270 -1.6294
12765TIP3   OH259785   0.541   2.639  15.900  0.5333 -0.2333  0.3784
12765TIP3    H159786   0.588   2.582  15.839  1.3117  0.5454  0.2265
12765TIP3    H259787   0.592   2.635  15.981  2.5628  2.7252 -0.5750
12766TIP3   OH259788   2.874   6.224   3.073  0.4188 -0.0148  0.0561
12766TIP3    H159789   2.801   6.285   3.057 -0.2813 -1.0875 -1.0798
12766TIP3    H259790   2.861   6.193   3.163  1.0127  1.7621  0.7920
12767TIP3   OH259791   0.391   4.796  11.821 -0.4169 -0.1616 -0.1895
12767TIP3    H159792   0.353   4.801  11.909 -0.7005  2.5871 -0.3546
12767TIP3    H259793   0.484   4.781  11.835 -0.7075 -1.4695  0.4682
12768TIP3   OH259794   2.813   2.737  12.412  0.0358 -0.3016 -0.6441
12768TIP3    H159795   2.811   2.645  12.437  0.3631 -0.4336 -1.0931
12768TIP3    H259796   2.852   2.738  12.325  0.8193  0.3345 -0.3064
12769TIP3   OH259797   4.155   4.322   4.573 -0.4603  0.3661 -0.0250
12769TIP3    H159798   4.225   4.327   4.638  0.4010 -0.0641 -0.8988
12769TIP3    H259799   4.079   4.361   4.617  0.1189  0.1675  1.1962
12770TIP3   OH259800   5.890   4.474   5.640 -0.4949  0.2223  0.0843
12770TIP3    H159801   5.942   4.547   5.605  2.4749 -1.1576  1.2610
12770TIP3    H259802   5.882   4.413   5.567 -1.0840  0.7019 -0.2716
12771TIP3   OH259803   6.095   6.149  12.482 -0.0839  0.0633 -0.0967
12771TIP3    H159804   6.006   6.184  12.470 -0.5021 -0.5433  1.1281
12771TIP3    H259805   6.110   6.153  12.576  0.7855 -0.8228 -0.1819
12772TIP3   OH259806   2.735   5.930   0.478  0.0418  0.3203  0.5619
12772TIP3    H159807   2.695   5.923   0.392  0.7162 -2.7633  0.3967
12772TIP3    H259808   2.829   5.938   0.460  0.0013  2.4319  1.0303
12773TIP3   OH259809   6.572   0.983   4.899 -0.0162 -0.8734  1.1973
12773TIP3    H159810   6.523   0.977   4.981 -1.9563 -0.3142  0.1391
12773TIP3    H259811   6.523   0.929   4.837 -0.6238  1.4660 -0.4922
12774TIP3   OH259812   2.744   0.459   2.223 -0.0676  0.5743 -0.8022
12774TIP3    H159813   2.668   0.471   2.280  1.2893 -1.3334  1.6155
12774TIP3    H259814   2.819   0.486   2.276  1.1543  0.1505 -2.2336
12775TIP3   OH259815   1.498   3.496  13.925  0.0814  0.2672  0.4695
12775TIP3    H159816   1.451   3.418  13.953  1.0799 -0.6824 -0.3874
12775TIP3    H259817   1.569   3.463  13.870 -0.6856  1.8878 -1.6411
12776TIP3   OH259818   5.966   1.381  15.890 -0.4432 -0.4109 -0.1674
12776TIP3    H159819   6.030   1.368  15.960 -0.4703  0.5093  0.0459
12776TIP3    H259820   5.955   1.294  15.851  1.4205 -0.4639 -0.6430
12777TIP3   OH259821   2.292   4.050  16.486 -0.1654  0.8146  0.0242
12777TIP3    H159822   2.230   4.068  16.416  0.1892  0.2646 -0.4418
12777TIP3    H259823   2.319   4.137  16.517 -0.8984  1.0552  0.0009
12778TIP3   OH259824   3.094   5.629  15.939  0.4981  0.1374  0.1750
12778TIP3    H159825   3.106   5.538  15.911 -0.1164  0.0885  0.0711
12778TIP3    H259826   3.173   5.648  15.991  0.3544 -0.6496  0.6983
12779TIP3   OH259827   4.160   5.896   2.570  0.2588  0.2727 -0.0615
12779TIP3    H159828   4.183   5.987   2.590 -0.1875  0.8456 -1.8919
12779TIP3    H259829   4.241   5.848   2.583  2.1210  1.8590 -4.0683
12780TIP3   OH259830   3.575   4.197   2.907 -0.2434 -0.6565  0.0400
12780TIP3    H159831   3.528   4.198   2.991  0.7984  0.8598  0.6619
12780TIP3    H259832   3.667   4.205   2.932 -0.0504  2.5333 -1.2549
12781TIP3   OH259833   3.002   3.558  15.796  0.3580  0.5669 -0.2918
12781TIP3    H159834   3.048   3.621  15.741  1.5982  0.7908  0.9586
12781TIP3    H259835   2.968   3.493  15.734  1.3711  1.0070 -1.3469
12782TIP3   OH259836   4.677   0.629   1.229 -0.0519 -1.0654 -0.8156
12782TIP3    H159837   4.681   0.570   1.153  0.7105 -0.6687 -1.0911
12782TIP3    H259838   4.742   0.595   1.290 -0.2319 -1.0239 -0.5981
12783TIP3   OH259839   4.900   5.259  15.900 -0.6132  1.0049 -0.0323
12783TIP3    H159840   4.865   5.307  15.825  0.5152  1.5693 -0.2126
12783TIP3    H259841   4.977   5.214  15.866 -0.4426  0.7807  0.6461
12784TIP3   OH259842   4.751   0.967  17.055 -0.2327 -0.2202  0.5580
12784TIP3    H159843   4.681   0.950  17.119 -0.9934 -0.1267 -0.2308
12784TIP3    H259844   4.802   0.886  17.053 -1.1053 -0.7689  0.1742
12785TIP3   OH259845   0.614   6.167  12.733 -0.0117 -0.0506  0.0079
12785TIP3    H159846   0.534   6.113  12.732  0.2195 -0.4209  0.6311
12785TIP3    H259847   0.653   6.148  12.818 -0.1513  1.4494  0.4264
12786TIP3   OH259848   2.886   6.151   4.105 -0.0828 -0.4015  0.7853
12786TIP3    H159849   2.856   6.240   4.124  0.4010 -0.5669  2.5647
12786TIP3    H259850   2.805   6.102   4.091 -0.3375  0.3878 -0.7276
12787TIP3   OH259851   4.912   0.309  14.577  0.3274  0.2012  0.1359
12787TIP3    H159852   4.895   0.354  14.659  0.3227  1.4133 -0.5014
12787TIP3    H259853   4.906   0.216  14.598 -3.6978  0.3937  0.7535
12788TIP3   OH259854   0.763   0.862   0.365 -0.3019 -0.6021 -0.0275
12788TIP3    H159855   0.771   0.846   0.459  0.6841 -1.8123 -0.2958
12788TIP3    H259856   0.815   0.941   0.350  1.3439 -1.6253  0.1276
12789TIP3   OH259857   5.703   0.657   2.218  0.4689 -0.3756  0.4287
12789TIP3    H159858   5.679   0.589   2.281 -2.0144 -0.5234 -0.5493
12789TIP3    H259859   5.629   0.660   2.157  1.8963  1.0988 -1.3525
12790TIP3   OH259860   3.845   3.924   3.261  0.3994  0.2978 -0.3611
12790TIP3    H159861   3.860   3.885   3.175  0.6222 -0.3198 -0.0493
12790TIP3    H259862   3.858   3.852   3.323 -0.1331  0.6449  0.1678
12791TIP3   OH259863   3.614   4.318   2.662  0.2563  0.0780 -0.2267
12791TIP3    H159864   3.591   4.238   2.709  1.3194  1.0425  2.1108
12791TIP3    H259865   3.691   4.352   2.708  0.9158  1.5539 -2.2352
12792TIP3   OH259866   6.062   1.535   5.085  0.5255  0.1581  0.2715
12792TIP3    H159867   6.153   1.563   5.094  0.4160  0.3539  0.8545
12792TIP3    H259868   6.067   1.445   5.053  0.9345  0.0002  0.7633
12793TIP3   OH259869   3.686   5.541  12.166  0.0016  0.2248 -0.4107
12793TIP3    H159870   3.655   5.451  12.175  1.0603 -0.1010  0.1516
12793TIP3    H259871   3.632   5.591  12.228  0.8707 -0.4159  0.9264
12794TIP3   OH259872   3.738   0.482   0.027  0.1374 -0.2638  0.2930
12794TIP3    H159873   3.705   0.399   0.061 -1.9733 -0.5276 -2.0661
12794TIP3    H259874   3.694   0.549   0.079  0.7050 -0.6109  1.2321
12795TIP3   OH259875   5.075   4.507   1.672 -0.1280 -0.6324 -0.2945
12795TIP3    H159876   5.147   4.535   1.616  1.2821  1.5241  2.3450
12795TIP3    H259877   5.028   4.588   1.693 -1.4107 -1.5534  0.5229
12796TIP3   OH259878   0.973   2.374  14.245 -0.1087  0.2714  0.0176
12796TIP3    H159879   1.002   2.425  14.321 -1.6641 -1.0877  1.5893
12796TIP3    H259880   0.895   2.419  14.214  1.0819  1.4210 -1.5160
12797TIP3   OH259881   0.791   5.679   5.764 -0.3905 -1.1086  0.3565
12797TIP3    H159882   0.796   5.760   5.815 -0.5314 -0.1568 -1.0894
12797TIP3    H259883   0.876   5.637   5.776  0.1410 -0.1168  0.1126
12798TIP3   OH259884   5.470   5.876   2.444  0.2183  0.0908 -0.3063
12798TIP3    H159885   5.413   5.931   2.497 -0.1367 -0.5628 -0.0023
12798TIP3    H259886   5.450   5.786   2.471  1.4835 -0.1464 -0.1020
12799TIP3   OH259887   2.035   4.557  16.475 -0.1473 -0.4460  0.0465
12799TIP3    H159888   1.975   4.573  16.548 -0.0010  0.1095  0.0533
12799TIP3    H259889   2.005   4.617  16.406  0.0769 -0.5432 -0.1359
12800TIP3   OH259890   6.637   5.359  16.236 -0.2400 -0.2447  0.0949
12800TIP3    H159891   6.657   5.424  16.303 -0.1240  0.8062 -0.9200
12800TIP3    H259892   6.703   5.372  16.168 -0.9623 -0.5670 -0.6992
12801TIP3   OH259893   0.915   3.071   6.552 -0.4395  0.6704  0.0987
12801TIP3    H159894   0.972   3.142   6.582  0.2430  0.5777 -0.9140
12801TIP3    H259895   0.883   3.030   6.632 -0.7656  2.0473  0.7049
12802TIP3   OH259896   4.744   1.098   5.229 -0.3466  0.5025 -0.0394
12802TIP3    H159897   4.717   1.187   5.251 -1.0137 -0.1593  2.1120
12802TIP3    H259898   4.836   1.106   5.203 -0.2187  1.7667  0.7321
12803TIP3   OH259899   5.022   3.574   4.104 -0.1273 -0.3383  0.1943
12803TIP3    H159900   4.968   3.498   4.082  1.2008 -1.6487  1.3033
12803TIP3    H259901   5.087   3.579   4.034 -0.5847  0.1747 -0.2049
12804TIP3   OH259902   5.341   3.212  15.885 -0.3628  0.0712 -0.2895
12804TIP3    H159903   5.258   3.222  15.933 -0.5042 -0.4666 -0.4148
12804TIP3    H259904   5.372   3.302  15.872 -0.1680  0.2169  1.0640
12805TIP3   OH259905   5.475   6.040  12.559 -0.3142 -0.1212 -0.0355
12805TIP3    H159906   5.450   6.129  12.584 -0.6890 -0.4141  0.6582
12805TIP3    H259907   5.446   6.032  12.468 -0.6088  0.3428  0.0127
12806TIP3   OH259908   0.067   1.871   4.784  0.0978  0.2530  0.0554
12806TIP3    H159909   0.143   1.902   4.734  0.3829  0.4619  0.6183
12806TIP3    H259910  -0.001   1.936   4.766  0.2914  0.4926  0.1812
12807TIP3   OH259911   5.711   0.591   3.351 -0.2722 -0.4874  0.0831
12807TIP3    H159912   5.711   0.660   3.418 -1.8404 -1.3886  1.0606
12807TIP3    H259913   5.803   0.581   3.328  0.1539  0.8518  1.0364
12808TIP3   OH259914   4.971   5.414   2.621 -0.6403  0.4952  0.1166
12808TIP3    H159915   5.047   5.365   2.592 -1.5803 -0.9258 -0.0413
12808TIP3    H259916   4.992   5.505   2.600 -0.1049 -0.1360 -2.4783
12809TIP3   OH259917   6.259   0.246   1.829  0.1882 -0.5670 -0.0551
12809TIP3    H159918   6.234   0.159   1.798 -0.1909 -0.0699 -1.2108
12809TIP3    H259919   6.196   0.305   1.787  0.1197  0.2216  1.1190
12810TIP3   OH259920   4.432   2.296  10.863 -0.1557  0.1622  0.5669
12810TIP3    H159921   4.366   2.357  10.828  0.0942  0.0294 -0.1671
12810TIP3    H259922   4.414   2.214  10.818  0.8794  0.2846 -0.1063
12811TIP3   OH259923   0.024   6.794   0.594  0.6175 -0.2052 -0.0562
12811TIP3    H159924   0.058   6.738   0.524  0.6313 -0.6534  0.3103
12811TIP3    H259925   0.035   6.883   0.560 -1.7764 -0.4616 -1.7787
12812TIP3   OH259926   0.080   5.292  14.144  0.2827  0.2533  0.4388
12812TIP3    H159927   0.156   5.333  14.186  2.7164 -2.0072 -1.4346
12812TIP3    H259928   0.057   5.220  14.202 -0.0634  0.5736  0.7037
12813TIP3   OH259929   5.657   1.491   1.581 -0.4581  0.5086 -0.1561
12813TIP3    H159930   5.622   1.445   1.505 -1.0807 -1.0579  1.0114
12813TIP3    H259931   5.696   1.422   1.635  1.2705  1.7599  0.2852
12814TIP3   OH259932   0.241   3.393  14.822 -0.1808 -0.7436 -0.1683
12814TIP3    H159933   0.276   3.393  14.733  0.4138 -0.5548  0.0599
12814TIP3    H259934   0.200   3.479  14.832 -1.6581 -1.3452 -0.7880
12815TIP3   OH259935   3.042   1.826   3.148  0.1005 -0.0928 -0.2047
12815TIP3    H159936   3.013   1.865   3.230  0.1382 -0.5233  0.0161
12815TIP3    H259937   2.981   1.859   3.082 -0.2350 -0.1446  0.0801
12816TIP3   OH259938   2.689   5.192  14.726 -0.0293 -0.2215  0.0760
12816TIP3    H159939   2.752   5.166  14.794 -0.2131 -0.7440  0.0518
12816TIP3    H259940   2.742   5.202  14.647  0.3070  1.1059  0.4384
12817TIP3   OH259941   3.367   5.680  14.264 -0.4470 -0.0918  0.4476
12817TIP3    H159942   3.282   5.698  14.225  0.1610  1.4700 -0.2386
12817TIP3    H259943   3.349   5.616  14.334 -2.2070  0.4335  0.5076
12818TIP3   OH259944   6.692   5.589   2.561 -0.5768  0.0761 -0.3283
12818TIP3    H159945   6.716   5.598   2.653 -1.1191  0.4589 -0.2212
12818TIP3    H259946   6.770   5.553   2.519 -0.1244  0.4537  0.1796
12819TIP3   OH259947   1.665   5.386   5.199  0.0587  0.0961  0.2453
12819TIP3    H159948   1.717   5.313   5.233 -0.1662  0.5949  1.6971
12819TIP3    H259949   1.626   5.351   5.118 -0.8479 -1.7410  1.4092
12820TIP3   OH259950   1.620   0.038   1.310  0.1792  0.7099  0.1762
12820TIP3    H159951   1.636  -0.039   1.364 -2.2726  0.5349  0.7886
12820TIP3    H259952   1.685   0.102   1.339  0.8407 -0.3969  1.2025
12821TIP3   OH259953   1.397   4.449   1.776  0.1753 -0.2492 -0.2496
12821TIP3    H159954   1.446   4.400   1.710  1.8915  0.8527  0.1417
12821TIP3    H259955   1.442   4.534   1.780 -1.0576  0.3759  0.9955
12822TIP3   OH259956   4.982   5.310  12.975 -0.3985 -0.0447 -0.3151
12822TIP3    H159957   4.932   5.260  13.040  1.0201  0.4873  1.2406
12822TIP3    H259958   4.945   5.282  12.891 -0.3395 -2.9670  0.5177
12823TIP3   OH259959   6.818   3.443  16.921  0.0839  0.0202  0.6567
12823TIP3    H159960   6.761   3.453  16.997 -0.0720  0.9229  0.4343
12823TIP3    H259961   6.841   3.533  16.896 -2.4586  0.0409 -2.2640
12824TIP3   OH259962   1.623   0.023  15.711  0.6003 -0.0885  0.0957
12824TIP3    H159963   1.570  -0.035  15.766  1.5361  0.2102  1.3581
12824TIP3    H259964   1.626  -0.021  15.626 -1.0273 -0.4719  0.2000
12825TIP3   OH259965   0.730   2.437  16.146 -0.8384 -0.1138 -0.1812
12825TIP3    H159966   0.735   2.460  16.239  0.1648  1.4649 -0.5823
12825TIP3    H259967   0.663   2.369  16.142 -1.3218  0.1918  1.6104
12826TIP3   OH259968   5.721   4.153   4.359  0.2530  0.2306  0.8160
12826TIP3    H159969   5.679   4.167   4.444  0.5701  0.9427  0.8702
12826TIP3    H259970   5.653   4.174   4.295 -0.1766 -0.9164  0.8810
12827TIP3   OH259971   1.637   1.158   6.307  0.1699 -0.0421  0.5524
12827TIP3    H159972   1.603   1.088   6.363  1.6017  0.2406  1.8508
12827TIP3    H259973   1.731   1.158   6.323  0.2696  1.8646  0.2137
12828TIP3   OH259974   1.351   3.304  16.130 -0.3244  0.2825 -0.7358
12828TIP3    H159975   1.304   3.312  16.047 -0.3303  2.9612 -0.5446
12828TIP3    H259976   1.441   3.325  16.109  0.0550 -0.9010 -0.3728
12829TIP3   OH259977   5.858   4.078  16.763 -0.1405 -0.3168 -0.2625
12829TIP3    H159978   5.802   4.091  16.687 -0.3916 -0.0719 -0.0357
12829TIP3    H259979   5.914   4.155  16.766 -0.8704  0.1950  0.4322
12830TIP3   OH259980   5.259   5.629  15.020  0.3570 -0.3123  0.0600
12830TIP3    H159981   5.337   5.651  15.072 -0.1140 -0.0855  0.6762
12830TIP3    H259982   5.225   5.713  14.991  1.3654 -0.4760 -1.7731
12831TIP3   OH259983   1.803   2.261  13.091 -0.5426  0.3715 -0.0132
12831TIP3    H159984   1.743   2.279  13.164 -1.0296  0.9291 -0.5392
12831TIP3    H259985   1.796   2.167  13.077  0.5492  0.0286  1.5048
12832TIP3   OH259986   2.986   5.606   0.134  0.6936 -0.0871 -0.4437
12832TIP3    H159987   2.991   5.570   0.223  1.3310  0.1646 -0.3704
12832TIP3    H259988   3.059   5.565   0.088  1.0126  0.5823 -0.5511
12833TIP3   OH259989   0.377   3.915  12.142 -0.3062 -0.4485 -0.0088
12833TIP3    H159990   0.328   3.996  12.129 -2.3539 -1.8790 -1.7480
12833TIP3    H259991   0.457   3.943  12.188 -1.4043  2.3689  0.3845
12834TIP3   OH259992   0.864   2.527  14.490  0.6889 -0.3305  0.7851
12834TIP3    H159993   0.839   2.460  14.554 -0.7346 -0.3139  0.2740
12834TIP3    H259994   0.957   2.540  14.505  1.0136 -2.4191  0.9142
12835TIP3   OH259995   4.038   3.832   0.368 -0.1599  0.0382  0.0519
12835TIP3    H159996   4.112   3.771   0.375  0.1418  0.4979  1.3535
12835TIP3    H259997   3.986   3.814   0.446  0.0312  1.5345  0.5578
12836TIP3   OH259998   4.164   6.590   1.190  0.5416 -0.4142  0.6531
12836TIP3    H159999   4.224   6.556   1.124 -0.2110  0.4793 -0.5382
12836TIP3    H260000   4.206   6.570   1.274  1.0892 -2.4070 -0.0352
12837TIP3   OH260001   5.639   3.380   5.020  0.4591  0.1928 -0.0011
12837TIP3    H160002   5.552   3.347   5.041 -0.1781  2.7264  1.7456
12837TIP3    H260003   5.696   3.345   5.089  0.6705 -0.7217 -0.6258
12838TIP3   OH260004   3.076   4.548  14.079 -0.2670 -0.1658  0.3752
12838TIP3    H160005   2.987   4.581  14.093  0.0050  1.0323 -0.5074
12838TIP3    H260006   3.104   4.516  14.165 -1.5425 -0.5755  0.6585
12839TIP3   OH260007   4.317   6.117   1.646  0.2120 -0.0396 -0.0966
12839TIP3    H160008   4.232   6.159   1.659 -0.7426 -2.3538  1.9626
12839TIP3    H260009   4.365   6.176   1.588 -2.0558  2.3325  0.2829
12840TIP3   OH260010   1.653   5.285   5.599  0.1981 -0.2668  0.2946
12840TIP3    H160011   1.591   5.219   5.633  0.5589 -1.4929 -1.2755
12840TIP3    H260012   1.600   5.364   5.587 -0.3790 -0.4164  1.7048
12841TIP3   OH260013   6.101   4.652  10.871  0.2355 -0.3505 -0.3658
12841TIP3    H160014   6.007   4.656  10.892  0.6076 -0.8851  1.6047
12841TIP3    H260015   6.105   4.602  10.790 -1.2357  0.4961 -1.0145
12842TIP3   OH260016   2.859   5.870   0.758  0.3711  0.0076  0.3706
12842TIP3    H160017   2.854   5.912   0.673 -0.5973 -0.0623  0.3750
12842TIP3    H260018   2.900   5.785   0.741 -1.9874 -1.0619 -0.4933
12843TIP3   OH260019   3.559   4.944  15.394  0.4581 -0.3048  0.0690
12843TIP3    H160020   3.476   4.986  15.414  0.3699 -0.8204  0.8199
12843TIP3    H260021   3.613   5.015  15.358 -0.3760 -0.0254 -0.6674
12844TIP3   OH260022   4.461   5.084  15.444 -0.5045 -0.3416 -0.1134
12844TIP3    H160023   4.494   5.165  15.483 -0.4906  0.0162 -0.8512
12844TIP3    H260024   4.532   5.053  15.389 -0.6882 -0.6083 -0.2028
12845TIP3   OH260025   6.137   6.040   2.972 -0.9827  0.2242 -0.0976
12845TIP3    H160026   6.042   6.043   2.955 -0.6283  0.5272 -2.2266
12845TIP3    H260027   6.145   6.066   3.064 -2.9496  0.4221  0.0651
12846TIP3   OH260028   0.064   2.545   5.394 -0.2396  0.2010  0.0045
12846TIP3    H160029   0.024   2.459   5.381  2.3965 -1.1785  0.4173
12846TIP3    H260030   0.066   2.557   5.489  1.5517 -0.4278  0.0763
12847TIP3   OH260031   6.795   5.810   1.651  0.1310  0.8624  0.2675
12847TIP3    H160032   6.768   5.737   1.595 -1.2217  1.7778 -0.3398
12847TIP3    H260033   6.836   5.769   1.727 -2.1616 -0.6493  0.8011
12848TIP3   OH260034   5.965   0.723   2.675 -0.5232 -0.2772  0.1455
12848TIP3    H160035   5.952   0.795   2.736 -0.0629  0.6782 -0.8345
12848TIP3    H260036   5.907   0.744   2.601 -1.1606 -1.4629  0.2919
12849TIP3   OH260037   2.188   0.759   5.229 -0.2526  0.1678  0.4824
12849TIP3    H160038   2.249   0.829   5.205 -0.6012  0.7130  1.1279
12849TIP3    H260039   2.157   0.724   5.146  0.5125  0.2649  0.1530
12850TIP3   OH260040   3.769   1.449  12.108  0.2222 -0.3096 -0.0143
12850TIP3    H160041   3.838   1.406  12.058 -0.4318 -1.8600  0.3800
12850TIP3    H260042   3.815   1.503  12.172  1.0484 -0.1478 -0.7209
12851TIP3   OH260043   3.945   1.069   2.650 -0.0859 -0.0457 -0.3192
12851TIP3    H160044   4.023   1.087   2.702 -0.4200 -1.7103  0.8627
12851TIP3    H260045   3.932   1.148   2.598  2.0240  0.4986 -0.1158
12852TIP3   OH260046   0.671   0.098   4.310  0.1819 -0.1370 -0.2331
12852TIP3    H160047   0.666   0.190   4.335 -0.6917  0.0717 -1.1277
12852TIP3    H260048   0.716   0.098   4.226  1.3856 -0.6602  0.3874
12853TIP3   OH260049   6.013   5.554   3.226 -0.4240 -0.1091 -0.0390
12853TIP3    H160050   5.926   5.574   3.191 -0.8590  0.2819  1.1994
12853TIP3    H260051   6.038   5.633   3.273 -0.4225 -1.0468  1.5912
12854TIP3   OH260052   4.527   1.255  15.750  0.2492  0.1713  0.3256
12854TIP3    H160053   4.552   1.312  15.678 -3.0741  1.2161 -0.1868
12854TIP3    H260054   4.558   1.168  15.724 -0.6876  0.5603 -2.3258
12855TIP3   OH260055   4.501   5.733   4.338  0.0499 -0.0909  0.3901
12855TIP3    H160056   4.412   5.762   4.355 -0.5986 -0.7716 -1.6363
12855TIP3    H260057   4.528   5.781   4.260  1.1309 -0.5967  0.4236
12856TIP3   OH260058   5.988   6.704  13.495  0.2925 -0.0528 -0.0519
12856TIP3    H160059   6.042   6.660  13.560  1.0349 -0.8490 -1.1742
12856TIP3    H260060   5.899   6.699  13.530  0.5123 -1.4998  0.3430
12857TIP3   OH260061   0.087   4.887   3.422  0.0751  0.2902  0.1807
12857TIP3    H160062   0.152   4.824   3.454 -1.7685 -0.9356  1.7161
12857TIP3    H260063   0.051   4.846   3.343  1.2778  1.0943 -0.8271
12858TIP3   OH260064   0.128   4.415   0.307  0.6064 -0.0949 -0.1812
12858TIP3    H160065   0.041   4.377   0.291  0.4867 -0.1569  0.5808
12858TIP3    H260066   0.110   4.502   0.343  0.8786  0.5271 -1.4920
12859TIP3   OH260067   4.750   3.262  14.173  0.2490 -0.3226 -0.5582
12859TIP3    H160068   4.760   3.173  14.138  0.0951  0.2276 -2.1086
12859TIP3    H260069   4.673   3.297  14.128 -0.1372  0.3594  0.5848
12860TIP3   OH260070   3.236   3.744  12.774 -0.2651 -0.3444  0.4996
12860TIP3    H160071   3.209   3.666  12.724  0.9774 -0.9970  0.8179
12860TIP3    H260072   3.214   3.817  12.717  1.0607 -1.0685 -1.0081
12861TIP3   OH260073   0.151   0.408   1.774 -0.4669  0.0970 -0.4998
12861TIP3    H160074   0.183   0.489   1.814  0.1034 -0.1734 -0.3970
12861TIP3    H260075   0.097   0.437   1.701 -2.4684  0.6440  1.0827
12862TIP3   OH260076   6.305   6.162  11.731  0.1220 -0.2583 -0.0641
12862TIP3    H160077   6.319   6.069  11.719 -0.8750 -0.3822 -0.3854
12862TIP3    H260078   6.364   6.187  11.802 -0.1760 -1.2953  0.5728
12863TIP3   OH260079   1.713   4.145   5.429 -0.2119  0.1984  0.0034
12863TIP3    H160080   1.800   4.123   5.395 -0.1970 -1.3553  0.9538
12863TIP3    H260081   1.689   4.070   5.483 -1.3319  1.4501  1.3198
12864TIP3   OH260082   2.882   3.595   4.759  0.4534 -0.3807 -0.5354
12864TIP3    H160083   2.845   3.654   4.693  1.4675  0.2754 -0.5506
12864TIP3    H260084   2.883   3.509   4.717  1.6946  0.1389 -1.6721
12865TIP3   OH260085   5.445   2.234  16.181  0.0476 -0.0314  0.4242
12865TIP3    H160086   5.501   2.308  16.156  0.9938 -0.5501  0.9483
12865TIP3    H260087   5.472   2.164  16.122 -0.0422 -0.2935  0.6954
12866TIP3   OH260088   3.041   5.726  15.666  0.0805  0.1593 -0.1574
12866TIP3    H160089   3.068   5.650  15.614 -2.4723 -0.2939 -1.0001
12866TIP3    H260090   3.052   5.698  15.757 -2.4062 -2.0024 -0.3920
12867TIP3   OH260091   1.629   1.385   3.016  0.1222 -0.1800 -0.1587
12867TIP3    H160092   1.633   1.345   3.103 -0.6013 -0.2884 -0.1670
12867TIP3    H260093   1.634   1.311   2.956  0.5750 -0.1086 -0.2145
12868TIP3   OH260094   4.378   4.689   3.295  0.2140  0.2593 -0.0812
12868TIP3    H160095   4.430   4.701   3.375 -2.9745 -0.2877  2.2784
12868TIP3    H260096   4.332   4.772   3.283  0.2344  0.1457 -1.0565
12869TIP3   OH260097   2.359   3.998   4.222 -0.1186  0.1962  0.0849
12869TIP3    H160098   2.294   3.963   4.282 -0.5923  1.1517  0.1509
12869TIP3    H260099   2.443   3.970   4.258 -0.4692 -0.6267  0.2756
12870TIP3   OH260100   0.940   1.474  13.633  0.0600  0.0383 -0.1977
12870TIP3    H160101   0.846   1.466  13.615  0.2789 -0.8607 -1.0847
12870TIP3    H260102   0.972   1.531  13.563  0.4708 -1.2706 -1.1366
12871TIP3   OH260103   1.873   3.929  16.627  0.0381 -0.4700 -0.1431
12871TIP3    H160104   1.842   3.838  16.619 -2.9088  0.3985  0.2508
12871TIP3    H260105   1.822   3.978  16.563 -0.6187  1.3456  1.6364
12872TIP3   OH260106   5.525   1.100  11.227  0.0776  0.6585  0.6141
12872TIP3    H160107   5.556   1.052  11.304  0.5957 -1.3562 -0.7783
12872TIP3    H260108   5.596   1.159  11.205  0.5693  0.1338  0.7701
12873TIP3   OH260109   1.509   6.325   0.101  0.1192 -0.0389  0.4536
12873TIP3    H160110   1.475   6.404   0.143 -0.8423 -0.9614  1.4838
12873TIP3    H260111   1.520   6.350   0.009 -2.5969  0.5808  0.2085
12874TIP3   OH260112   6.171   0.028  16.456  0.0621  0.0602  0.6906
12874TIP3    H160113   6.145   0.020  16.548 -3.0869 -0.4559 -0.1428
12874TIP3    H260114   6.159   0.121  16.435  0.2704  0.0774  0.6377
12875TIP3   OH260115   5.450   0.902   5.463  0.5388 -0.5300  0.2595
12875TIP3    H160116   5.417   0.861   5.383  1.7871 -0.6325 -0.2260
12875TIP3    H260117   5.373   0.941   5.504 -0.0106  0.2128 -1.3954
12876TIP3   OH260118   2.747   3.968   0.614  0.6786 -0.4895 -0.1674
12876TIP3    H160119   2.697   3.929   0.543  0.7148 -1.1397  0.1549
12876TIP3    H260120   2.716   3.923   0.693 -0.2923  1.0966  0.4164
12877TIP3   OH260121   1.675   4.768   5.954  0.4514  0.6221 -0.0318
12877TIP3    H160122   1.746   4.743   6.013 -1.2479  1.6673  2.6362
12877TIP3    H260123   1.641   4.685   5.921  1.5221  0.0106  0.3507
12878TIP3   OH260124   5.593   3.669   1.710 -0.7545 -0.0298 -0.3848
12878TIP3    H160125   5.517   3.711   1.669  0.2118  0.6879 -1.5088
12878TIP3    H260126   5.645   3.741   1.744 -0.9034 -0.5551  1.0439
12879TIP3   OH260127   3.966   2.482   3.469  0.1950 -0.0502  0.4810
12879TIP3    H160128   3.993   2.551   3.529 -1.9444  1.5647 -0.2919
12879TIP3    H260129   3.960   2.404   3.524  1.2294  0.6911  1.6975
12880TIP3   OH260130   3.803   4.849   0.711  0.4073 -0.4525 -0.3343
12880TIP3    H160131   3.853   4.874   0.789 -0.2052 -0.2700  0.0049
12880TIP3    H260132   3.790   4.755   0.720  1.8892 -0.7777 -1.1346
12881TIP3   OH260133   1.577   2.033  16.601 -0.2166  0.1973 -0.1009
12881TIP3    H160134   1.494   2.026  16.555  0.4094  2.6762 -1.8053
12881TIP3    H260135   1.635   1.973  16.555  0.5059  2.8912 -3.1094
12882TIP3   OH260136   4.059   5.721  13.822 -0.0630  0.0337  0.1465
12882TIP3    H160137   4.105   5.696  13.902  0.9423  0.1588 -0.3786
12882TIP3    H260138   3.985   5.660  13.817 -0.3435  0.2453  1.3407
12883TIP3   OH260139   3.795   5.171  11.226  0.0166 -0.0819  0.0848
12883TIP3    H160140   3.718   5.157  11.171  1.1161 -2.0864 -1.0588
12883TIP3    H260141   3.863   5.200  11.166  1.2913 -2.4603  0.2770
12884TIP3   OH260142   4.766   3.399  15.150  0.0436 -0.1336 -0.0334
12884TIP3    H160143   4.674   3.418  15.130  0.2328  0.5657 -0.2859
12884TIP3    H260144   4.803   3.484  15.177  0.6701 -0.3588 -0.1613
12885TIP3   OH260145   4.535   4.982   3.264 -0.2072  0.2751 -0.5627
12885TIP3    H160146   4.473   5.047   3.230 -0.2836  1.1282  1.0708
12885TIP3    H260147   4.488   4.940   3.337  0.2317 -0.8748 -0.9217
12886TIP3   OH260148   0.513   1.777   5.994  0.0400 -0.2089  0.6680
12886TIP3    H160149   0.460   1.720   6.050 -1.9396  1.6166  0.7671
12886TIP3    H260150   0.596   1.787   6.041  0.1814 -2.3368  0.9930
12887TIP3   OH260151   2.275   1.120  14.408  0.4501 -0.1654 -0.5845
12887TIP3    H160152   2.352   1.161  14.448  0.7555  0.1692 -1.5091
12887TIP3    H260153   2.285   1.136  14.315  0.2176 -1.7509 -0.9042
12888TIP3   OH260154   3.014   4.325  17.061  0.1275 -0.0120 -0.1210
12888TIP3    H160155   3.062   4.242  17.059 -0.5501 -0.4009 -0.6005
12888TIP3    H260156   2.924   4.300  17.083 -0.4425  0.3992 -1.8284
12889TIP3   OH260157   3.620   1.413   1.527  0.1644  0.2637 -0.0145
12889TIP3    H160158   3.567   1.449   1.599 -0.3630  0.8452 -0.6884
12889TIP3    H260159   3.600   1.468   1.452  2.0319  0.7373 -0.2054
12890TIP3   OH260160   3.258   4.895  11.065  0.0224  0.4639 -0.6259
12890TIP3    H160161   3.300   4.848  10.992  0.5598  1.5551 -1.0423
12890TIP3    H260162   3.164   4.880  11.052  0.1765 -0.4162 -0.7943
12891TIP3   OH260163   1.473   5.662  14.718 -0.5012 -0.7539 -0.1881
12891TIP3    H160164   1.551   5.615  14.688 -0.1704 -0.2185 -0.1774
12891TIP3    H260165   1.508   5.737  14.767 -1.0253 -0.6587  0.0434
12892TIP3   OH260166   1.294   3.786  13.172  0.2499  0.1193 -0.2297
12892TIP3    H160167   1.252   3.827  13.247 -2.4501 -1.3916 -0.7910
12892TIP3    H260168   1.379   3.757  13.205  0.2497  1.8384  1.4437
12893TIP3   OH260169   3.890   4.133  16.578  0.2824  0.1615 -0.2365
12893TIP3    H160170   3.916   4.217  16.616  1.0908 -0.2454  0.1214
12893TIP3    H260171   3.830   4.157  16.507  2.1176  1.1717 -1.5123
12894TIP3   OH260172   5.581   1.794  16.516  0.0493 -0.1962 -0.3310
12894TIP3    H160173   5.638   1.720  16.495 -1.2343 -1.3124 -0.0759
12894TIP3    H260174   5.502   1.779  16.464 -0.0705  1.2387 -0.5890
12895TIP3   OH260175   4.850   3.353  13.798  0.1815  0.2426 -0.0381
12895TIP3    H160176   4.806   3.436  13.818 -1.6987 -0.6420 -0.2480
12895TIP3    H260177   4.836   3.300  13.877  4.3598  1.1674  1.5601
12896TIP3   OH260178   6.458   0.391   1.056  0.8002  0.1143  0.2993
12896TIP3    H160179   6.419   0.475   1.033 -1.4861 -0.8696  0.3469
12896TIP3    H260180   6.424   0.372   1.144 -0.0610 -1.6015 -0.3712
12897TIP3   OH260181   3.669   2.417  15.950 -0.1926 -0.4686 -0.2300
12897TIP3    H160182   3.639   2.345  16.006  0.3078 -0.3025  0.2541
12897TIP3    H260183   3.590   2.467  15.932 -1.1188 -2.5714 -2.7602
12898TIP3   OH260184   1.774   3.794   4.836  0.2073 -0.0159  0.2397
12898TIP3    H160185   1.756   3.819   4.926  0.3592  0.3034  0.1828
12898TIP3    H260186   1.737   3.706   4.827 -1.4255  0.6351  0.1119
12899TIP3   OH260187   0.332   2.092   2.051  0.4374  0.1946 -0.3166
12899TIP3    H160188   0.308   2.096   1.958 -0.1745  0.6579 -0.1450
12899TIP3    H260189   0.351   2.182   2.074 -1.0170  0.3539  0.4111
12900TIP3   OH260190   6.144   4.747   1.312  0.0602  0.3024 -0.1111
12900TIP3    H160191   6.056   4.746   1.275 -0.0508  0.9432  0.1203
12900TIP3    H260192   6.202   4.751   1.235 -0.2093  3.4296 -0.2632
12901TIP3   OH260193   6.463   0.254  13.863  0.0020 -0.0589 -0.1797
12901TIP3    H160194   6.418   0.173  13.888 -0.5350  0.7737  1.7367
12901TIP3    H260195   6.466   0.251  13.768 -1.2651 -1.6696 -0.2179
12902TIP3   OH260196   2.131   3.585  12.574 -0.0197 -0.2455 -0.3215
12902TIP3    H160197   2.050   3.556  12.532 -0.7626 -1.9861  2.0810
12902TIP3    H260198   2.199   3.528  12.539 -0.5631 -1.4249  0.4936
12903TIP3   OH260199   5.550   2.642  10.615  0.0863 -0.8042 -0.4370
12903TIP3    H160200   5.492   2.579  10.572  0.1728 -0.7898 -0.5764
12903TIP3    H260201   5.637   2.621  10.580  0.4766 -2.0626  1.1568
12904TIP3   OH260202   3.201   4.488   6.712  0.5040  0.2587  0.0743
12904TIP3    H160203   3.292   4.509   6.733  1.2091 -1.9079 -0.5268
12904TIP3    H260204   3.182   4.541   6.634  1.6672 -0.1208 -0.4982
12905TIP3   OH260205   6.078   5.953  14.022  0.0455 -0.3778  0.2438
12905TIP3    H160206   6.001   5.943  13.967 -0.8954  1.0108  1.2426
12905TIP3    H260207   6.124   5.869  14.015 -1.2985 -1.0601 -0.7439
12906TIP3   OH260208   2.781   3.732   2.073  0.4848  0.0075  0.4275
12906TIP3    H160209   2.770   3.639   2.092 -0.6343 -0.1271 -0.7083
12906TIP3    H260210   2.848   3.735   2.005 -0.1256 -0.0654 -0.1917
12907TIP3   OH260211   6.835   0.213  14.993 -0.3115 -0.0564 -0.0614
12907TIP3    H160212   6.919   0.168  14.998 -0.4079 -0.3272 -0.8179
12907TIP3    H260213   6.835   0.257  14.908  0.3938  2.6435  1.2356
12908TIP3   OH260214   6.111   2.177  11.908  0.0370 -0.0041  0.2954
12908TIP3    H160215   6.059   2.175  11.989 -0.7497  1.6961 -0.1113
12908TIP3    H260216   6.046   2.195  11.839  0.7514 -1.0158 -0.6677
12909TIP3   OH260217   0.817   5.648  15.485 -0.4944 -0.0461  0.0270
12909TIP3    H160218   0.850   5.731  15.450  0.0388 -0.4821 -0.5135
12909TIP3    H260219   0.885   5.584  15.464  0.6090 -0.0803  3.2236
12910TIP3   OH260220   4.222   1.615  13.677  0.2990  0.1568 -0.7016
12910TIP3    H160221   4.228   1.591  13.584  1.3534  0.7445 -0.8027
12910TIP3    H260222   4.312   1.637  13.702  0.0139  0.0973  0.4424
12911TIP3   OH260223   5.206   0.034  12.592  0.1959  0.3874 -0.1071
12911TIP3    H160224   5.194   0.106  12.654 -0.1706 -0.0968  0.3883
12911TIP3    H260225   5.126   0.035  12.539  0.0244  0.1218  0.1401
12912TIP3   OH260226   0.085   4.646  14.980 -0.4621 -0.5641  0.2404
12912TIP3    H160227   0.126   4.714  14.926  0.9064 -1.4888  0.0633
12912TIP3    H260228   0.042   4.693  15.051  2.6781  0.4358  1.6539
12913TIP3   OH260229   3.913   6.295  12.697  0.1447  0.0631  0.4607
12913TIP3    H160230   3.839   6.313  12.639 -0.0191  0.8047  0.8780
12913TIP3    H260231   3.939   6.206  12.676  0.3359  0.4449 -1.0162
12914TIP3   OH260232   2.267   0.073   4.399 -0.5238 -0.1085 -0.4103
12914TIP3    H160233   2.269   0.168   4.400 -0.8244 -0.0975 -0.8130
12914TIP3    H260234   2.241   0.048   4.487  0.5584  0.1521  0.0030
12915TIP3   OH260235   6.643   3.153   2.793  0.0092 -0.2139  0.0066
12915TIP3    H160236   6.572   3.131   2.853 -1.7020  0.8438 -1.5272
12915TIP3    H260237   6.640   3.248   2.785 -0.4274 -0.3556 -2.3731
12916TIP3   OH260238   6.241   6.481   6.911 -0.2858  0.5765 -0.2061
12916TIP3    H160239   6.314   6.423   6.930 -0.8387 -0.0838 -0.0631
12916TIP3    H260240   6.279   6.552   6.859  0.5290  0.4642  0.2309
12917TIP3   OH260241   5.287   3.174   0.495 -0.6022  0.0352  0.1238
12917TIP3    H160242   5.215   3.123   0.458 -0.6858 -0.0513  0.4111
12917TIP3    H260243   5.248   3.260   0.512 -0.0294  0.8036 -2.0447
12918TIP3   OH260244   1.491   2.678  11.831 -0.0751  0.7070  0.5370
12918TIP3    H160245   1.433   2.748  11.860  0.6207  0.1962  3.4456
12918TIP3    H260246   1.542   2.717  11.760 -2.1770  1.9350 -0.4171
12919TIP3   OH260247   2.591   5.968  14.888 -0.1589 -0.2251  0.2804
12919TIP3    H160248   2.671   5.972  14.941  0.7897 -0.8537 -1.0489
12919TIP3    H260249   2.552   5.883  14.911  0.6927 -0.8740 -0.6134
12920TIP3   OH260250   2.218   5.802   3.711  0.3463 -0.0607 -0.2260
12920TIP3    H160251   2.234   5.831   3.621  1.0358  1.0306  0.2352
12920TIP3    H260252   2.181   5.877   3.755  0.5708 -0.3975  0.5595
12921TIP3   OH260253   3.482   4.845   4.954 -0.5818  0.1749 -0.4556
12921TIP3    H160254   3.483   4.939   4.933 -1.2261 -0.2201 -2.5096
12921TIP3    H260255   3.404   4.812   4.910  0.1074 -1.4922 -0.4818
12922TIP3   OH260256   0.747   0.893   0.836  0.3642 -0.2247  0.5225
12922TIP3    H160257   0.687   0.955   0.879  2.6958  1.5783  1.3657
12922TIP3    H260258   0.738   0.813   0.887 -1.4980 -0.0976  0.4654
12923TIP3   OH260259   4.248   2.954  16.740 -0.9863  0.4549  0.3630
12923TIP3    H160260   4.156   2.940  16.716 -0.4822 -1.2320 -0.8084
12923TIP3    H260261   4.297   2.910  16.671  0.6885  0.1724  1.6711
12924TIP3   OH260262   2.069   0.015   5.592  0.3744 -0.5585  0.0245
12924TIP3    H160263   2.127   0.082   5.629  0.5102 -0.9548  0.5444
12924TIP3    H260264   2.077   0.026   5.498  0.6503 -0.0584  0.1017
12925TIP3   OH260265   0.416   1.140  11.813  1.1391 -0.2827  0.3660
12925TIP3    H160266   0.441   1.048  11.800 -0.8275 -0.6971 -0.8559
12925TIP3    H260267   0.355   1.159  11.742  1.6557  2.0621  0.4741
12926TIP3   OH260268   3.470   5.696  10.087 -0.2337  0.6646 -0.1520
12926TIP3    H160269   3.540   5.633  10.107  0.6761  0.6712 -2.9557
12926TIP3    H260270   3.396   5.641  10.062  0.7135  0.5630 -3.0949
12927TIP3   OH260271   3.677   4.200  15.734 -0.0863  0.0354  0.0290
12927TIP3    H160272   3.627   4.237  15.661 -0.8618 -1.1648 -0.0607
12927TIP3    H260273   3.654   4.255  15.809  1.2166  1.6931 -0.7102
12928TIP3   OH260274   1.616   1.774  15.140 -0.0223  0.1195 -0.1205
12928TIP3    H160275   1.709   1.753  15.130 -0.0033 -0.2004  0.6996
12928TIP3    H260276   1.571   1.692  15.120 -0.0818  0.0204  0.4180
12929TIP3   OH260277   5.309   4.708  14.774 -0.2005 -0.3840  0.5613
12929TIP3    H160278   5.347   4.664  14.850  0.8128 -0.9563 -0.2549
12929TIP3    H260279   5.329   4.800  14.787  1.6962 -0.6785  0.0630
12930TIP3   OH260280   3.665   2.805   2.332  0.1760  0.8205 -0.1383
12930TIP3    H160281   3.666   2.830   2.239  1.2811  1.0030 -0.0844
12930TIP3    H260282   3.716   2.874   2.376  1.3623 -0.3176  0.3265
12931TIP3   OH260283   2.922   5.201   0.229  1.0640  0.3916 -0.3043
12931TIP3    H160284   2.922   5.107   0.213  0.5979 -0.0628  2.0157
12931TIP3    H260285   2.829   5.225   0.233  1.1240  0.4905  1.2174
12932TIP3   OH260286   4.416   1.109   2.820 -0.5625  0.5555 -0.1523
12932TIP3    H160287   4.434   1.051   2.747 -0.6546  1.6202 -1.0404
12932TIP3    H260288   4.480   1.082   2.887  0.4911  0.4982 -1.1392
12933TIP3   OH260289   2.857   5.888   3.466  0.4237  0.6442 -0.2308
12933TIP3    H160290   2.858   5.928   3.553  0.3882  1.3111 -0.5278
12933TIP3    H260291   2.949   5.880   3.442  0.4373  0.3235 -0.0698
12934TIP3   OH260292   5.672   4.997   4.993  0.1232 -0.5965  1.2242
12934TIP3    H160293   5.640   4.908   4.979  1.1451 -0.6438 -1.2291
12934TIP3    H260294   5.615   5.052   4.939 -0.0360  0.1883  2.1524
12935TIP3   OH260295   3.844   2.218  15.044 -0.8222  0.3015  0.0117
12935TIP3    H160296   3.900   2.216  15.122 -0.5008 -1.7784 -0.2172
12935TIP3    H260297   3.869   2.299  14.999  1.6615 -0.2895  0.1805
12936TIP3   OH260298   5.969   0.331  17.011  0.3099  0.1512 -0.5816
12936TIP3    H160299   5.992   0.412  17.055 -0.7551  0.1562 -0.0070
12936TIP3    H260300   6.021   0.264  17.056 -0.7272  0.1644  0.6761
12937TIP3   OH260301   1.596   3.559   0.125 -0.2273  0.7334 -0.1086
12937TIP3    H160302   1.516   3.565   0.073  0.6835 -0.3043 -1.7168
12937TIP3    H260303   1.592   3.473   0.166  0.3389  0.4282 -0.6851
12938TIP3   OH260304   6.388   0.149   2.191 -0.6280  0.2712 -0.2466
12938TIP3    H160305   6.337   0.169   2.270  2.2101  3.1030  1.1248
12938TIP3    H260306   6.449   0.081   2.218 -0.2395  0.6204 -0.2261
12939TIP3   OH260307   5.011   2.241   4.600 -1.0344 -0.1499  0.2908
12939TIP3    H160308   5.050   2.160   4.565  0.4844  0.1396  1.2158
12939TIP3    H260309   5.003   2.226   4.694 -1.6740  0.4048  0.3303
12940TIP3   OH260310   4.687   2.743   2.797  0.0865 -0.3045 -0.4499
12940TIP3    H160311   4.647   2.657   2.784 -1.0067  0.1204 -0.0073
12940TIP3    H260312   4.710   2.773   2.709  0.2461 -0.9303 -0.6258
12941TIP3   OH260313   2.359   4.212  16.857 -0.1977  0.1098 -0.1238
12941TIP3    H160314   2.423   4.142  16.849 -0.7773 -0.4031 -0.3832
12941TIP3    H260315   2.286   4.173  16.905  0.2108  1.0695  1.3450
12942TIP3   OH260316   2.459   0.107   0.690  0.5017 -0.5412 -0.2121
12942TIP3    H160317   2.398   0.060   0.634 -0.9837  2.1617 -1.0541
12942TIP3    H260318   2.536   0.123   0.635  0.0066  0.0933 -0.7260
12943TIP3   OH260319   4.566   3.567   2.529 -0.3636  0.3788 -0.0864
12943TIP3    H160320   4.553   3.547   2.622 -0.6302 -1.1530 -0.4343
12943TIP3    H260321   4.478   3.570   2.492 -0.2036 -0.2916 -0.5341
12944TIP3   OH260322   6.436   0.344  11.572  0.1196 -0.1575 -0.2488
12944TIP3    H160323   6.429   0.349  11.476  0.9090  0.2280 -0.2964
12944TIP3    H260324   6.520   0.386  11.592  0.2412 -0.7650  0.5644
12945TIP3   OH260325   3.930   2.033   5.342  0.0716 -0.5258  0.2883
12945TIP3    H160326   3.940   1.939   5.355  1.1896 -0.3492  0.8129
12945TIP3    H260327   3.938   2.046   5.247  1.2447 -0.8170  0.3441
12946TIP3   OH260328   3.054   6.205   5.194 -0.1923 -0.0438  0.0861
12946TIP3    H160329   2.971   6.228   5.153 -0.9301 -0.5002  1.2784
12946TIP3    H260330   3.030   6.154   5.271  1.1464  0.5947  0.9802
12947TIP3   OH260331   3.950   0.098   5.653 -0.4800  0.1411  0.3983
12947TIP3    H160332   3.924   0.025   5.596  0.4896 -0.6705  0.9532
12947TIP3    H260333   3.870   0.150   5.664 -1.2810 -1.0048  0.2194
12948TIP3   OH260334   4.588   6.759   1.807  0.1134 -0.0822 -0.0190
12948TIP3    H160335   4.531   6.712   1.746 -0.3010 -1.5901  1.4637
12948TIP3    H260336   4.676   6.731   1.784  0.1099  0.5592 -0.8888
12949TIP3   OH260337   3.909   1.282   2.366  0.3757  0.3400 -0.0763
12949TIP3    H160338   3.877   1.325   2.445 -1.4532 -0.1531 -0.5019
12949TIP3    H260339   3.867   1.196   2.366  0.0657  0.4494 -1.7382
12950TIP3   OH260340   1.885   0.428  14.643  0.6355 -0.2133  0.2988
12950TIP3    H160341   1.812   0.489  14.645  0.5162 -0.2024 -1.9253
12950TIP3    H260342   1.963   0.484  14.649  0.5733 -0.2836  3.6263
12951TIP3   OH260343   4.766   5.909  11.731 -0.3258 -0.5943 -0.1757
12951TIP3    H160344   4.713   5.882  11.656 -0.8454 -0.8371  0.2701
12951TIP3    H260345   4.790   6.000  11.712 -2.2278  0.0602  0.3201
12952TIP3   OH260346   1.316   2.413  12.291 -0.4827 -0.2358  0.4864
12952TIP3    H160347   1.244   2.377  12.342 -1.1682  0.9310  0.3881
12952TIP3    H260348   1.344   2.490  12.340  1.1525 -1.0278  0.8546
12953TIP3   OH260349   6.461   2.991  13.082 -0.5129 -0.3024  0.2159
12953TIP3    H160350   6.410   3.050  13.137 -0.3588  0.5066 -0.5012
12953TIP3    H260351   6.414   2.907  13.087  0.2054 -0.6247  2.6098
12954TIP3   OH260352   4.416   3.636  14.811  0.2651 -0.0013  0.0458
12954TIP3    H160353   4.334   3.650  14.860 -0.7287  0.7442 -1.7169
12954TIP3    H260354   4.399   3.558  14.758  0.9754 -0.2721  0.2097
12955TIP3   OH260355   4.256   5.010  15.282  0.1507 -0.5070  0.2215
12955TIP3    H160356   4.279   5.066  15.208  0.3271  1.4629  1.6566
12955TIP3    H260357   4.320   5.033  15.350 -0.1165 -2.0966  1.0550
12956TIP3   OH260358   5.249   3.640  13.653 -0.4751  0.3656  0.2440
12956TIP3    H160359   5.293   3.611  13.733 -1.2796 -0.3530  0.4351
12956TIP3    H260360   5.193   3.712  13.682 -0.6745  0.1859  0.3071
12957TIP3   OH260361   0.375   3.402  15.151  0.0143  0.0948  0.3450
12957TIP3    H160362   0.290   3.430  15.186 -0.1913  0.1724 -0.1993
12957TIP3    H260363   0.437   3.420  15.221 -0.5154 -0.6053  1.0177
12958TIP3   OH260364   6.444   2.769   0.559 -0.1146 -0.2760  0.4209
12958TIP3    H160365   6.444   2.694   0.500 -1.5713  0.5110 -0.6383
12958TIP3    H260366   6.440   2.731   0.647  2.5325 -1.4850  0.1194
12959TIP3   OH260367   3.580   3.800  16.604 -0.1209  0.1268  0.5241
12959TIP3    H160368   3.522   3.765  16.536 -0.1900 -0.5174  0.9013
12959TIP3    H260369   3.666   3.805  16.562 -0.5465  1.6757 -0.2350
12960TIP3   OH260370   1.617   3.626  12.990  0.2987  0.5289  0.0511
12960TIP3    H160371   1.695   3.670  12.958  2.2182  0.3372  3.9080
12960TIP3    H260372   1.589   3.678  13.066 -0.7349 -1.7014  1.3138
12961TIP3   OH260373   2.453   3.184   2.530 -0.3081 -0.6306  0.5074
12961TIP3    H160374   2.489   3.198   2.442  0.9700  0.4404  1.1546
12961TIP3    H260375   2.384   3.119   2.518 -0.3345 -0.3201 -1.3235
12962TIP3   OH260376   0.473   3.452   0.761 -0.0426 -0.2557 -0.3677
12962TIP3    H160377   0.461   3.513   0.834 -0.0656 -0.4478 -0.2121
12962TIP3    H260378   0.384   3.429   0.734 -0.0344 -0.7030 -0.0246
12963TIP3   OH260379   1.280   4.958   0.001 -0.3887  0.0016 -0.2108
12963TIP3    H160380   1.288   5.029   0.065 -1.5917 -0.1519  0.1263
12963TIP3    H260381   1.364   4.913   0.004  0.2399  1.1459 -0.1209
12964TIP3   OH260382   4.845   5.129   2.793 -0.1256  0.0945  0.5266
12964TIP3    H160383   4.788   5.064   2.833  1.0274 -0.2630  1.6283
12964TIP3    H260384   4.790   5.169   2.725 -2.4806  1.3857  3.0019
12965TIP3   OH260385   4.371   1.697   2.036  0.7940  0.2214  0.1018
12965TIP3    H160386   4.324   1.735   2.110 -0.0104 -0.3680 -0.0853
12965TIP3    H260387   4.325   1.731   1.959  2.2407  1.6497 -0.2075
12966TIP3   OH260388   4.025   3.405   1.469 -0.4422 -0.2620  0.3107
12966TIP3    H160389   4.052   3.495   1.483  0.2378 -0.7020  2.0347
12966TIP3    H260390   3.956   3.390   1.534 -0.3918 -1.0523  0.1931
12967TIP3   OH260391   3.092   4.894   3.684 -0.3853  0.0717 -0.1054
12967TIP3    H160392   3.166   4.833   3.688 -1.5196 -1.2884  1.1761
12967TIP3    H260393   3.049   4.874   3.600  1.4891  1.9357 -1.6229
12968TIP3   OH260394   1.065   1.583  10.832  0.0466  0.0596  0.6166
12968TIP3    H160395   1.043   1.580  10.739  2.4511 -2.6725  0.0248
12968TIP3    H260396   1.142   1.640  10.837 -0.0665  0.1895  0.9755
12969TIP3   OH260397   6.685   4.076   1.538 -0.2561  0.5239 -0.1932
12969TIP3    H160398   6.608   4.130   1.554  0.3716  1.3062  0.2477
12969TIP3    H260399   6.652   4.001   1.488 -0.9572  1.8363 -1.7692
12970TIP3   OH260400   6.270   0.387  11.811 -0.1483  0.3713 -0.0206
12970TIP3    H160401   6.312   0.456  11.863  3.3408 -1.3454 -0.2825
12970TIP3    H260402   6.315   0.390  11.727 -3.0402  0.5736 -1.6873
12971TIP3   OH260403   6.308   4.728  13.889 -0.0574  0.0993  0.2346
12971TIP3    H160404   6.293   4.737  13.795 -1.6543 -1.4712  0.2790
12971TIP3    H260405   6.397   4.693  13.896  1.0834  2.5785 -0.4917
12972TIP3   OH260406   1.578   3.784   1.327  0.2550 -0.0472 -0.0626
12972TIP3    H160407   1.608   3.801   1.238  1.1008 -0.6612  0.0970
12972TIP3    H260408   1.485   3.764   1.317  0.4489 -0.6020 -0.8638
12973TIP3   OH260409   1.835   3.127  15.121 -0.0237  0.1473  0.2356
12973TIP3    H160410   1.788   3.049  15.150  3.3777 -1.6954  1.2593
12973TIP3    H260411   1.873   3.103  15.037 -0.8605  1.6528 -0.6406
12974TIP3   OH260412   0.407   4.559  17.011 -0.0516 -0.0717 -0.3949
12974TIP3    H160413   0.346   4.486  17.023  1.7822 -1.6115  0.0394
12974TIP3    H260414   0.376   4.626  17.072 -2.2577 -0.1024 -1.3879
12975TIP3   OH260415   4.868   6.163  10.719  0.3335 -0.6584 -0.0992
12975TIP3    H160416   4.936   6.203  10.663 -1.1964  1.2599 -0.6972
12975TIP3    H260417   4.786   6.202  10.688 -0.8931 -1.7966  1.5802
12976TIP3   OH260418   0.955   3.960  13.170 -0.2600  0.6535  0.7467
12976TIP3    H160419   0.880   3.928  13.220  1.4042 -2.5009  1.5214
12976TIP3    H260420   1.029   3.951  13.230  1.4110 -0.7485 -1.3673
12977TIP3   OH260421   6.478   3.918   3.814 -0.3525 -0.7168  0.0089
12977TIP3    H160422   6.557   3.952   3.854  1.0339 -0.4775 -2.6767
12977TIP3    H260423   6.415   3.911   3.886  0.8880  2.5899  1.6246
12978TIP3   OH260424   1.444   2.455   4.501  0.0902 -0.6482  0.1894
12978TIP3    H160425   1.536   2.475   4.482 -0.8412  2.9933 -1.2769
12978TIP3    H260426   1.427   2.495   4.586 -0.3157 -0.6084  0.0917
12979TIP3   OH260427   3.589   6.763  12.672  0.0403 -0.0604 -0.0807
12979TIP3    H160428   3.637   6.842  12.696  1.0698  0.0611 -2.3337
12979TIP3    H260429   3.610   6.701  12.741 -2.6229  2.1730  3.0835
12980TIP3   OH260430   1.768   5.812  16.304 -0.0694  0.2685 -0.2283
12980TIP3    H160431   1.857   5.777  16.311  1.1067  2.9033 -0.9004
12980TIP3    H260432   1.712   5.741  16.337  2.1880 -1.7255 -0.3994
12981TIP3   OH260433   3.794   5.128   5.398  0.2568  0.2074  0.0732
12981TIP3    H160434   3.733   5.079   5.344  1.0162  0.3165 -0.9229
12981TIP3    H260435   3.783   5.093   5.487 -2.3748  1.3291  0.2659
12982TIP3   OH260436   6.222   4.286  14.065 -0.2037  0.2418 -1.0005
12982TIP3    H160437   6.255   4.226  13.998 -1.3735 -0.6411 -0.8077
12982TIP3    H260438   6.210   4.231  14.142 -3.9314  0.0315 -1.5755
12983TIP3   OH260439   5.584   2.496  12.128  0.1465  0.4427  0.0722
12983TIP3    H160440   5.668   2.537  12.110 -0.2225  1.5303  0.7326
12983TIP3    H260441   5.519   2.555  12.091 -0.4194  0.7118  1.4063
12984TIP3   OH260442   2.034   6.635  15.646 -0.0107  0.6420  0.5576
12984TIP3    H160443   2.074   6.634  15.733 -0.7184  1.3069  0.9121
12984TIP3    H260444   2.006   6.726  15.634  0.7527  0.7375 -0.6937
12985TIP3   OH260445   2.631   3.265  15.456 -0.3820  0.1707  0.3311
12985TIP3    H160446   2.712   3.315  15.459 -1.1651  1.4852  0.3964
12985TIP3    H260447   2.604   3.269  15.365  0.4939 -1.7572 -0.0550
12986TIP3   OH260448   2.248   3.745  14.933 -0.0513 -0.3568 -0.0642
12986TIP3    H160449   2.296   3.677  14.885  0.1211 -0.8642  0.8018
12986TIP3    H260450   2.156   3.730  14.912 -0.0751 -1.3037  0.6552
12987TIP3   OH260451   0.102   0.238   5.786 -0.4329  0.5394  0.0750
12987TIP3    H160452   0.175   0.193   5.744 -0.2946  2.3070 -1.7388
12987TIP3    H260453   0.028   0.225   5.727 -1.6163 -1.0651  1.7900
12988TIP3   OH260454   5.765   4.205   2.563 -0.2484  0.3284 -0.2858
12988TIP3    H160455   5.845   4.255   2.550 -0.9721  1.2109 -1.4173
12988TIP3    H260456   5.727   4.240   2.644 -0.4207  1.1716 -0.7280
12989TIP3   OH260457   6.555   2.301  15.517  0.2765 -0.1644 -0.7032
12989TIP3    H160458   6.467   2.329  15.493  0.3299 -0.6142 -1.4643
12989TIP3    H260459   6.542   2.214  15.557  0.0321  1.1389  2.2975
12990TIP3   OH260460   3.649   3.298   0.156 -0.2233  0.4138  0.2676
12990TIP3    H160461   3.669   3.205   0.167 -0.0647  0.1276 -2.0353
12990TIP3    H260462   3.667   3.337   0.242  2.0252 -1.2607  0.6317
12991TIP3   OH260463   5.704   0.714   4.887 -0.7515  0.0846 -0.4089
12991TIP3    H160464   5.740   0.794   4.849  0.9844 -0.1224  0.7093
12991TIP3    H260465   5.760   0.644   4.854 -0.9038 -0.4087  0.3543
12992TIP3   OH260466   1.761   3.113   4.256 -0.6394  0.1989 -0.1119
12992TIP3    H160467   1.845   3.074   4.281 -1.6263 -1.1617  1.2740
12992TIP3    H260468   1.768   3.204   4.284  0.7544  0.3883 -0.9934
12993TIP3   OH260469   4.018   5.494   0.739  0.1614 -0.3737 -0.8452
12993TIP3    H160470   4.028   5.536   0.824  0.6370 -0.7597 -0.7060
12993TIP3    H260471   3.925   5.506   0.717 -0.0126 -0.4436 -0.1775
12994TIP3   OH260472   1.290   6.397  16.397 -0.5786  0.1201  0.0078
12994TIP3    H160473   1.264   6.489  16.388 -0.5707  0.0143 -1.3057
12994TIP3    H260474   1.221   6.358  16.451 -0.2182  1.0283  1.1907
12995TIP3   OH260475   4.761   2.797  10.643 -0.1371  0.1844 -0.3653
12995TIP3    H160476   4.695   2.738  10.605 -0.4240  0.5861 -0.5026
12995TIP3    H260477   4.720   2.829  10.724 -0.8432  1.7706 -1.3079
12996TIP3   OH260478   1.101   1.999   0.350 -0.3389  0.0513 -0.1104
12996TIP3    H160479   1.172   2.063   0.347  1.2848 -1.6901 -1.5571
12996TIP3    H260480   1.102   1.957   0.263 -1.2035 -2.0031  0.7925
12997TIP3   OH260481   0.640   0.992  12.434 -0.5182 -0.0641  0.6058
12997TIP3    H160482   0.680   1.073  12.403 -2.0480 -0.6477 -3.4787
12997TIP3    H260483   0.712   0.928  12.432 -0.0107  0.4983  0.6986
12998TIP3   OH260484   2.691   0.135   6.066 -0.1068 -0.1354 -0.3684
12998TIP3    H160485   2.742   0.215   6.070 -0.7174  0.3032 -1.0331
12998TIP3    H260486   2.600   0.165   6.061 -0.3900 -0.8854  0.2091
12999TIP3   OH260487   2.864   0.008   1.976  0.3296 -0.2742  0.2390
12999TIP3    H160488   2.867  -0.055   1.904 -2.2101  0.7799 -0.9303
12999TIP3    H260489   2.878  -0.044   2.054 -3.3138 -2.7805 -0.4887
13000TIP3   OH260490   5.404   3.007   4.132 -0.4419 -0.1846 -0.6180
13000TIP3    H160491   5.397   3.006   4.228 -0.9244  1.5126 -0.5969
13000TIP3    H260492   5.488   2.966   4.114 -0.6104 -1.0751  0.4922
13001TIP3   OH260493   3.201   3.351  14.569  0.2883 -0.7213  0.5521
13001TIP3    H160494   3.147   3.293  14.624  0.0858  0.0160  1.1392
13001TIP3    H260495   3.231   3.294  14.498 -2.5384 -0.8517 -0.7016
13002TIP3   OH260496   5.130   1.935  12.852 -0.0206  0.8009 -0.5895
13002TIP3    H160497   5.150   1.940  12.946 -1.3164 -2.4666 -0.0309
13002TIP3    H260498   5.105   1.844  12.837 -0.9798  1.4827 -3.9188
13003TIP3   OH260499   2.129   0.683  12.128  0.5816  0.3703  0.3473
13003TIP3    H160500   2.060   0.698  12.192 -0.9339 -0.4645 -1.0206
13003TIP3    H260501   2.173   0.603  12.159 -1.8944 -1.6537 -0.9627
13004TIP3   OH260502   0.076   5.935   2.613  0.3830 -0.0127 -0.0133
13004TIP3    H160503   0.008   6.002   2.617  0.2756 -0.0889 -0.4815
13004TIP3    H260504   0.051   5.880   2.539  0.0772 -0.9919  0.7955
13005TIP3   OH260505   0.864   4.894   1.055 -0.4652  0.1259 -0.3978
13005TIP3    H160506   0.912   4.953   1.112  0.2204 -2.3871  1.8580
13005TIP3    H260507   0.792   4.861   1.109 -2.1732  0.5385 -2.3110
13006TIP3   OH260508   1.152   2.390   5.812 -0.1218 -0.2504 -0.5372
13006TIP3    H160509   1.139   2.351   5.899 -0.5850  0.1993 -0.4007
13006TIP3    H260510   1.247   2.392   5.801 -0.0848 -1.4288 -0.5585
13007TIP3   OH260511   6.005   6.680  14.180  0.1405  0.0838 -0.1609
13007TIP3    H160512   6.078   6.742  14.183  0.5607 -0.4522  1.8753
13007TIP3    H260513   5.985   6.672  14.087  2.1911  0.8066 -0.7163
13008TIP3   OH260514   4.722   4.564   2.417  0.2655 -0.1684  0.4958
13008TIP3    H160515   4.629   4.586   2.409  0.4605  1.9379  2.6770
13008TIP3    H260516   4.727   4.504   2.491  0.6843  0.2915  0.8510
13009TIP3   OH260517   3.353   4.529   1.504  0.0365  0.0039  0.5198
13009TIP3    H160518   3.388   4.583   1.575 -0.2349  1.6498 -0.5340
13009TIP3    H260519   3.279   4.581   1.470 -0.8476 -1.4953  0.0668
13010TIP3   OH260520   6.722   1.061  11.096  0.2271 -0.3164 -0.0699
13010TIP3    H160521   6.672   1.055  11.015 -0.4826  2.6168  0.0475
13010TIP3    H260522   6.805   1.017  11.076 -0.2480 -0.4021 -2.1030
13011TIP3   OH260523   0.392   6.304   2.579 -0.3010 -0.3952  0.5568
13011TIP3    H160524   0.323   6.368   2.597 -0.6223 -0.2742 -0.9552
13011TIP3    H260525   0.345   6.224   2.553  0.0922 -0.2859 -0.5697
13012TIP3   OH260526   4.719   2.193   1.618  0.3474  0.1072 -0.3851
13012TIP3    H160527   4.780   2.161   1.552  0.1634  0.0199 -0.5141
13012TIP3    H260528   4.723   2.127   1.688  0.1965 -0.0405 -0.5153
13013TIP3   OH260529   1.220   2.830  15.949 -0.2189  0.4130  0.2460
13013TIP3    H160530   1.194   2.798  16.036 -1.2316 -2.3455 -0.9713
13013TIP3    H260531   1.313   2.851  15.958 -0.3712  0.4956  2.0569
13014TIP3   OH260532   6.483   6.450   6.006  0.1122  0.1585  0.5219
13014TIP3    H160533   6.473   6.519   6.072 -0.5656 -0.8784  1.5418
13014TIP3    H260534   6.552   6.394   6.041 -0.1348 -0.3087  0.2686
13015TIP3   OH260535   1.061   0.456  15.333 -0.0507  0.1000 -0.4773
13015TIP3    H160536   1.029   0.468  15.423 -1.7679 -1.5084 -0.8049
13015TIP3    H260537   1.036   0.537  15.288 -0.9127  0.1450  0.0584
13016TIP3   OH260538   0.648   4.898   5.251  0.0775  0.2547  0.6773
13016TIP3    H160539   0.667   4.860   5.165 -1.7282 -1.7029  1.0786
13016TIP3    H260540   0.607   4.982   5.231  0.3488  0.1562 -0.3427
13017TIP3   OH260541   4.926   3.735  15.528 -0.4352  0.4329  0.2918
13017TIP3    H160542   4.967   3.813  15.565 -1.8924  1.5697 -0.3899
13017TIP3    H260543   4.832   3.754  15.529 -0.8311 -1.3215  0.1086
13018TIP3   OH260544   4.531   4.559  16.396  0.0267  0.1327  0.0891
13018TIP3    H160545   4.500   4.564  16.487  0.2611  0.7960  0.1387
13018TIP3    H260546   4.473   4.495  16.355  0.5064 -0.8696  0.9370
13019TIP3   OH260547   1.065   2.945  11.161  0.1729  0.0834  0.4782
13019TIP3    H160548   1.040   2.880  11.096 -0.0846  0.6587 -0.0153
13019TIP3    H260549   0.986   2.998  11.173  0.8615  1.4089 -0.4717
13020TIP3   OH260550   1.115   1.449  11.351 -0.8026  0.2062 -0.5205
13020TIP3    H160551   1.205   1.475  11.334 -0.7554 -0.0371 -0.6338
13020TIP3    H260552   1.101   1.371  11.297 -1.1200  0.3186 -0.6049
13021TIP3   OH260553   3.775   6.631   2.544  0.0705  0.7329 -0.3556
13021TIP3    H160554   3.729   6.601   2.465  0.2898  0.7508 -0.4898
13021TIP3    H260555   3.866   6.642   2.516  0.2330  0.3223  0.0074
13022TIP3   OH260556   0.002   4.556  13.305  0.4156 -0.0539 -0.0046
13022TIP3    H160557   0.062   4.484  13.324  2.7463  2.0999  1.3675
13022TIP3    H260558   0.038   4.597  13.226 -0.2417  0.3076 -0.1249
13023TIP3   OH260559   1.974   2.579  15.059  0.1281  0.1983 -0.9039
13023TIP3    H160560   1.954   2.489  15.085  0.7178  0.5580  0.9849
13023TIP3    H260561   1.907   2.601  14.994 -1.2215 -0.9554  0.0330
13024TIP3   OH260562   0.747   2.490   5.251  0.1889 -0.2159  0.3929
13024TIP3    H160563   0.819   2.429   5.267 -0.9987 -2.3526 -1.7446
13024TIP3    H260564   0.693   2.484   5.330 -0.1514 -2.3957  0.0548
13025TIP3   OH260565   3.204   3.619  11.577  0.1495  0.6129  0.3509
13025TIP3    H160566   3.224   3.708  11.607  0.8434  0.7086 -0.3516
13025TIP3    H260567   3.186   3.570  11.657  0.8929  1.1100  0.8339
13026TIP3   OH260568   1.129   6.551  12.349  0.0853 -0.1399 -0.9412
13026TIP3    H160569   1.143   6.620  12.414 -2.0195  0.0480 -0.6061
13026TIP3    H260570   1.196   6.486  12.368  1.2231  1.1590 -0.3498
13027TIP3   OH260571   3.039   1.450  12.858  0.0311  0.4315 -0.0835
13027TIP3    H160572   3.044   1.410  12.945 -0.5565  1.3814  0.4047
13027TIP3    H260573   2.969   1.516  12.866 -0.8375 -0.2626 -1.6024
13028TIP3   OH260574   6.820   1.190  10.802 -0.3365  0.6063 -0.0538
13028TIP3    H160575   6.742   1.136  10.792  0.7049 -0.8610 -0.6812
13028TIP3    H260576   6.791   1.279  10.783 -1.6808 -0.0246 -1.1019
13029TIP3   OH260577   1.728   6.319   5.925  0.2989 -0.8475  0.2416
13029TIP3    H160578   1.803   6.341   5.868 -0.7951 -0.1095 -0.9767
13029TIP3    H260579   1.751   6.356   6.010  0.9796  0.0832 -0.3306
13030TIP3   OH260580   4.814   2.875  15.497  0.0109  0.1333  0.5204
13030TIP3    H160581   4.902   2.909  15.512 -0.0449 -0.3693  2.1625
13030TIP3    H260582   4.758   2.928  15.554 -0.7965  0.5851 -0.6576
13031TIP3   OH260583   6.639   4.774   5.678  0.1032  0.0680  0.6984
13031TIP3    H160584   6.711   4.812   5.629 -0.2579  0.5210  0.5079
13031TIP3    H260585   6.574   4.750   5.612  1.1272 -2.7718  0.5951
13032TIP3   OH260586   3.523   0.090  16.559  0.1857  0.1971 -0.4297
13032TIP3    H160587   3.509   0.033  16.634 -0.0310  0.8750  0.0496
13032TIP3    H260588   3.577   0.038  16.499  0.4792 -0.2911  0.2521
13033TIP3   OH260589   1.330   6.267  11.028 -0.5629 -0.2275 -0.3386
13033TIP3    H160590   1.338   6.317  11.109 -0.1536 -0.8381  0.0112
13033TIP3    H260591   1.319   6.333  10.959  1.8905  0.4681 -0.1451
13034TIP3   OH260592   0.349   2.898   5.520 -0.2728  0.1680  0.5368
13034TIP3    H160593   0.380   2.955   5.591  0.9827 -0.0867  0.2180
13034TIP3    H260594   0.257   2.924   5.507  0.0181  1.5271  0.9745
13035TIP3   OH260595   3.390   2.766  15.566 -0.4101 -0.0804  0.1845
13035TIP3    H160596   3.461   2.736  15.623  0.0815  0.0022 -0.3750
13035TIP3    H260597   3.328   2.693  15.566 -1.2363  0.5431  2.1305
13036TIP3   OH260598   1.450   4.619  12.477  0.5982  0.1690  0.2246
13036TIP3    H160599   1.473   4.700  12.432  0.2317  0.4236  0.4968
13036TIP3    H260600   1.528   4.597  12.528  0.3195  0.9284  0.9950
13037TIP3   OH260601   6.553   4.777  16.705  0.2729 -0.0227 -0.0425
13037TIP3    H160602   6.549   4.686  16.736  0.1592 -0.1437 -0.3978
13037TIP3    H260603   6.544   4.769  16.610 -0.5376  0.4119 -0.0077
13038TIP3   OH260604   2.757   6.257  14.830  0.4681 -0.3182 -0.3916
13038TIP3    H160605   2.840   6.209  14.825  0.5913 -0.1306 -0.1467
13038TIP3    H260606   2.708   6.228  14.753  0.1875 -1.5063  0.2036
13039TIP3   OH260607   5.569   2.896   1.592 -0.3656  0.2970  0.1421
13039TIP3    H160608   5.555   2.910   1.499  0.7648  0.0429 -0.0849
13039TIP3    H260609   5.643   2.952   1.614 -1.8689  1.9245  1.3721
13040TIP3   OH260610   5.695   2.879   2.723 -0.1791 -0.4284  0.4901
13040TIP3    H160611   5.718   2.811   2.661 -0.0924  1.2169 -1.3795
13040TIP3    H260612   5.692   2.835   2.808 -1.7268 -3.0831 -0.8252
13041TIP3   OH260613   4.439   4.640  10.661 -0.3248 -0.0855 -0.9951
13041TIP3    H160614   4.453   4.551  10.694 -0.2717  0.1344 -0.3965
13041TIP3    H260615   4.344   4.648  10.654 -0.4095  0.2230  0.1921
13042TIP3   OH260616   4.663   6.494   1.564  0.5862 -0.6732 -0.0588
13042TIP3    H160617   4.757   6.498   1.545  0.5630 -4.7495 -2.1569
13042TIP3    H260618   4.627   6.574   1.526  2.8332 -0.6902 -2.5172
13043TIP3   OH260619   3.344   4.350   5.242  0.2912  0.1819 -0.8810
13043TIP3    H160620   3.254   4.328   5.263  1.5516 -1.4768  4.0326
13043TIP3    H260621   3.358   4.437   5.281  1.4847 -0.8597  1.1647
13044TIP3   OH260622   0.438   2.970   4.357 -0.1856 -0.0756  0.0932
13044TIP3    H160623   0.371   2.903   4.350  0.4943 -1.2814  3.3869
13044TIP3    H260624   0.517   2.923   4.383  1.0329  1.6871 -0.2191
13045TIP3   OH260625   3.643   3.371  10.393 -0.3264  0.3892 -0.6183
13045TIP3    H160626   3.728   3.413  10.376 -0.6168  0.8596 -0.9326
13045TIP3    H260627   3.648   3.287  10.349  0.9602 -0.7460  1.5260
13046TIP3   OH260628   1.045   1.502   1.009 -0.0517  0.0346  0.0098
13046TIP3    H160629   0.958   1.467   1.027 -0.4015 -0.1173 -1.8806
13046TIP3    H260630   1.029   1.579   0.954  0.8431  1.9214  2.2010
13047TIP3   OH260631   4.424   1.980   3.780 -0.5042  0.3266  0.6361
13047TIP3    H160632   4.332   1.995   3.760 -0.3281  0.2583 -0.2539
13047TIP3    H260633   4.469   2.057   3.745 -0.0931 -0.2050 -0.0228
13048TIP3   OH260634   3.739   5.600   6.470  0.1436 -0.2231  0.3472
13048TIP3    H160635   3.752   5.648   6.552  1.5578 -1.9368  1.1803
13048TIP3    H260636   3.741   5.668   6.402 -0.3981  1.1559  1.6555
13049TIP3   OH260637   0.430   1.315  12.729  0.7383 -0.3316 -0.1886
13049TIP3    H160638   0.461   1.284  12.644  1.1836 -2.4285  0.6673
13049TIP3    H260639   0.506   1.356  12.770 -0.1392  3.2681 -1.7990
13050TIP3   OH260640   1.139   1.946  14.277 -0.4199  0.0984 -0.2202
13050TIP3    H160641   1.102   1.944  14.189  1.7958 -0.5131 -1.2072
13050TIP3    H260642   1.176   1.858  14.289 -0.1107  0.3872  1.0551
13051TIP3   OH260643   4.333   0.017  12.115 -0.0621 -0.2265 -0.5649
13051TIP3    H160644   4.305   0.056  12.198  4.1476  1.1084  0.5148
13051TIP3    H260645   4.294   0.071  12.047 -0.1974  1.3893  0.7404
13052TIP3   OH260646   4.653   0.845   5.711 -0.5721  0.2040 -0.4836
13052TIP3    H160647   4.641   0.759   5.749 -2.8032  0.2453 -0.9636
13052TIP3    H260648   4.728   0.882   5.758  0.3259 -1.8932 -0.1553
13053TIP3   OH260649   0.634   3.208   3.137 -0.3786  0.3777 -0.2374
13053TIP3    H160650   0.555   3.249   3.103 -1.6350  0.4863  2.5459
13053TIP3    H260651   0.689   3.282   3.165 -0.0209  0.2546 -0.5965
13054TIP3   OH260652   2.283   4.839   4.175  0.5130 -0.4178  0.5370
13054TIP3    H160653   2.195   4.802   4.165  0.3667 -0.5186  1.9327
13054TIP3    H260654   2.321   4.790   4.248  2.0105 -0.8669 -0.5087
13055TIP3   OH260655   6.437   0.901  13.045 -0.7390 -0.3169  0.2697
13055TIP3    H160656   6.439   0.994  13.023 -0.4130 -0.3655  0.0871
13055TIP3    H260657   6.527   0.871  13.030 -1.4569 -1.3490 -2.5862
13056TIP3   OH260658   1.706   6.808  15.434  0.0091  0.4601 -0.3937
13056TIP3    H160659   1.734   6.725  15.397  0.9786  0.3437  0.5362
13056TIP3    H260660   1.766   6.872  15.395  1.0143  0.3410  0.8719
13057TIP3   OH260661   0.942   6.468   2.678 -0.4575 -0.4095  0.1426
13057TIP3    H160662   0.983   6.381   2.673  0.7875  0.2109 -1.2488
13057TIP3    H260663   0.863   6.459   2.625  0.8349 -0.1427 -1.9462
13058TIP3   OH260664   1.456   2.865   1.509  0.1687  0.3050 -0.4959
13058TIP3    H160665   1.436   2.776   1.481  2.0906 -0.4909  0.4890
13058TIP3    H260666   1.448   2.862   1.605  0.1690  1.2167 -0.4588
13059TIP3   OH260667   1.784   3.972   2.569  0.0179 -0.2730  0.1610
13059TIP3    H160668   1.746   4.034   2.507  0.4670 -0.6780 -0.5360
13059TIP3    H260669   1.851   3.925   2.518  0.4897 -0.5224  0.9861
13060TIP3   OH260670   5.877   5.628   4.793 -0.2163  0.5418  0.4570
13060TIP3    H160671   5.912   5.714   4.816  2.6915 -0.4347 -0.0163
13060TIP3    H260672   5.844   5.639   4.703  0.6523  1.0237  0.1898
13061TIP3   OH260673   2.997   4.262   0.985 -0.1902 -0.1247  0.0043
13061TIP3    H160674   2.990   4.312   1.066 -0.3157  0.2807 -0.2559
13061TIP3    H260675   3.019   4.327   0.918  0.5766 -0.5454 -0.1738
13062TIP3   OH260676   3.805   0.121  15.484  0.0670  0.1165 -0.1953
13062TIP3    H160677   3.744   0.069  15.433 -0.7000 -0.0832  0.8969
13062TIP3    H260678   3.876   0.060  15.507 -1.4798 -0.9297  2.2364
13063TIP3   OH260679   5.329   3.510   5.967 -0.4379 -0.2201 -0.3203
13063TIP3    H160680   5.326   3.510   5.871  0.2281 -0.6822 -0.3451
13063TIP3    H260681   5.375   3.591   5.990 -1.2107  0.2467 -0.3553
13064TIP3   OH260682   3.305   5.732   3.088 -0.4203 -0.5741  0.0862
13064TIP3    H160683   3.342   5.688   3.011 -1.2865  0.2294 -0.8192
13064TIP3    H260684   3.213   5.708   3.087 -0.9987  1.4434 -0.6152
13065TIP3   OH260685   0.276   0.532   5.446  0.7327  0.6590  0.5159
13065TIP3    H160686   0.246   0.543   5.536  1.4889 -0.9167  0.9909
13065TIP3    H260687   0.360   0.578   5.442  0.9735  0.2415  0.7766
13066TIP3   OH260688   5.833   3.317  14.485 -0.0876  0.2140  0.1045
13066TIP3    H160689   5.803   3.240  14.533  0.6165  0.3655  0.8188
13066TIP3    H260690   5.913   3.289  14.441  0.9924  0.8954  1.5496
13067TIP3   OH260691   1.441   5.455   4.628 -0.5034 -0.5178  0.2693
13067TIP3    H160692   1.400   5.500   4.554 -1.4006  0.5721  1.3851
13067TIP3    H260693   1.520   5.507   4.646 -0.1768 -0.9017 -0.0400
13068TIP3   OH260694   0.224   5.343  12.663  0.5508  0.4578  0.2476
13068TIP3    H160695   0.209   5.355  12.570  1.0272  0.1918  0.1351
13068TIP3    H260696   0.264   5.426  12.692 -0.0417  0.7223  0.3143
13069TIP3   OH260697   5.320   1.625  12.312  0.3523 -0.0575  0.7537
13069TIP3    H160698   5.406   1.593  12.340 -0.1800 -0.8530  1.5368
13069TIP3    H260699   5.275   1.547  12.280 -0.8147 -0.0828  2.3069
13070TIP3   OH260700   2.249   5.741  13.585 -0.3142 -0.1574  0.0374
13070TIP3    H160701   2.185   5.807  13.612 -0.0287  1.2670 -2.4711
13070TIP3    H260702   2.202   5.690  13.518  0.4293 -0.5808 -0.1645
13071TIP3   OH260703   3.591   6.415  16.681  0.0784 -0.3656  0.1267
13071TIP3    H160704   3.622   6.420  16.772 -1.2244 -0.7262  0.6192
13071TIP3    H260705   3.663   6.451  16.629  1.1586 -0.8482  1.2284
13072TIP3   OH260706   4.519   6.202  15.268 -0.2304  0.2845  0.1371
13072TIP3    H160707   4.611   6.221  15.249 -0.7521  0.7105 -2.2539
13072TIP3    H260708   4.486   6.161  15.189 -1.5269 -2.2176  1.8364
13073TIP3   OH260709   1.087   5.303  14.787  0.2066 -0.1719  0.1304
13073TIP3    H160710   1.048   5.315  14.873  0.5286  0.4901  0.1969
13073TIP3    H260711   1.048   5.223  14.753 -1.7010  0.8144 -0.0932
13074TIP3   OH260712   3.244   4.246  11.919 -0.1048  0.5700  0.2120
13074TIP3    H160713   3.163   4.274  11.960  0.4494  0.1671  1.6532
13074TIP3    H260714   3.251   4.153  11.941  0.4059  0.4305 -0.4915
13075TIP3   OH260715   4.006   2.952   2.742  0.0590  0.2978 -0.3726
13075TIP3    H160716   4.097   2.980   2.754 -0.3840  1.3173  0.8402
13075TIP3    H260717   3.979   2.922   2.829 -0.6393 -0.4064 -0.8244
13076TIP3   OH260718   2.368   2.139  13.039  0.0378 -0.4225  0.0732
13076TIP3    H160719   2.408   2.109  12.957  2.0708 -0.6451  1.0787
13076TIP3    H260720   2.379   2.234  13.037 -2.6938 -0.0497 -1.2424
13077TIP3   OH260721   2.272   5.227  15.283  0.0943 -0.0633  0.7869
13077TIP3    H160722   2.337   5.256  15.347  0.6420  1.6006 -0.4496
13077TIP3    H260723   2.236   5.308  15.247 -0.9685 -0.9514 -0.2454
13078TIP3   OH260724   3.753   5.572  13.307  0.2291 -0.2271 -0.3418
13078TIP3    H160725   3.807   5.506  13.350 -0.1195 -0.3856 -0.1380
13078TIP3    H260726   3.700   5.609  13.378 -1.3538 -1.4493 -0.8166
13079TIP3   OH260727   2.637   6.172   1.261 -0.3712 -0.0372 -0.3923
13079TIP3    H160728   2.544   6.163   1.240 -0.5270  0.0854  0.2460
13079TIP3    H260729   2.681   6.159   1.177 -0.9353 -0.6113 -0.6135
13080TIP3   OH260730   5.247   1.114  11.478  0.1258  0.1880  0.2765
13080TIP3    H160731   5.186   1.170  11.430  0.9296  0.1925 -0.7926
13080TIP3    H260732   5.196   1.037  11.501 -0.6979  0.8805  0.8125
13081TIP3   OH260733   0.400   3.773  14.497  0.3552  0.3852 -0.2316
13081TIP3    H160734   0.339   3.710  14.457 -0.3230  0.3977  0.7415
13081TIP3    H260735   0.378   3.856  14.455 -1.9697  0.8729  1.7254
13082TIP3   OH260736   3.584   3.548   4.554 -0.0306 -0.4768  0.4726
13082TIP3    H160737   3.604   3.458   4.529 -0.6884 -0.2429 -0.9877
13082TIP3    H260738   3.647   3.601   4.505 -0.4407 -0.0746  0.3757
13083TIP3   OH260739   2.397   6.484  15.348 -0.1837 -0.6494  0.2685
13083TIP3    H160740   2.452   6.547  15.301 -1.2300 -0.0989 -0.2517
13083TIP3    H260741   2.309   6.500  15.315 -0.6398 -1.6259  0.9688
13084TIP3   OH260742   3.439   2.122  14.950  0.1643  0.1472 -0.2600
13084TIP3    H160743   3.415   2.214  14.941  1.3493  0.3760 -1.2662
13084TIP3    H260744   3.500   2.105  14.878  0.8051 -1.1332  0.5348
13085TIP3   OH260745   2.346   6.146  15.570  0.5866 -0.2212 -0.1112
13085TIP3    H160746   2.291   6.117  15.498  0.1982 -0.2994  0.2131
13085TIP3    H260747   2.435   6.121  15.544  0.2383 -2.1301  0.3375
13086TIP3   OH260748   6.717   0.285  13.994 -0.0597 -0.0053  0.4474
13086TIP3    H160749   6.629   0.266  13.961  1.4248 -3.6562 -2.0009
13086TIP3    H260750   6.735   0.217  14.059  1.2684  0.0931  0.2215
13087TIP3   OH260751   0.957   3.064   2.687 -0.7628 -0.6442  0.2923
13087TIP3    H160752   0.991   3.108   2.764 -0.8642 -2.0836  1.2056
13087TIP3    H260753   0.870   3.101   2.673 -0.5040  0.0455  0.4979
13088TIP3   OH260754   6.572   1.271  16.448  0.2814  0.1457  0.1164
13088TIP3    H160755   6.623   1.227  16.515 -0.6723 -0.5761  0.3936
13088TIP3    H260756   6.526   1.201  16.403  1.8060  0.4715 -2.1217
13089TIP3   OH260757   4.586   5.082   3.757  0.4990 -0.5461  0.4656
13089TIP3    H160758   4.608   5.076   3.664  0.5003 -1.0075  0.4917
13089TIP3    H260759   4.551   4.995   3.779  0.1725 -0.3288  0.8128
13090TIP3   OH260760   5.252   0.263  14.798  0.1396  0.2944  0.2797
13090TIP3    H160761   5.212   0.346  14.822 -1.1936 -0.5870  1.2658
13090TIP3    H260762   5.202   0.197  14.846  1.8130 -1.0069  0.3621
13091TIP3   OH260763   2.710   2.441  13.823 -0.5576 -0.2227 -1.0589
13091TIP3    H160764   2.750   2.477  13.902  1.4911 -0.4814 -1.9072
13091TIP3    H260765   2.687   2.517  13.771  0.8859 -0.0575 -1.4926
13092TIP3   OH260766   3.405   5.984  11.441 -0.9330 -0.4371 -0.0608
13092TIP3    H160767   3.421   6.078  11.432  0.4444 -0.6587 -0.1732
13092TIP3    H260768   3.407   5.969  11.536 -2.6194 -0.1467  0.0532
13093TIP3   OH260769   3.472   3.680   2.117 -0.4772  0.4717 -0.4994
13093TIP3    H160770   3.504   3.632   2.193 -0.0935 -2.2620 -2.2092
13093TIP3    H260771   3.405   3.738   2.151  0.0218 -0.2954  1.9696
13094TIP3   OH260772   6.754   2.053   5.201 -0.3825  0.2652 -0.4241
13094TIP3    H160773   6.683   2.116   5.200 -1.1801 -0.6122 -0.1159
13094TIP3    H260774   6.788   2.056   5.290 -0.0422  0.6517 -0.5594
13095TIP3   OH260775   2.907   5.857  14.316 -0.4187 -0.5089  0.5494
13095TIP3    H160776   2.837   5.795  14.297 -1.2781  0.2742  1.0988
13095TIP3    H260777   2.864   5.943  14.316  0.9228  0.2398 -1.2642
13096TIP3   OH260778   2.486   5.180   2.243  0.6453  0.0453 -0.0858
13096TIP3    H160779   2.429   5.106   2.265  2.6158 -0.8058  2.7259
13096TIP3    H260780   2.440   5.256   2.278  0.8310 -0.5459  1.5617
13097TIP3   OH260781   6.201   4.419   0.643  0.0503 -0.3383 -0.3885
13097TIP3    H160782   6.237   4.483   0.703 -0.1995 -1.9907  1.6341
13097TIP3    H260783   6.135   4.468   0.593 -0.5262  0.8720  1.4491
13098TIP3   OH260784   2.168   3.979  11.991 -0.3585 -0.4632  0.3714
13098TIP3    H160785   2.108   4.027  11.934  1.7341  0.1232 -1.4961
13098TIP3    H260786   2.168   3.889  11.956 -0.1757 -0.4639  0.3706
13099TIP3   OH260787   5.251   4.482  13.518  0.4116 -0.0775  0.4031
13099TIP3    H160788   5.256   4.430  13.599 -0.3083  2.3246  2.1243
13099TIP3    H260789   5.265   4.573  13.547  0.7320  0.8283 -2.2916
13100TIP3   OH260790   3.875   5.870   3.643 -0.0832 -0.3423  0.2130
13100TIP3    H160791   3.951   5.844   3.694  1.5707 -0.8753 -2.3459
13100TIP3    H260792   3.809   5.893   3.708  1.7726 -1.2224  2.5387
13101TIP3   OH260793   3.180   4.312   4.058 -0.2781  0.1648 -0.0390
13101TIP3    H160794   3.253   4.315   3.996 -1.0432  1.3522 -0.9413
13101TIP3    H260795   3.208   4.367   4.131  0.0842 -0.1093  0.0293
13102TIP3   OH260796   3.213   0.153  13.814  0.4253 -0.6568 -0.8082
13102TIP3    H160797   3.197   0.180  13.724  0.1052  1.5824 -0.1354
13102TIP3    H260798   3.280   0.213  13.846  0.5655 -1.4354  0.4563
13103TIP3   OH260799   4.044   2.028   1.994  0.1239  0.9264  0.0973
13103TIP3    H160800   3.998   1.987   2.067 -3.5338  0.3517 -2.2688
13103TIP3    H260801   4.026   2.121   2.003  0.6684  0.9995  0.5036
13104TIP3   OH260802   0.807   6.091   0.062 -0.2165 -0.0075  0.2690
13104TIP3    H160803   0.760   6.163   0.020  1.0055  0.9300  0.4520
13104TIP3    H260804   0.899   6.104   0.037 -0.1748 -2.5736 -1.2065
13105TIP3   OH260805   3.439   4.653   1.733 -0.2474 -0.5028  0.1582
13105TIP3    H160806   3.407   4.667   1.822 -3.4004 -0.0870 -0.9173
13105TIP3    H260807   3.469   4.739   1.705 -0.3192 -0.3811  0.4451
13106TIP3   OH260808   1.775   3.525  15.828  0.0083 -0.5902 -0.5716
13106TIP3    H160809   1.860   3.562  15.801  0.1872 -1.2336 -0.9008
13106TIP3    H260810   1.740   3.590  15.889  0.2741  0.1801 -1.2120
13107TIP3   OH260811   6.020   5.561   2.673 -0.3284 -0.1706 -0.6107
13107TIP3    H160812   5.954   5.614   2.718 -0.2097 -1.7242  1.6043
13107TIP3    H260813   5.977   5.476   2.661  0.5875 -0.5918 -0.9852
13108TIP3   OH260814   5.541   3.537  11.191  0.3376 -0.1037  0.3444
13108TIP3    H160815   5.589   3.459  11.217 -0.2855 -0.3844  0.6596
13108TIP3    H260816   5.509   3.519  11.103  0.0101 -0.2939  0.5004
13109TIP3   OH260817   5.458   3.757  13.155  0.2150 -0.6949 -0.3500
13109TIP3    H160818   5.388   3.784  13.214  1.7818  2.1803  0.3868
13109TIP3    H260819   5.524   3.717  13.212  1.0675  0.6845 -0.3425
13110TIP3   OH260820   5.348   4.892  15.133  0.1475  0.5799 -0.0718
13110TIP3    H160821   5.363   4.807  15.091 -1.7366  0.9258 -1.5635
13110TIP3    H260822   5.420   4.947  15.102  1.8345 -0.6119  1.5172
13111TIP3   OH260823   6.135   6.343   1.693 -0.5842  0.0240 -0.3220
13111TIP3    H160824   6.162   6.321   1.604  0.0626  0.1968 -0.1679
13111TIP3    H260825   6.150   6.263   1.743  1.3545  0.6470  0.1447
13112TIP3   OH260826   1.558   3.168  16.888  0.6922  0.1117  0.0665
13112TIP3    H160827   1.508   3.108  16.832 -0.8989 -0.7507  2.2554
13112TIP3    H260828   1.646   3.167  16.850 -0.2739 -0.3367 -2.4192
13113TIP3   OH260829   1.479   2.943  15.944  0.0359  0.1502  0.2585
13113TIP3    H160830   1.544   2.996  15.899 -0.7876  0.2814 -0.8121
13113TIP3    H260831   1.529   2.894  16.010  1.4470 -0.7481 -1.3975
13114TIP3   OH260832   4.183   4.150  12.178 -0.3174  0.3788 -0.3704
13114TIP3    H160833   4.147   4.094  12.246  0.2787 -0.3285 -0.6295
13114TIP3    H260834   4.112   4.211  12.158 -0.5206  0.5648  0.8333
13115TIP3   OH260835   4.457   2.256   0.622 -0.3108  0.5935  0.4223
13115TIP3    H160836   4.519   2.280   0.690 -0.6977  0.5445  0.7933
13115TIP3    H260837   4.471   2.322   0.553  0.4599  0.3185  0.3075
13116TIP3   OH260838   1.755   2.955   1.521 -0.0597 -0.2548 -0.3351
13116TIP3    H160839   1.784   3.034   1.565 -0.7910  0.3398 -0.8819
13116TIP3    H260840   1.660   2.965   1.514 -0.5696 -2.4263  2.0014
13117TIP3   OH260841   4.755   4.344  14.561 -0.0019 -0.7840 -0.5305
13117TIP3    H160842   4.714   4.367  14.645  2.3139 -1.3683  0.8566
13117TIP3    H260843   4.681   4.333  14.501 -1.6901  0.8611  1.0905
13118TIP3   OH260844   4.631   0.411   1.067  0.0555  0.9051 -0.0156
13118TIP3    H160845   4.679   0.480   1.021 -0.5987  1.1971 -0.2829
13118TIP3    H260846   4.620   0.342   1.002  5.1858 -1.8636  1.5582
13119TIP3   OH260847   3.491   2.609  14.640  0.0151 -0.5778 -0.0798
13119TIP3    H160848   3.446   2.682  14.597  3.5806  1.9188  0.0164
13119TIP3    H260849   3.461   2.613  14.730  1.3339  2.0016  0.3477
13120TIP3   OH260850   1.444   1.008  13.600  0.0027  0.2941 -0.6266
13120TIP3    H160851   1.377   0.963  13.652 -0.9121 -0.1038 -2.0893
13120TIP3    H260852   1.455   1.093  13.643 -0.9187  0.0889  0.0449
13121TIP3   OH260853   2.968   0.460   5.365 -0.2162 -1.4208  0.9696
13121TIP3    H160854   2.967   0.516   5.443  0.1968  0.8186 -0.5336
13121TIP3    H260855   3.060   0.438   5.354 -0.1170 -0.7935  0.5031
13122TIP3   OH260856   2.521   5.600  12.125 -0.4261 -0.1798 -0.3176
13122TIP3    H160857   2.567   5.683  12.115 -2.0846  1.1850  2.0901
13122TIP3    H260858   2.462   5.596  12.050 -0.4426  0.9451 -0.3869
13123TIP3   OH260859   4.832   0.069  10.744  0.0351 -0.4698 -0.3109
13123TIP3    H160860   4.811   0.042  10.654  1.0337 -0.7292 -0.4726
13123TIP3    H260861   4.921   0.104  10.738 -1.1980  3.1967 -0.2054
13124TIP3   OH260862   2.604   1.139  13.979 -0.0218  0.3572  0.2552
13124TIP3    H160863   2.570   1.095  14.057 -0.6414 -2.0584 -1.2827
13124TIP3    H260864   2.526   1.171  13.934  0.1359 -0.4036 -0.5732
13125TIP3   OH260865   4.310   1.167   5.124 -0.4984  0.0140  0.1251
13125TIP3    H160866   4.239   1.113   5.160  0.2150  0.0110  1.6049
13125TIP3    H260867   4.381   1.157   5.186 -0.1368  2.2256  0.1586
13126TIP3   OH260868   3.147   6.541   1.134 -0.1834 -0.0734 -0.2366
13126TIP3    H160869   3.091   6.473   1.098  0.4873 -0.6544 -0.2193
13126TIP3    H260870   3.087   6.609   1.164 -0.9472 -1.2335  0.9621
13127TIP3   OH260871   5.820   5.251   0.531 -0.1954 -0.3110  0.0874
13127TIP3    H160872   5.852   5.337   0.558 -1.6318 -0.0609  1.0773
13127TIP3    H260873   5.887   5.219   0.470 -0.0798  1.8861 -1.0301
13128TIP3   OH260874   4.126   1.822  14.467  0.4868 -0.1007 -0.4856
13128TIP3    H160875   4.058   1.762  14.496  2.0662 -2.7447 -1.8782
13128TIP3    H260876   4.135   1.804  14.373  0.2456  3.2255 -1.2615
13129TIP3   OH260877   0.421   6.220  16.685  0.0789 -0.3263  0.3258
13129TIP3    H160878   0.438   6.310  16.713  3.3343 -0.6693 -0.1159
13129TIP3    H260879   0.336   6.224  16.641 -0.4510  2.2496  1.4166
13130TIP3   OH260880   4.776   3.746   4.311 -0.6709 -0.5135  0.3899
13130TIP3    H160881   4.859   3.790   4.330 -0.9186  0.1915 -0.0722
13130TIP3    H260882   4.765   3.682   4.381  0.3058 -0.6806  0.4016
13131TIP3   OH260883   3.898   4.861   3.595 -0.0624 -0.1218 -0.2101
13131TIP3    H160884   3.849   4.856   3.677  0.7504 -0.3017  0.2795
13131TIP3    H260885   3.869   4.785   3.545  0.2738 -0.6621  0.4020
13132TIP3   OH260886   4.730   4.292  13.497  0.4635 -0.0348 -0.4296
13132TIP3    H160887   4.702   4.384  13.497 -0.2102 -0.2237  0.8012
13132TIP3    H260888   4.749   4.273  13.405 -0.7579  0.9226 -0.9008
13133TIP3   OH260889   5.081   0.974   1.569 -0.0544 -0.1819 -0.2312
13133TIP3    H160890   5.052   1.065   1.581  1.5302  0.3534 -0.1499
13133TIP3    H260891   5.165   0.970   1.615  0.1534 -1.5504 -0.6919
13134TIP3   OH260892   3.542   4.396  16.567 -0.4077 -0.1606 -0.2105
13134TIP3    H160893   3.484   4.344  16.511  0.4079  1.1047 -2.3574
13134TIP3    H260894   3.614   4.421  16.510  0.8865  0.5946  1.6519
13135TIP3   OH260895   1.878   5.692  16.585 -0.0990  0.4802  0.5780
13135TIP3    H160896   1.960   5.644  16.589  0.0481  0.3634 -1.9436
13135TIP3    H260897   1.812   5.625  16.567 -0.1277  0.9411 -1.2960
13136TIP3   OH260898   6.053   3.125   4.385 -0.0824 -0.0227 -0.0031
13136TIP3    H160899   6.048   3.187   4.457  0.3181 -0.5369  0.4771
13136TIP3    H260900   6.029   3.176   4.307 -1.4559  0.3135  0.6072
13137TIP3   OH260901   5.359   1.175  16.984 -0.2951 -0.1983  0.1960
13137TIP3    H160902   5.312   1.113  17.040 -1.8758 -0.8984 -1.7822
13137TIP3    H260903   5.450   1.145  16.987 -0.9610 -2.5531 -0.5172
13138TIP3   OH260904   1.706   6.164  13.492  0.1126 -0.0838 -0.4483
13138TIP3    H160905   1.769   6.116  13.546  2.8408  2.9072 -0.6455
13138TIP3    H260906   1.670   6.230  13.551 -0.9084 -0.1109 -1.0224
13139TIP3   OH260907   0.498   0.476  11.238 -0.3357  0.2606 -0.4128
13139TIP3    H160908   0.593   0.470  11.228 -0.3931  1.0326 -1.6450
13139TIP3    H260909   0.464   0.470  11.149 -1.5046 -0.7429  0.0746
13140TIP3   OH260910   4.377   1.377   3.499  0.5295  0.2916 -0.2100
13140TIP3    H160911   4.315   1.348   3.566  0.2886  2.0509  0.3853
13140TIP3    H260912   4.389   1.301   3.442 -1.5460 -0.3305  0.1278
13141TIP3   OH260913   3.686   4.631  13.307  1.0826 -0.3606  0.4344
13141TIP3    H160914   3.670   4.717  13.267  0.3991 -0.5599  0.2698
13141TIP3    H260915   3.611   4.578  13.281  2.0113 -1.3333 -0.3475
13142TIP3   OH260916   0.914   1.546  13.918  0.0463  0.2845  0.0350
13142TIP3    H160917   0.840   1.491  13.943 -0.3017  1.1217  0.9238
13142TIP3    H260918   0.925   1.531  13.824 -1.4217  0.3386 -0.1718
13143TIP3   OH260919   6.631   1.447  14.673  0.2092 -0.6625  0.4362
13143TIP3    H160920   6.644   1.386  14.600 -2.0893 -0.0040 -0.6355
13143TIP3    H260921   6.547   1.420  14.712 -0.6790  1.4927  0.1853
13144TIP3   OH260922   3.970   6.745  15.556 -0.4595  0.0398  0.3246
13144TIP3    H160923   3.920   6.676  15.511 -2.4972  2.0076 -0.6115
13144TIP3    H260924   4.053   6.748  15.509 -0.9346 -0.7702 -0.6139
13145TIP3   OH260925   6.070   1.931  14.536  0.5570 -0.6648 -0.8076
13145TIP3    H160926   6.061   1.843  14.573 -0.1694 -1.0046 -1.7549
13145TIP3    H260927   6.055   1.990  14.610 -0.1116 -1.3315 -0.4025
13146TIP3   OH260928   2.491   1.649  15.936 -0.1067  0.2560 -0.4936
13146TIP3    H160929   2.439   1.568  15.938 -0.5460  0.5347  0.4854
13146TIP3    H260930   2.433   1.714  15.976  0.4632  0.9161 -0.7410
13147TIP3   OH260931   4.601   0.414   2.405 -0.0815 -0.0480  0.0288
13147TIP3    H160932   4.539   0.452   2.343 -0.3101 -0.5931 -0.0808
13147TIP3    H260933   4.682   0.404   2.355 -0.6338 -1.7187 -0.5961
13148TIP3   OH260934   6.554   3.567  15.583 -0.0002 -0.1896  0.2685
13148TIP3    H160935   6.582   3.482  15.548 -0.2787 -0.8799  1.6545
13148TIP3    H260936   6.575   3.563  15.676 -0.1577  1.2213  0.3894
13149TIP3   OH260937   2.607   5.506  15.193 -0.5079  0.0899 -0.4134
13149TIP3    H160938   2.635   5.456  15.270  0.7161  1.2436 -0.0870
13149TIP3    H260939   2.552   5.575  15.229  2.8057  2.7844 -0.0404
13150TIP3   OH260940   1.923   0.823   3.376 -0.4144 -0.0231 -0.5909
13150TIP3    H160941   1.881   0.906   3.401 -1.9305 -0.9910  0.2709
13150TIP3    H260942   1.945   0.781   3.459  1.4472  0.0153 -1.0305
13151TIP3   OH260943   6.810   4.251  12.116  0.1939  0.3569 -0.5902
13151TIP3    H160944   6.732   4.225  12.067 -0.0252  1.7610 -1.0339
13151TIP3    H260945   6.777   4.278  12.202 -0.1800  3.0996 -1.4920
13152TIP3   OH260946   2.272   5.735  17.046 -0.0822  0.0823  0.3811
13152TIP3    H160947   2.247   5.799  17.112 -1.1128  0.7913 -0.6414
13152TIP3    H260948   2.364   5.752  17.028 -0.2394  1.0389  0.4113
13153TIP3   OH260949   2.963   0.125   1.165 -0.1175  0.5707  0.0937
13153TIP3    H160950   2.965   0.211   1.207  0.9117  0.6946 -0.1737
13153TIP3    H260951   2.870   0.106   1.154 -0.3644  1.7703 -0.0748
13154TIP3   OH260952   3.155   6.588  14.750 -0.4282  0.0478  0.1708
13154TIP3    H160953   3.066   6.617  14.770 -0.1017  0.6700  0.7697
13154TIP3    H260954   3.207   6.617  14.825  0.0232 -1.6132  0.5473
13155TIP3   OH260955   5.533   5.843   1.666 -0.3203  0.1012 -0.5880
13155TIP3    H160956   5.586   5.914   1.700  0.2313 -1.1457  1.2961
13155TIP3    H260957   5.562   5.832   1.575  0.1579  1.6938 -0.6475
13156TIP3   OH260958   2.497   0.241   3.532  0.1737 -0.0301 -0.1804
13156TIP3    H160959   2.459   0.321   3.568 -0.2353 -0.4189  0.2636
13156TIP3    H260960   2.573   0.271   3.482  0.8533  0.5235  1.1356
13157TIP3   OH260961   6.830   1.878   3.778 -0.0642  0.4075 -0.0288
13157TIP3    H160962   6.887   1.949   3.750  2.1866 -1.3577 -0.2316
13157TIP3    H260963   6.771   1.864   3.704 -0.4682  1.9464 -0.0293
13158TIP3   OH260964   5.489   5.088   6.242 -0.5093 -0.1423  0.0326
13158TIP3    H160965   5.427   5.161   6.235 -0.0198  0.1852 -1.2416
13158TIP3    H260966   5.442   5.013   6.204 -1.3539 -0.7620  2.1729
13159TIP3   OH260967   1.285   1.709   5.066  0.2085  0.9653  0.1609
13159TIP3    H160968   1.334   1.789   5.046 -0.6354  2.1595  2.4902
13159TIP3    H260969   1.196   1.738   5.081 -0.8346 -0.9003 -1.9089
13160TIP3   OH260970   4.513   3.410  14.057  0.0954  0.1749 -0.1614
13160TIP3    H160971   4.468   3.329  14.033  0.4348 -0.0510 -0.0499
13160TIP3    H260972   4.452   3.455  14.115 -0.6652  0.6435 -1.2898
13161TIP3   OH260973   3.134   4.001   3.928 -0.4149  0.2646 -0.1969
13161TIP3    H160974   3.140   3.995   4.024  0.7193  1.6231 -0.1445
13161TIP3    H260975   3.098   3.917   3.901  1.2114 -0.9638  1.2607
13162TIP3   OH260976   6.041   0.511  12.654 -0.0520 -0.3150  0.3764
13162TIP3    H160977   5.975   0.579  12.636  2.1988  1.3900 -2.3182
13162TIP3    H260978   6.025   0.444  12.588 -0.6985 -1.2689  1.4552
13163TIP3   OH260979   0.090   1.530  12.575  0.3709  0.4952 -0.5250
13163TIP3    H160980   0.185   1.536  12.585  0.5177 -0.1342 -1.3403
13163TIP3    H260981   0.075   1.550  12.482 -0.4596  2.1467 -0.0588
13164TIP3   OH260982   0.463   3.400  13.575  0.0651  0.3394  0.0092
13164TIP3    H160983   0.553   3.411  13.606  0.8171  0.5387 -2.0467
13164TIP3    H260984   0.471   3.336  13.504 -1.6629 -0.7432  0.7424
13165TIP3   OH260985   3.156   4.290  13.421  0.3840  0.2576  0.4820
13165TIP3    H160986   3.105   4.370  13.406  0.2150  0.1288  0.3708
13165TIP3    H260987   3.171   4.254  13.334  0.8970  0.4350  0.4893
13166TIP3   OH260988   6.667   5.215   0.513 -0.3775  0.0068  0.3105
13166TIP3    H160989   6.676   5.228   0.607 -1.9117  2.3514  0.2172
13166TIP3    H260990   6.757   5.216   0.480  0.0951  1.1239  1.5604
13167TIP3   OH260991   2.425   0.669  15.968 -0.9266  0.3308  0.1919
13167TIP3    H160992   2.394   0.585  16.000 -0.0397  0.8774  2.6963
13167TIP3    H260993   2.427   0.726  16.045  1.0748  1.8539 -0.8678
13168TIP3   OH260994   6.089   4.203   6.511 -0.2237  0.4352 -0.4891
13168TIP3    H160995   6.103   4.297   6.526 -1.6399  0.6709 -0.5225
13168TIP3    H260996   6.137   4.185   6.430 -1.3275  1.5387 -1.4419
13169TIP3   OH260997   1.577   3.662  11.396  0.2622  0.2998  0.3016
13169TIP3    H160998   1.505   3.677  11.458  1.0434  2.1203  0.8460
13169TIP3    H260999   1.534   3.655  11.311 -0.7052 -0.6832  0.8406
13170TIP3   OH261000   0.331   0.422  14.181 -0.2892  0.2718  0.7941
13170TIP3    H161001   0.408   0.405  14.128 -0.1339 -1.0869  1.4110
13170TIP3    H261002   0.363   0.479  14.252 -0.4420  1.8570 -0.3630
13171TIP3   OH261003   1.049   6.203   2.655  0.1883 -0.0872 -0.2067
13171TIP3    H161004   1.012   6.115   2.653 -1.1679  0.4806 -1.5297
13171TIP3    H261005   1.134   6.192   2.698  0.1701 -2.0806 -0.6004
13172TIP3   OH261006   3.435   3.868   1.552  0.1220 -0.3098  0.3162
13172TIP3    H161007   3.365   3.858   1.488 -0.5767 -0.1692  1.0371
13172TIP3    H261008   3.446   3.781   1.590 -0.7032 -0.0285  1.2440
13173TIP3   OH261009   3.237   2.000  11.337  0.0460  0.8805  0.1499
13173TIP3    H161010   3.206   2.005  11.427  0.6685  1.0053  0.3612
13173TIP3    H261011   3.160   2.024  11.284 -0.9662 -1.2999  0.5271
13174TIP3   OH261012   4.487   1.432   3.931 -0.3910  0.0742 -1.0621
13174TIP3    H161013   4.515   1.461   3.844  2.9978  1.5599  0.3442
13174TIP3    H261014   4.566   1.438   3.985 -2.2919 -0.9766  2.1095
13175TIP3   OH261015   3.777   3.247   3.334 -0.2206  0.1022  0.2570
13175TIP3    H161016   3.845   3.312   3.350 -1.4069  1.1002  1.5436
13175TIP3    H261017   3.806   3.169   3.380 -0.2797  0.7580  1.4356
13176TIP3   OH261018   0.084   5.374   4.345  0.7581 -0.1898  0.0151
13176TIP3    H161019   0.085   5.453   4.291 -0.1159  0.8979  1.5189
13176TIP3    H261020   0.175   5.363   4.372  0.7851  0.7092  0.3365
13177TIP3   OH261021   5.504   3.546  16.958 -0.0856 -0.2841  0.0850
13177TIP3    H161022   5.426   3.600  16.971  0.5327  0.6297  0.1409
13177TIP3    H261023   5.492   3.472  17.016 -0.3238  0.4972  1.0673
13178TIP3   OH261024   5.004   4.934  14.648  0.4466  0.0159  0.3013
13178TIP3    H161025   5.047   4.858  14.689  1.4968 -0.0720 -0.9178
13178TIP3    H261026   4.911   4.912  14.651  0.8122 -2.1218 -1.4888
13179TIP3   OH261027   5.629   4.484  14.715 -0.3108 -0.6033 -0.5349
13179TIP3    H161028   5.595   4.420  14.653 -1.0915 -1.3105  0.5783
13179TIP3    H261029   5.644   4.562  14.663 -0.6362 -1.2703 -1.6709
13180TIP3   OH261030   1.110   5.789  12.070  0.1832 -0.1930  0.2571
13180TIP3    H161031   1.099   5.880  12.096 -0.5279 -0.5365  1.1961
13180TIP3    H261032   1.107   5.791  11.974  0.1334  0.7566  0.2718
13181TIP3   OH261033   1.602   1.724   0.614  0.1097  0.5171 -0.2102
13181TIP3    H161034   1.667   1.654   0.623 -0.1647  0.1900 -0.7122
13181TIP3    H261035   1.652   1.805   0.625  0.6883  0.2834 -1.0305
13182TIP3   OH261036   4.060   3.847  15.226 -0.1573 -0.2973  0.3202
13182TIP3    H161037   3.965   3.841  15.224 -0.1961 -1.7371  2.5812
13182TIP3    H261038   4.079   3.939  15.209 -1.9480  0.0313 -0.0625
13183TIP3   OH261039   5.927   2.670  17.053  0.4413 -0.2841  0.1146
13183TIP3    H161040   5.872   2.698  16.980  1.6158 -0.2238 -0.7627
13183TIP3    H261041   5.977   2.748  17.077 -1.6546  0.4539  2.6751
13184TIP3   OH261042   5.504   4.889   0.381 -0.3226  0.4498 -0.0066
13184TIP3    H161043   5.420   4.879   0.335  0.5700  0.1460 -1.6644
13184TIP3    H261044   5.530   4.979   0.361  0.5053  0.0257 -0.8797
13185TIP3   OH261045   4.593   0.349  15.261 -0.5719  0.1550 -0.6979
13185TIP3    H161046   4.515   0.358  15.315 -1.6389  0.2872 -2.2200
13185TIP3    H261047   4.582   0.414  15.192  1.9062  1.7041  0.2037
13186TIP3   OH261048   3.819   5.538  16.161  0.0235 -0.6996 -0.0727
13186TIP3    H161049   3.810   5.509  16.252  0.2523  1.7858  0.7899
13186TIP3    H261050   3.897   5.493  16.129  1.9131  0.9012  2.0506
13187TIP3   OH261051   6.637   2.231  11.247  0.3973  0.1560  0.0505
13187TIP3    H161052   6.564   2.169  11.250 -0.0066  0.6494  1.2615
13187TIP3    H261053   6.609   2.299  11.186 -0.5375  0.7645  1.1148
13188TIP3   OH261054   0.460   0.891   4.652 -0.2010 -0.4400  0.5042
13188TIP3    H161055   0.512   0.956   4.605 -0.4673 -1.0495 -0.6670
13188TIP3    H261056   0.378   0.935   4.671 -0.8878 -0.7829 -1.4252
13189TIP3   OH261057   0.555   4.726  12.939 -0.0520  0.5611  0.1214
13189TIP3    H161058   0.566   4.638  12.902  1.9203  1.5712 -1.9073
13189TIP3    H261059   0.475   4.720  12.991 -1.9384 -1.5630 -2.6971
13190TIP3   OH261060   4.162   0.752   0.650 -0.2601 -0.1739  0.1999
13190TIP3    H161061   4.215   0.786   0.722 -0.5357  0.9196 -0.0969
13190TIP3    H261062   4.077   0.795   0.659 -0.2713  0.0417 -0.8202
13191TIP3   OH261063   3.875   0.509   2.052 -0.1707 -0.1029  0.0117
13191TIP3    H161064   3.822   0.432   2.030  0.9357 -0.1716 -2.9977
13191TIP3    H261065   3.842   0.578   1.994  0.8159  0.8063  0.4945
13192TIP3   OH261066   4.134   6.123   3.865 -0.0527  0.1472 -0.5017
13192TIP3    H161067   4.055   6.089   3.823 -1.1349  0.6636  1.0355
13192TIP3    H261068   4.128   6.092   3.956 -0.2629  3.0086  0.5516
13193TIP3   OH261069   3.491   5.851   0.834 -0.4647  0.2783 -0.0933
13193TIP3    H161070   3.520   5.941   0.844 -0.9421  0.2977  1.4754
13193TIP3    H261071   3.556   5.799   0.881 -0.5072 -0.1306 -0.4803
13194TIP3   OH261072   5.718   1.018   0.179  0.7175  0.9256  0.7002
13194TIP3    H161073   5.759   1.029   0.265  2.2298 -0.3316  0.1970
13194TIP3    H261074   5.792   1.000   0.120 -0.2992  1.7072 -0.8533
13195TIP3   OH261075   0.571   3.203  12.219 -0.4192  0.1395 -0.1110
13195TIP3    H161076   0.536   3.144  12.285 -1.1465 -1.7374 -2.0500
13195TIP3    H261077   0.657   3.227  12.251 -0.6522 -0.8935  1.3843
13196TIP3   OH261078   1.846   3.514   0.837  0.4704 -0.7285  0.1847
13196TIP3    H161079   1.899   3.454   0.784  1.7421  0.1709  0.3820
13196TIP3    H261080   1.827   3.466   0.917  2.4942 -0.4996  0.8621
13197TIP3   OH261081   2.149   5.449  16.153  0.1245  0.0562  0.2017
13197TIP3    H161082   2.114   5.432  16.241 -0.7807 -0.0924 -0.1847
13197TIP3    H261083   2.084   5.412  16.094  0.1286  1.2574 -0.5708
13198TIP3   OH261084   1.204   4.844  16.362  0.7001 -0.4668 -0.3557
13198TIP3    H161085   1.255   4.924  16.375  0.0148  0.0213 -0.6424
13198TIP3    H261086   1.123   4.873  16.321 -0.9369 -0.8499  2.3050
13199TIP3   OH261087   6.076   2.670  13.077  0.2389 -0.6109 -0.0846
13199TIP3    H161088   6.067   2.575  13.077  0.4142 -0.6547  1.7011
13199TIP3    H261089   5.992   2.702  13.045 -0.5632 -1.3425  1.2181
13200TIP3   OH261090   3.400   3.682  12.543  0.7322 -0.5242  0.7755
13200TIP3    H161091   3.316   3.638  12.534 -0.0116  0.3868  2.5862
13200TIP3    H261092   3.429   3.660  12.632  1.6756  0.3664  0.7100
13201TIP3   OH261093   6.003   1.232  11.354  0.5211 -0.4634 -0.2269
13201TIP3    H161094   6.041   1.157  11.400  1.3513  0.1012  0.0263
13201TIP3    H261095   6.044   1.231  11.268  1.2840  0.2658  0.1157
13202TIP3   OH261096   2.961   6.286   6.084 -0.6938  0.1906 -0.1172
13202TIP3    H161097   2.890   6.275   6.021 -1.3625  0.6925  0.5252
13202TIP3    H261098   2.958   6.379   6.108  3.0325  1.4745 -3.3870
13203TIP3   OH261099   5.044   4.260  13.489  0.3574 -0.0065 -1.2648
13203TIP3    H161100   5.106   4.297  13.553 -0.0472  0.3862 -1.1013
13203TIP3    H261101   4.969   4.233  13.541 -0.1559  0.7068 -1.6245
13204TIP3   OH261102   1.295   6.035   3.768 -0.4578  0.4261  0.6696
13204TIP3    H161103   1.243   5.958   3.791 -1.6832  0.0456 -2.7737
13204TIP3    H261104   1.229   6.102   3.747  0.5494  1.3634  0.4143
13205TIP3   OH261105   4.530   6.689   5.144 -1.1505  0.0269 -0.0553
13205TIP3    H161106   4.587   6.741   5.200 -0.3037 -0.9866  0.0565
13205TIP3    H261107   4.577   6.681   5.061 -1.3070 -0.4934 -0.0983
13206TIP3   OH261108   0.005   3.399  15.906  0.0813 -0.0278 -0.6920
13206TIP3    H161109  -0.087   3.384  15.883 -0.0769  0.8747 -0.7032
13206TIP3    H261110   0.045   3.312  15.903 -1.6048 -1.1576  3.0144
13207TIP3   OH261111   2.957   4.215   4.333 -0.3266 -0.5595 -0.2200
13207TIP3    H161112   2.893   4.191   4.400 -2.5133 -0.3207 -2.1185
13207TIP3    H261113   3.025   4.148   4.340 -1.3681 -1.5244  1.1055
13208TIP3   OH261114   4.640   5.997  12.006  0.5514  0.3247 -0.1912
13208TIP3    H161115   4.661   5.947  11.927  0.6514  1.7131 -1.0702
13208TIP3    H261116   4.546   6.016  11.999  1.0673  2.8635 -1.4790
13209TIP3   OH261117   1.447   4.407   0.836  0.0836 -0.6032  0.2903
13209TIP3    H161118   1.489   4.325   0.809 -1.3901 -1.3373  0.1328
13209TIP3    H261119   1.502   4.439   0.908  0.6913 -1.7205  0.3459
13210TIP3   OH261120   4.467   6.139   5.741 -0.3040  0.3904 -0.0301
13210TIP3    H161121   4.560   6.159   5.732  0.0162 -1.6304 -2.0461
13210TIP3    H261122   4.430   6.155   5.654 -1.9949  1.5856  0.8323
13211TIP3   OH261123   2.297   0.814   3.116  0.1099  0.3689 -0.3419
13211TIP3    H161124   2.331   0.854   3.035  1.1862  0.5389  0.1725
13211TIP3    H261125   2.226   0.757   3.086  2.2817 -1.8287 -1.8166
13212TIP3   OH261126   3.858   0.502  11.684  0.2327  0.2352  0.3658
13212TIP3    H161127   3.842   0.496  11.778  0.4456  0.5906  0.4243
13212TIP3    H261128   3.830   0.590  11.660  0.0384  0.0958  0.0653
13213TIP3   OH261129   4.638   4.485  15.924  0.0611 -0.0943  0.6494
13213TIP3    H161130   4.619   4.571  15.888 -0.9973 -0.3254  0.6455
13213TIP3    H261131   4.704   4.448  15.865  1.4827  1.1907  1.3585
13214TIP3   OH261132   3.772   1.296   2.624  0.4030 -0.0405  0.4723
13214TIP3    H161133   3.750   1.389   2.631  1.0751  0.1704 -0.1146
13214TIP3    H261134   3.687   1.251   2.625  0.0474  0.6111  0.2829
13215TIP3   OH261135   1.839   0.264  11.736 -0.7166  0.5053  0.2342
13215TIP3    H161136   1.850   0.351  11.697  1.1731  0.0228 -0.3731
13215TIP3    H261137   1.913   0.254  11.795 -0.3824 -1.0656 -0.4069
13216TIP3   OH261138   3.135   1.060   2.811  0.4360 -0.3445  0.1864
13216TIP3    H161139   3.140   1.145   2.854 -0.5427 -0.2440  0.1326
13216TIP3    H261140   3.060   1.068   2.752  0.0818 -1.3639  0.4713
13217TIP3   OH261141   6.786   2.321  16.027  0.1102 -0.4714  0.5375
13217TIP3    H161142   6.869   2.362  16.051 -0.4242  0.9259  0.1423
13217TIP3    H261143   6.808   2.230  16.011  1.1815 -0.6220  2.4894
13218TIP3   OH261144   4.795   6.490  11.452  0.0109 -0.5373 -0.9146
13218TIP3    H161145   4.759   6.576  11.432  1.3680  0.3891  0.3850
13218TIP3    H261146   4.877   6.509  11.498  0.2675 -2.5291 -0.4737
13219TIP3   OH261147   2.161   3.056  13.460 -0.2362  0.0634  0.6724
13219TIP3    H161148   2.225   2.988  13.436 -1.5031 -0.9345 -0.0087
13219TIP3    H261149   2.087   3.007  13.495 -0.8152  1.1696  1.0185
13220TIP3   OH261150   4.808   5.204  14.847  0.0430 -0.2924  0.7195
13220TIP3    H161151   4.855   5.182  14.766 -0.0605 -2.0594  1.1141
13220TIP3    H261152   4.715   5.201  14.822  0.0455  0.6579  0.5600
13221TIP3   OH261153   3.861   6.111   3.454 -0.3073  0.1205 -0.1649
13221TIP3    H161154   3.855   6.186   3.513  0.2848 -0.0888  0.1673
13221TIP3    H261155   3.849   6.035   3.511  0.7456 -0.1054 -0.2215
13222TIP3   OH261156   4.045   1.528  13.160  0.6745 -0.0986  0.3745
13222TIP3    H161157   4.116   1.468  13.184  2.8035  1.3206 -1.9141
13222TIP3    H261158   4.079   1.576  13.084 -2.1646  1.7727  0.1543
13223TIP3   OH261159   0.902   4.279   0.736  0.7683  0.0654  0.0676
13223TIP3    H161160   0.900   4.367   0.698 -0.0925  0.0558  0.0767
13223TIP3    H261161   0.971   4.234   0.687  0.9599  0.6265 -0.1935
13224TIP3   OH261162   2.814   5.842   4.464 -0.7862  0.0878 -0.0139
13224TIP3    H161163   2.884   5.794   4.421  1.7071  2.2246  1.3360
13224TIP3    H261164   2.822   5.820   4.556 -1.3105  1.0339  0.2766
13225TIP3   OH261165   6.558   3.756  14.268 -0.0554  0.1099  0.1826
13225TIP3    H161166   6.544   3.729  14.359  1.2363  1.5576  0.8477
13225TIP3    H261167   6.477   3.800  14.244 -1.1364 -1.8641 -0.0380
13226TIP3   OH261168   0.940   2.159   0.688  0.6782 -0.4464  0.2904
13226TIP3    H161169   0.980   2.072   0.688  0.3798 -0.5878  0.9428
13226TIP3    H261170   0.870   2.154   0.753  0.8620  0.3774  0.5625
13227TIP3   OH261171   3.044   4.737  15.381  0.4863 -0.2987 -0.0986
13227TIP3    H161172   3.130   4.753  15.422  0.2732 -0.0086  0.2464
13227TIP3    H261173   3.005   4.824  15.373 -0.3724 -0.5551  1.0763
13228TIP3   OH261174   1.869   1.511   3.624 -0.3510 -0.0370 -0.4872
13228TIP3    H161175   1.802   1.477   3.565 -1.7455 -0.9734  1.5252
13228TIP3    H261176   1.903   1.434   3.669  0.5274  0.6683  0.0978
13229TIP3   OH261177   1.655   2.692   2.172 -0.4471 -0.1817  0.2144
13229TIP3    H161178   1.609   2.639   2.237 -0.7488 -0.6172 -0.3475
13229TIP3    H261179   1.718   2.632   2.132 -0.8768 -0.1536 -0.5150
13230TIP3   OH261180   6.055   0.781  10.266  0.2995 -0.0929  0.1119
13230TIP3    H161181   5.981   0.724  10.289  0.0475  0.2105  0.0670
13230TIP3    H261182   6.130   0.742  10.310  0.0845 -0.3231  0.2805
13231TIP3   OH261183   5.543   1.777   5.274 -0.3276  0.1487 -0.4580
13231TIP3    H161184   5.500   1.718   5.336  0.1964 -0.0021 -0.2269
13231TIP3    H261185   5.628   1.735   5.257 -0.0264  0.7408 -0.4294
13232TIP3   OH261186   0.825   4.436  14.990  0.2338  0.0636  0.4912
13232TIP3    H161187   0.828   4.529  14.971  0.7834  0.0980  0.7315
13232TIP3    H261188   0.867   4.428  15.076  1.4152 -0.5646 -0.1346
13233TIP3   OH261189   0.146   4.685   2.135 -0.3857 -0.2920 -0.4189
13233TIP3    H161190   0.205   4.746   2.090 -0.8503 -1.2683 -2.4463
13233TIP3    H261191   0.197   4.652   2.209  1.1867 -0.1903 -1.4206
13234TIP3   OH261192   0.740   0.010   0.217 -0.2091 -0.0594  0.4095
13234TIP3    H161193   0.658  -0.002   0.266 -0.4976  1.1483  0.2489
13234TIP3    H261194   0.796   0.060   0.276  0.2429 -0.4651  0.3304
13235TIP3   OH261195   3.376   4.163   3.384  0.2981  0.8572  0.5584
13235TIP3    H161196   3.283   4.171   3.407  0.3493  0.9466  0.7336
13235TIP3    H261197   3.382   4.203   3.297  0.1642  0.8095  0.5269
13236TIP3   OH261198   5.736   2.832   5.808 -0.9130  0.1264 -0.2595
13236TIP3    H161199   5.722   2.738   5.815  0.9583 -0.2139 -0.5762
13236TIP3    H261200   5.831   2.842   5.803 -1.1020  1.9868 -0.9355
13237TIP3   OH261201   5.899   2.786   1.282 -0.0371  0.8110  0.0014
13237TIP3    H161202   5.958   2.747   1.346  0.8537  0.5848 -0.9352
13237TIP3    H261203   5.837   2.717   1.261  0.8329  0.2390 -0.7879
13238TIP3   OH261204   4.033   3.605   2.057 -0.4129 -0.0406  0.1723
13238TIP3    H161205   3.941   3.609   2.032 -1.1453  0.5404  2.6978
13238TIP3    H261206   4.039   3.530   2.117  0.8072 -0.1805 -0.0901
13239TIP3   OH261207   1.739   6.272   3.312  0.6112  0.3508 -0.1513
13239TIP3    H161208   1.716   6.307   3.398  1.8600 -2.5895  1.5206
13239TIP3    H261209   1.656   6.271   3.263 -1.0084 -1.4403  2.4032
13240TIP3   OH261210   1.490   0.303  14.471 -0.0200  0.6274 -0.0904
13240TIP3    H161211   1.482   0.313  14.376 -0.4599  0.3164 -0.0898
13240TIP3    H261212   1.468   0.211  14.487  1.3868  0.3129  0.1712
13241TIP3   OH261213   1.441   6.623  15.372  0.0205 -0.1445  0.0317
13241TIP3    H161214   1.478   6.538  15.346  1.4879  0.1270  1.1081
13241TIP3    H261215   1.499   6.687  15.332  1.9188  0.2938  3.1360
13242TIP3   OH261216   5.345   5.829  15.273  0.3033  0.0845  0.4830
13242TIP3    H161217   5.259   5.830  15.231  1.3452  0.7415 -1.8245
13242TIP3    H261218   5.335   5.886  15.349 -0.7775  1.9380 -0.9606
13243TIP3   OH261219   4.231   0.531  13.873  0.2094  0.2310 -0.2735
13243TIP3    H161220   4.313   0.578  13.861 -0.3514  1.0492 -1.0595
13243TIP3    H261221   4.170   0.598  13.904 -0.7613  0.2098 -1.9812
13244TIP3   OH261222   4.712   6.716   1.255 -0.7050 -0.0890 -0.5530
13244TIP3    H161223   4.784   6.764   1.214 -0.2139  0.0161  0.4048
13244TIP3    H261224   4.751   6.633   1.283 -1.4682 -0.9460 -1.9094
13245TIP3   OH261225   1.318   3.549  11.740  0.2717 -0.6376 -0.0071
13245TIP3    H161226   1.233   3.552  11.785  0.9368  0.3576  1.2612
13245TIP3    H261227   1.382   3.550  11.811  1.3613 -1.5507 -0.9407
13246TIP3   OH261228   1.478   0.745   2.907 -0.1823 -0.4449 -0.2192
13246TIP3    H161229   1.434   0.814   2.957  0.6366 -0.2863  0.3088
13246TIP3    H261230   1.413   0.675   2.900 -1.3026  0.6585 -1.4246
13247TIP3   OH261231   2.550   1.576   5.339 -0.6014 -0.0112 -0.0672
13247TIP3    H161232   2.526   1.560   5.430  1.1499 -0.0524  0.4280
13247TIP3    H261233   2.472   1.616   5.301  0.1286  5.1530  2.8433
13248TIP3   OH261234   6.794   6.212   2.540  0.3584  0.0570  0.2751
13248TIP3    H161235   6.703   6.199   2.512  0.3082  0.4912  0.2389
13248TIP3    H261236   6.787   6.251   2.627  0.5068  0.6201  0.0379
13249TIP3   OH261237   1.958   3.996  11.767  0.2541  0.1150 -0.1760
13249TIP3    H161238   1.926   4.085  11.785  0.6266  0.5664 -1.6324
13249TIP3    H261239   1.885   3.939  11.792  0.9321  0.5514  3.3383
13250TIP3   OH261240   5.431   1.949  12.890  0.1283  0.4067  0.1372
13250TIP3    H161241   5.365   1.901  12.840  0.7199 -0.6732  0.3528
13250TIP3    H261242   5.384   1.983  12.966 -0.5801  1.2935 -0.6859
13251TIP3   OH261243   5.769   6.567  12.332  0.0847 -0.4215 -0.5943
13251TIP3    H161244   5.781   6.661  12.344  0.9433 -0.6764  0.7774
13251TIP3    H261245   5.676   6.552  12.349  0.1515  0.0444  0.2130
13252TIP3   OH261246   0.074   6.687   1.080 -0.0784  0.4703 -0.4917
13252TIP3    H161247   0.161   6.727   1.079  0.1618 -0.0090  0.2277
13252TIP3    H261248   0.091   6.593   1.081 -0.6072  0.3735 -0.5126
13253TIP3   OH261249   3.295   6.633   4.700  0.6076  0.4451  0.2525
13253TIP3    H161250   3.307   6.597   4.612 -0.9199  0.7650 -0.1150
13253TIP3    H261251   3.374   6.606   4.748  0.2119 -2.1254 -0.4047
13254TIP3   OH261252   5.069   1.464   2.828 -0.1864  0.4948  0.2992
13254TIP3    H161253   5.038   1.493   2.742 -0.6057 -4.0176 -1.3285
13254TIP3    H261254   5.163   1.480   2.826 -0.2094  0.5598 -0.9778
13255TIP3   OH261255   6.430   3.074  13.803  0.3448 -0.9076 -0.2169
13255TIP3    H161256   6.502   3.137  13.805 -0.4814  0.0668  0.0404
13255TIP3    H261257   6.449   3.014  13.875 -0.4581  0.9573  1.6601
13256TIP3   OH261258   2.353   0.324   0.261 -0.2457 -0.5071 -0.4167
13256TIP3    H161259   2.258   0.324   0.257 -0.3304 -1.0143  1.0522
13256TIP3    H261260   2.380   0.275   0.183 -1.1901 -0.6149 -0.6877
13257TIP3   OH261261   3.416   1.960   3.541  0.4458  0.2140 -0.5812
13257TIP3    H161262   3.421   1.922   3.628  1.7714 -0.4162 -0.8982
13257TIP3    H261263   3.424   2.055   3.554 -1.8873  0.3628  0.1422
13258TIP3   OH261264   5.217   6.217   3.302  0.3802  0.4407  0.0794
13258TIP3    H161265   5.182   6.264   3.377  0.3605  0.0809  0.2995
13258TIP3    H261266   5.306   6.192   3.328  0.6292  0.9201 -0.2869
13259TIP3   OH261267   5.927   0.879  13.837 -0.2216  0.3039  0.2197
13259TIP3    H161268   6.012   0.919  13.855 -0.8183  0.6631  2.6419
13259TIP3    H261269   5.907   0.829  13.916 -2.4650  0.6354 -0.0622
13260TIP3   OH261270   5.831   3.151   1.010 -0.4208  0.3654 -0.0947
13260TIP3    H161271   5.777   3.099   1.068  1.9307 -0.0103  1.9243
13260TIP3    H261272   5.806   3.123   0.922 -1.9886 -1.2715  0.8102
13261TIP3   OH261273   0.919   2.931  16.740  0.2535  0.3419  0.0706
13261TIP3    H161274   0.952   3.018  16.762  2.1426 -0.3074 -0.0113
13261TIP3    H261275   0.843   2.948  16.685  1.5359  1.9710 -1.3388
13262TIP3   OH261276   1.411   2.300  14.023  0.3051  0.1754 -0.2156
13262TIP3    H161277   1.373   2.323  14.107  0.3275  0.6485 -0.3333
13262TIP3    H261278   1.418   2.205  14.025  0.8183  0.2226  0.5351
13263TIP3   OH261279   1.526   4.221   2.438 -0.2783 -0.7141 -0.5212
13263TIP3    H161280   1.452   4.161   2.425 -0.1045 -1.0382 -0.0225
13263TIP3    H261281   1.515   4.255   2.527  1.1785 -2.1977  0.2990
13264TIP3   OH261282   0.434   6.731  12.046 -0.4938  0.2218  0.5127
13264TIP3    H161283   0.467   6.686  12.123 -0.7659  0.3880  0.7280
13264TIP3    H261284   0.395   6.812  12.080  1.7600  1.6535 -0.0292
13265TIP3   OH261285   1.738   6.061  15.686  0.5020 -0.2778  0.7678
13265TIP3    H161286   1.758   6.026  15.773 -0.0115 -1.2196  0.5269
13265TIP3    H261287   1.648   6.092  15.693  0.4931 -0.2679  0.6026
13266TIP3   OH261288   3.512   4.016  12.496  0.5267 -0.1028  0.2564
13266TIP3    H161289   3.544   4.089  12.443  1.0205 -0.4753  0.0310
13266TIP3    H261290   3.439   3.980  12.444 -0.8886  1.2817  1.1753
13267TIP3   OH261291   5.978   6.495  16.616  0.3553  0.1914  0.2024
13267TIP3    H161292   5.964   6.504  16.522 -1.2254  2.2768  0.5561
13267TIP3    H261293   6.063   6.536  16.632  1.3307 -1.5045 -0.4668
13268TIP3   OH261294   6.157   4.242  15.147 -0.0327 -0.2228  0.2736
13268TIP3    H161295   6.249   4.240  15.121  0.3057 -0.2543  1.4218
13268TIP3    H261296   6.133   4.150  15.156 -0.5744 -0.2547 -1.3285
13269TIP3   OH261297   4.135   5.926   0.925  0.1498 -0.1037 -0.2204
13269TIP3    H161298   4.121   5.985   0.999 -1.0585 -1.9643  1.1178
13269TIP3    H261299   4.222   5.949   0.892  0.7056  0.8050  1.7359
13270TIP3   OH261300   5.066   3.157   3.442 -0.0325  0.6075  0.1096
13270TIP3    H161301   4.997   3.162   3.376  0.3169  3.2248 -0.1375
13270TIP3    H261302   5.036   3.214   3.513  0.6951 -0.3037  1.1826
13271TIP3   OH261303   3.193   3.997  11.905 -0.2797 -0.1119 -0.8532
13271TIP3    H161304   3.216   3.905  11.913 -0.3953 -0.3061 -2.4509
13271TIP3    H261305   3.109   4.006  11.950 -0.0248 -0.6642 -0.2559
13272TIP3   OH261306   5.349   2.163   1.595 -0.6822  0.3683 -0.0658
13272TIP3    H161307   5.259   2.146   1.623 -0.6482  1.3247  0.6974
13272TIP3    H261308   5.358   2.116   1.512 -1.6496 -0.3443  0.2173
13273TIP3   OH261309   6.731   6.611   0.888 -0.9591 -0.5753  0.4420
13273TIP3    H161310   6.661   6.675   0.873 -0.1616  0.7313  2.0014
13273TIP3    H261311   6.783   6.648   0.960  1.1919 -1.6116 -0.4709
13274TIP3   OH261312   4.572   4.737  15.825 -0.3086 -0.5310  0.1277
13274TIP3    H161313   4.586   4.691  15.742  0.4167 -2.0988  1.0680
13274TIP3    H261314   4.582   4.829  15.804 -0.0583 -0.9052 -1.5076
13275TIP3   OH261315   0.333   4.014  12.749 -0.1746  0.7474 -0.0857
13275TIP3    H161316   0.303   3.975  12.667  0.1435  2.1823 -0.9247
13275TIP3    H261317   0.263   4.075  12.773  0.1081  0.9334  0.2753
13276TIP3   OH261318   2.227   3.748   2.142 -0.6114  0.1424  0.0981
13276TIP3    H161319   2.289   3.716   2.207  0.9453  2.0119 -0.3536
13276TIP3    H261320   2.282   3.790   2.076 -2.1332 -1.5190 -2.3735
13277TIP3   OH261321   0.533   0.647  14.059  0.2738  0.1744  0.2966
13277TIP3    H161322   0.558   0.731  14.020 -0.9739  0.5062  0.1441
13277TIP3    H261323   0.438   0.653  14.067  0.3544 -0.4044  2.1859
13278TIP3   OH261324   4.702   4.032   5.392  0.0295 -0.5425 -0.2497
13278TIP3    H161325   4.630   3.972   5.371 -0.6740  0.3841 -0.5341
13278TIP3    H261326   4.755   3.983   5.456 -0.8639 -1.2305 -0.0084
13279TIP3   OH261327   6.293   4.725   1.046  0.4359 -0.2298 -0.2277
13279TIP3    H161328   6.305   4.798   0.984  2.5419 -0.3677 -0.0558
13279TIP3    H261329   6.231   4.666   1.002  0.3236  0.6486 -1.2947
13280TIP3   OH261330   2.964   0.532   2.423  0.0382 -0.3384 -0.3568
13280TIP3    H161331   2.917   0.612   2.448 -1.1493 -1.3395  0.6982
13280TIP3    H261332   3.047   0.538   2.470  0.4511  0.7933 -1.1711
13281TIP3   OH261333   1.915   5.678  14.030  0.3477  0.5772  0.0003
13281TIP3    H161334   1.932   5.660  14.122  0.1470  3.8675  0.8069
13281TIP3    H261335   1.973   5.619  13.982  0.0271 -1.6265  2.1584
13282TIP3   OH261336   0.450   0.169   0.129  0.4990  0.1004 -0.2557
13282TIP3    H161337   0.452   0.124   0.214 -1.7582 -0.4794 -0.4428
13282TIP3    H261338   0.486   0.255   0.147  2.9670 -1.0228  0.5755
13283TIP3   OH261339   3.212   4.175   5.837  0.1845  0.1550  0.0231
13283TIP3    H161340   3.211   4.092   5.885  0.9820 -0.4929 -1.0276
13283TIP3    H261341   3.204   4.149   5.745  0.8255  1.2151 -0.3437
13284TIP3   OH261342   3.328   0.072   5.257  0.5978 -0.3510 -0.2187
13284TIP3    H161343   3.319   0.152   5.206 -0.1605 -0.6488 -0.5648
13284TIP3    H261344   3.239   0.038   5.264  0.4791  0.2528  2.2443
13285TIP3   OH261345   0.704   3.779   0.609 -0.3932 -0.1050 -0.5671
13285TIP3    H161346   0.749   3.704   0.648 -0.7974 -1.0862 -1.9021
13285TIP3    H261347   0.749   3.793   0.526 -0.1105  1.3706 -0.1848
13286TIP3   OH261348   3.385   0.325   1.178  0.1887 -0.1653  0.1490
13286TIP3    H161349   3.368   0.388   1.108 -0.3595 -0.4042  0.0676
13286TIP3    H261350   3.324   0.349   1.247 -1.1116 -1.5300 -0.4649
13287TIP3   OH261351   3.923   2.177  15.990 -0.0658 -0.2329 -0.7891
13287TIP3    H161352   3.829   2.195  15.984 -0.0260 -0.2113 -1.3992
13287TIP3    H261353   3.928   2.087  16.022 -0.2964 -0.3341 -1.0316
13288TIP3   OH261354   0.375   3.189   1.436  0.1143 -0.5475  0.4623
13288TIP3    H161355   0.286   3.183   1.472 -0.6367 -0.3947 -1.2508
13288TIP3    H261356   0.390   3.103   1.396 -1.5140  0.9590 -3.9942
13289TIP3   OH261357   5.096   0.155  14.229 -0.4695 -0.4495 -0.1573
13289TIP3    H161358   5.088   0.185  14.320  0.4434 -1.1282  0.1695
13289TIP3    H261359   5.172   0.203  14.194 -1.9651  1.2587 -1.2049
13290TIP3   OH261360   1.173   4.573  14.394  0.5280  0.1237  0.7940
13290TIP3    H161361   1.211   4.494  14.356  0.1631  0.2791  0.0761
13290TIP3    H261362   1.146   4.625  14.318  0.5469  0.8302  1.2594
13291TIP3   OH261363   2.629   0.240   4.502 -0.0835 -0.2549  0.2235
13291TIP3    H161364   2.717   0.231   4.465  0.5208  0.9208  1.2782
13291TIP3    H261365   2.637   0.312   4.565 -2.1252  0.8172 -0.6501
13292TIP3   OH261366   3.777   1.809  16.304  0.2410  0.1647 -0.0861
13292TIP3    H161367   3.772   1.794  16.210 -0.7718  2.2533 -0.4181
13292TIP3    H261368   3.767   1.722  16.343 -0.4467 -0.5995 -1.8754
13293TIP3   OH261369   5.199   3.381  15.452 -0.1915  0.7991  0.0737
13293TIP3    H161370   5.222   3.322  15.381 -2.0917  0.9293 -0.7225
13293TIP3    H261371   5.220   3.469  15.418  0.8764  0.7376  0.5293
13294TIP3   OH261372   3.286   2.675   3.359 -0.0476 -0.4161 -0.2316
13294TIP3    H161373   3.252   2.759   3.388  0.4927  0.5864 -2.2795
13294TIP3    H261374   3.358   2.656   3.419 -0.3216  0.4658  0.3954
13295TIP3   OH261375   5.385   0.131  15.170 -0.5756 -0.0826  0.0251
13295TIP3    H161376   5.447   0.072  15.128 -1.4707 -2.3155  1.6479
13295TIP3    H261377   5.437   0.207  15.195  0.6992 -0.2935 -1.8128
13296TIP3   OH261378   6.735   2.722   3.628  0.0937  0.0476 -0.1148
13296TIP3    H161379   6.728   2.630   3.604 -1.6362 -0.5155  2.2361
13296TIP3    H261380   6.733   2.722   3.724  1.8092  2.4413  0.0120
13297TIP3   OH261381   6.142   0.346   2.094  0.3051 -0.2074  0.4543
13297TIP3    H161382   6.109   0.257   2.108  0.9164 -0.8470 -1.6675
13297TIP3    H261383   6.064   0.400   2.084 -0.1202 -0.9722 -0.5542
13298TIP3   OH261384   4.242   4.863   2.527  0.6827  0.0510  0.2709
13298TIP3    H161385   4.189   4.786   2.508 -0.3825  0.8244 -0.0273
13298TIP3    H261386   4.259   4.902   2.441  0.3887  0.6699  0.4863
13299TIP3   OH261387   2.030   1.432   2.470 -0.1654 -0.1847  0.1103
13299TIP3    H161388   1.964   1.395   2.529 -1.6380  1.2967 -0.5493
13299TIP3    H261389   2.012   1.526   2.469  2.4339  0.3856  0.4565
13300TIP3   OH261390   0.835   6.122  10.957 -0.2851 -0.1984  0.3024
13300TIP3    H161391   0.820   6.044  11.009  2.1992 -2.4457 -2.0461
13300TIP3    H261392   0.924   6.150  10.981 -0.5329  0.9875 -0.0733
13301TIP3   OH261393   6.158   6.706   2.999  0.0097  0.2861  0.0959
13301TIP3    H161394   6.124   6.686   2.911  1.0229  1.1912 -0.5243
13301TIP3    H261395   6.250   6.728   2.985  0.1921  0.4341  1.4007
13302TIP3   OH261396   6.182   1.450  12.634 -0.5231  0.0531 -0.5988
13302TIP3    H161397   6.211   1.541  12.624 -2.2085  0.7409  0.4758
13302TIP3    H261398   6.091   1.450  12.605  0.0602 -1.8350 -2.8228
13303TIP3   OH261399   6.216   0.160  13.117  0.3252  0.1213 -0.2308
13303TIP3    H161400   6.159   0.083  13.114  1.2525 -0.5656 -0.8370
13303TIP3    H261401   6.194   0.203  13.199 -0.3422 -0.7001  0.0312
13304TIP3   OH261402   5.743   6.379   0.545  0.1348 -0.0621  0.4154
13304TIP3    H161403   5.704   6.387   0.458 -0.2597  0.5046  0.6419
13304TIP3    H261404   5.670   6.357   0.602  0.0678  1.3564  0.9020
13305TIP3   OH261405   3.821   4.616   3.520 -0.0248  0.2416  0.3526
13305TIP3    H161406   3.804   4.610   3.426 -0.6505 -1.6574  0.5320
13305TIP3    H261407   3.884   4.546   3.538 -0.5005  0.0652  1.4508
13306TIP3   OH261408   0.545   0.798   0.141  0.1324 -0.2131 -0.1340
13306TIP3    H161409   0.511   0.856   0.072 -0.6237 -1.5419 -0.9155
13306TIP3    H261410   0.473   0.791   0.203  1.1155  1.6935  1.3235
13307TIP3   OH261411   5.695   2.171   6.040  0.2018 -0.0374  0.1388
13307TIP3    H161412   5.711   2.235   6.109 -1.7261 -1.0878  1.6826
13307TIP3    H261413   5.781   2.134   6.021  0.8034  0.2966  1.9973
13308TIP3   OH261414   1.199   4.851  13.627  0.5062 -0.5915  0.3137
13308TIP3    H161415   1.160   4.895  13.551  1.6541 -0.4349 -0.1960
13308TIP3    H261416   1.276   4.806  13.592  0.5314 -1.2785  1.2225
13309TIP3   OH261417   0.953   3.517  15.952  0.4023  0.6854 -0.1149
13309TIP3    H161418   0.903   3.552  16.027 -0.9679 -0.8838 -0.2563
13309TIP3    H261419   0.961   3.592  15.892  0.3935  1.6172  1.0016
13310TIP3   OH261420   5.249   4.640  16.715 -0.1217 -0.1896  0.1367
13310TIP3    H161421   5.159   4.671  16.719  0.2560  2.4133 -4.0331
13310TIP3    H261422   5.299   4.706  16.764 -0.1397  1.4615 -1.8979
13311TIP3   OH261423   6.040   0.418   3.318 -0.4652  0.1620  0.3330
13311TIP3    H161424   5.960   0.365   3.319  0.5527 -1.4795  1.7707
13311TIP3    H261425   6.028   0.478   3.244 -3.5465  0.8628  1.2195
13312TIP3   OH261426   2.250   2.519  12.353  0.6400 -0.1982 -0.2703
13312TIP3    H161427   2.240   2.605  12.314  0.8105  0.9658  2.1018
13312TIP3    H261428   2.160   2.492  12.376  0.8260  1.1160  2.4003
13313TIP3   OH261429   4.243   5.719  16.673 -0.1393  0.0149 -0.1693
13313TIP3    H161430   4.281   5.805  16.657 -1.3128  0.6579  0.3500
13313TIP3    H261431   4.155   5.738  16.707 -0.4284 -1.3875 -0.0854
13314TIP3   OH261432   1.976   1.678   3.830  0.3401 -0.2246  0.1634
13314TIP3    H161433   1.901   1.668   3.889 -0.0367 -1.7957 -0.5179
13314TIP3    H261434   1.959   1.615   3.759  2.0569 -0.2576 -0.2664
13315TIP3   OH261435   3.963   4.265  15.336  0.3914 -0.5640  0.2043
13315TIP3    H161436   3.935   4.227  15.419  0.4793  0.0692  0.5317
13315TIP3    H261437   4.041   4.316  15.358  0.8601 -1.0053 -0.4086
13316TIP3   OH261438   5.238   5.275   2.698 -0.1134 -0.1080  0.3425
13316TIP3    H161439   5.302   5.273   2.627  0.3387 -2.0262  0.7354
13316TIP3    H261440   5.181   5.201   2.682 -0.4102 -0.1866  1.6039
13317TIP3   OH261441   5.413   4.504   6.420  0.0290  0.1808 -0.0406
13317TIP3    H161442   5.508   4.512   6.427  0.1375 -1.4776  0.9326
13317TIP3    H261443   5.394   4.417   6.455 -1.9117  0.7109  0.3109
13318TIP3   OH261444   5.083   0.780   5.226 -0.0885 -0.2973 -0.0061
13318TIP3    H161445   5.039   0.702   5.192 -0.5333  0.1113 -0.3731
13318TIP3    H261446   5.086   0.840   5.152 -0.7943  0.4790  0.5828
13319TIP3   OH261447   1.466   0.031   6.164 -0.1306 -0.3565  0.6503
13319TIP3    H161448   1.543  -0.026   6.165  0.3731  0.3149  0.9695
13319TIP3    H261449   1.410  -0.006   6.096  2.6890  1.9898 -3.3994
13320TIP3   OH261450   1.699   0.784  15.745  0.0264  0.0591 -0.3182
13320TIP3    H161451   1.773   0.838  15.717 -0.1289  0.2069 -0.4452
13320TIP3    H261452   1.723   0.695  15.719  0.6424 -0.0613  0.6145
13321TIP3   OH261453   0.083   1.874  13.382 -0.3633  0.0052 -0.1624
13321TIP3    H161454  -0.002   1.919  13.393  0.3252  1.6574 -1.1333
13321TIP3    H261455   0.140   1.915  13.447 -0.1531 -0.6849  0.0899
13322TIP3   OH261456   4.714   0.133   1.157 -0.2887 -0.2552 -0.8956
13322TIP3    H161457   4.662   0.113   1.079 -0.6551  1.6027 -1.1719
13322TIP3    H261458   4.773   0.203   1.129 -0.5006  0.5227  0.5127
13323TIP3   OH261459   4.210   4.711   4.160 -0.3338  0.1203  0.3993
13323TIP3    H161460   4.197   4.766   4.238 -0.7623  0.3477  0.1715
13323TIP3    H261461   4.227   4.624   4.195 -0.1836  0.2924  0.7575
13324TIP3   OH261462   3.163   6.797  11.113 -0.4869  0.2567  0.0271
13324TIP3    H161463   3.254   6.824  11.120 -0.7437  0.9724  0.7757
13324TIP3    H261464   3.134   6.835  11.030 -0.3909  0.9437  0.2963
13325TIP3   OH261465   3.250   2.314  15.183 -0.1585  0.5715 -0.4760
13325TIP3    H161466   3.248   2.361  15.266  1.0211  2.0403 -1.2420
13325TIP3    H261467   3.318   2.248  15.194 -0.0499  0.7182 -0.2664
13326TIP3   OH261468   4.401   0.828   4.321 -0.6545 -0.5342  0.2374
13326TIP3    H161469   4.324   0.862   4.366 -1.1845  0.8391 -1.6148
13326TIP3    H261470   4.466   0.898   4.327  0.2203 -1.3965  1.1516
13327TIP3   OH261471   4.794   1.448  13.947 -0.4373 -0.1401  0.1268
13327TIP3    H161472   4.881   1.454  13.908 -0.6266  1.5977 -0.1281
13327TIP3    H261473   4.734   1.435  13.873 -0.5505  0.5628  0.0824
13328TIP3   OH261474   3.376   4.978   4.506 -0.4145 -0.1238 -0.7493
13328TIP3    H161475   3.434   4.986   4.430 -1.5690 -0.3806 -1.7005
13328TIP3    H261476   3.314   4.909   4.482 -0.0929 -1.0384  0.9333
13329TIP3   OH261477   0.675   6.037   1.938  0.3566 -0.1145  0.9004
13329TIP3    H161478   0.635   6.124   1.936 -0.8203 -0.6463 -0.4337
13329TIP3    H261479   0.612   5.983   1.985 -1.0941 -1.1606 -1.9701
13330TIP3   OH261480   0.214   6.388   1.411 -0.5122 -0.0240 -0.2323
13330TIP3    H161481   0.226   6.482   1.398 -1.8558  0.2210  0.2254
13330TIP3    H261482   0.285   6.349   1.360  0.5302  1.2396  0.1612
13331TIP3   OH261483   2.325   3.022   4.386  0.4016 -0.3123  0.0639
13331TIP3    H161484   2.387   2.950   4.384  1.8939  0.9139  0.4213
13331TIP3    H261485   2.378   3.100   4.403 -1.2789  0.7495  0.7521
13332TIP3   OH261486   1.348   4.963   1.534 -0.2348 -0.0768 -0.0519
13332TIP3    H161487   1.278   5.026   1.522 -1.8166 -1.8770 -0.8565
13332TIP3    H261488   1.329   4.921   1.618 -1.3933 -1.9821 -1.1955
13333TIP3   OH261489   6.222   5.392  11.279  0.1191 -0.9266 -0.5002
13333TIP3    H161490   6.143   5.431  11.241 -0.5363 -1.8227 -0.0920
13333TIP3    H261491   6.275   5.366  11.203 -1.5165 -3.3991 -0.9290
13334TIP3   OH261492   4.903   2.082  16.498 -0.1809  0.0699 -0.1772
13334TIP3    H161493   4.827   2.025  16.500  0.2676 -0.5213  1.4189
13334TIP3    H261494   4.969   2.034  16.447 -0.5387  0.1509 -0.7181
13335TIP3   OH261495   4.505   2.841   1.000 -0.1396  0.1337  0.3280
13335TIP3    H161496   4.595   2.833   1.033 -0.0784  1.0101  0.3900
13335TIP3    H261497   4.456   2.878   1.074 -0.5665 -0.3667  0.3040
13336TIP3   OH261498   2.533   2.860   4.381  0.2540  0.4031 -0.4275
13336TIP3    H161499   2.628   2.856   4.380  0.2424 -0.4728  0.6705
13336TIP3    H261500   2.507   2.806   4.455 -1.1967 -1.1721 -2.0021
13337TIP3   OH261501   4.377   2.785  11.390  0.0154  0.4286 -0.1759
13337TIP3    H161502   4.462   2.742  11.400 -0.4581 -0.0722  2.2540
13337TIP3    H261503   4.314   2.720  11.420 -0.8886  2.0409  1.6512
13338TIP3   OH261504   3.976   4.012  13.109 -0.3016  0.0175  0.3297
13338TIP3    H161505   3.937   4.094  13.142 -2.2493 -0.3793 -0.7740
13338TIP3    H261506   4.059   4.039  13.070  0.1770  1.0862  1.9945
13339TIP3   OH261507   0.120   2.614  11.869  0.4448 -0.1476 -0.2917
13339TIP3    H161508   0.151   2.701  11.894 -0.2271 -0.2992  1.1871
13339TIP3    H261509   0.183   2.553  11.908  0.9833 -0.3384 -1.4290
13340TIP3   OH261510   1.634   6.499   4.592 -0.2507  0.0299 -0.0167
13340TIP3    H161511   1.704   6.510   4.528  1.3601  0.8460  1.7812
13340TIP3    H261512   1.616   6.588   4.622  0.2574 -0.4573  1.8610
13341TIP3   OH261513   3.563   5.527  14.522  0.0162  0.0780 -0.1953
13341TIP3    H161514   3.479   5.486  14.543 -0.9064  1.7876 -0.3123
13341TIP3    H261515   3.612   5.459  14.477 -1.0173 -1.1989  0.5199
13342TIP3   OH261516   3.489   1.936  16.186  0.8738 -0.4763 -0.3795
13342TIP3    H161517   3.504   1.870  16.254 -1.1070 -0.7531 -0.1665
13342TIP3    H261518   3.492   1.887  16.104 -2.0011 -1.1808 -0.1493
13343TIP3   OH261519   0.887   3.996   5.124  0.5533  0.4913  0.1327
13343TIP3    H161520   0.877   3.926   5.189 -1.3559  0.7595  0.1824
13343TIP3    H261521   0.970   3.977   5.081  0.7624 -0.9874  1.1188
13344TIP3   OH261522   3.986   2.567  12.720 -0.2222  0.2094  0.3608
13344TIP3    H161523   3.964   2.619  12.642 -0.2602 -2.3547 -1.4651
13344TIP3    H261524   4.067   2.605  12.752  0.6314  0.4398 -1.8615
13345TIP3   OH261525   0.785   6.281  16.128  0.0241  0.2595  0.2442
13345TIP3    H161526   0.832   6.208  16.168 -1.4463 -0.6794  0.3299
13345TIP3    H261527   0.829   6.295  16.044 -0.8642 -2.0750 -0.6947
13346TIP3   OH261528   0.002   2.943  13.204  0.0523  0.9722  0.5920
13346TIP3    H161529  -0.061   3.015  13.206 -0.6984  0.3170  1.4249
13346TIP3    H261530   0.032   2.935  13.295 -1.8112 -1.3791  1.1065
13347TIP3   OH261531   5.043   5.318  11.076 -0.1445 -0.0246 -0.1808
13347TIP3    H161532   5.048   5.392  11.015  0.4992  1.1149  1.2028
13347TIP3    H261533   5.053   5.241  11.020  1.9255  1.0117 -1.4002
13348TIP3   OH261534   5.923   1.066  16.361 -0.0499 -0.9503  0.2410
13348TIP3    H161535   5.980   1.126  16.313  0.0868 -1.1975  0.0927
13348TIP3    H261536   5.854   1.122  16.396 -1.2672 -1.0263 -1.8809
13349TIP3   OH261537   5.013   3.642  13.922 -0.6351  0.1166 -0.0300
13349TIP3    H161538   4.969   3.720  13.957  0.4239  0.5757  0.3287
13349TIP3    H261539   5.094   3.636  13.972 -1.7134 -2.5925  1.6002
13350TIP3   OH261540   3.124   2.477  14.140 -0.0677 -0.2567  0.8589
13350TIP3    H161541   3.175   2.500  14.062  1.1488 -0.6504  1.5214
13350TIP3    H261542   3.189   2.449  14.204 -1.2252 -2.5229  1.1379
13351TIP3   OH261543   2.449   1.815  13.478  0.6913  0.6504 -0.0409
13351TIP3    H161544   2.486   1.891  13.522 -0.5573  1.2551  0.0143
13351TIP3    H261545   2.518   1.749  13.481  0.9885  0.9974  1.9417
13352TIP3   OH261546   0.256   1.879   1.625  0.5322  0.9443 -0.1448
13352TIP3    H161547   0.272   1.849   1.715 -0.4415  0.9374  0.0456
13352TIP3    H261548   0.343   1.898   1.590  1.2313 -2.0738 -0.3005
13353TIP3   OH261549   5.956   1.857   4.389  0.0741 -0.2277  0.0521
13353TIP3    H161550   5.977   1.850   4.296  0.4004  1.0564  0.0021
13353TIP3    H261551   5.865   1.886   4.391  0.1970  0.1613  0.1152
13354TIP3   OH261552   4.440   1.761  15.841 -0.0344  0.2938 -0.2259
13354TIP3    H161553   4.408   1.783  15.929 -0.4109  1.5788 -0.6585
13354TIP3    H261554   4.499   1.688  15.855 -0.3167  0.2791  1.0686
13355TIP3   OH261555   6.603   2.017   1.638 -0.2628 -0.2304 -0.8362
13355TIP3    H161556   6.580   1.987   1.726 -0.7811  1.8259 -0.2053
13355TIP3    H261557   6.680   1.966   1.614  0.9931  0.3959  1.5607
13356TIP3   OH261558   5.599   5.945  16.226 -0.1541 -0.1149 -0.9831
13356TIP3    H161559   5.681   5.982  16.257  0.0545 -0.3550 -1.2452
13356TIP3    H261560   5.610   5.850  16.234 -0.5569 -0.1348 -0.6334
13357TIP3   OH261561   4.886   6.403  13.171  0.0257  0.1009 -0.1481
13357TIP3    H161562   4.801   6.389  13.130 -0.1150  0.7981 -0.1115
13357TIP3    H261563   4.865   6.425  13.262  0.3335 -1.4775  0.3383
13358TIP3   OH261564   4.858   3.051   4.159  0.4487 -0.1039  0.5837
13358TIP3    H161565   4.943   3.082   4.126 -0.0989 -0.3624 -1.1649
13358TIP3    H261566   4.820   3.128   4.201  1.3139  0.1575  0.9230
13359TIP3   OH261567   1.293   6.500  11.928 -0.7718 -0.2730 -0.0672
13359TIP3    H161568   1.255   6.558  11.994  0.7381 -1.1382  1.6449
13359TIP3    H261569   1.217   6.464  11.882 -1.8383  0.9858  0.6114
13360TIP3   OH261570   5.430   5.075   3.211  0.1360 -0.3925  0.0236
13360TIP3    H161571   5.475   5.090   3.294 -0.0654 -3.3155  0.7851
13360TIP3    H261572   5.420   5.162   3.173  1.4944  0.9094  2.3857
13361TIP3   OH261573   6.326   3.608  15.218  0.3741  0.1597  0.1180
13361TIP3    H161574   6.252   3.601  15.278 -0.1072  1.4450 -0.2860
13361TIP3    H261575   6.395   3.554  15.257 -0.4363 -0.2362  1.0207
13362TIP3   OH261576   2.802   3.123   5.916 -0.2258 -0.1754  0.0135
13362TIP3    H161577   2.736   3.058   5.942 -1.5531  0.5900 -1.2580
13362TIP3    H261578   2.833   3.160   5.998 -0.6177 -1.2857  0.6931
13363TIP3   OH261579   2.492   0.528   4.367 -0.1011  0.0743  0.3438
13363TIP3    H161580   2.507   0.599   4.430  0.5907 -0.0719  0.3570
13363TIP3    H261581   2.579   0.511   4.330 -0.4439 -0.0803 -0.3976
13364TIP3   OH261582   2.159   2.420  16.055  0.1051  0.3531  0.0797
13364TIP3    H161583   2.064   2.408  16.053 -0.0059  1.2531 -1.1130
13364TIP3    H261584   2.173   2.479  16.130 -0.2403 -0.0248  0.4502
13365TIP3   OH261585   1.828   4.377   4.477  0.7638 -0.0097 -0.5651
13365TIP3    H161586   1.865   4.397   4.391  1.5332  0.3599 -0.1547
13365TIP3    H261587   1.817   4.462   4.519 -0.9031 -0.0692 -0.7987
13366TIP3   OH261588   0.712   4.412  16.154  0.3336  0.1424  0.2447
13366TIP3    H161589   0.657   4.481  16.193  3.2077  2.2241  0.9237
13366TIP3    H261590   0.716   4.435  16.061 -0.0486 -0.1139  0.1620
13367TIP3   OH261591   2.248   3.047   4.954  0.3083 -0.3948  0.0147
13367TIP3    H161592   2.278   3.127   4.911 -1.2060  0.0902 -0.2087
13367TIP3    H261593   2.326   2.991   4.958  1.5985  1.3331  0.8047
13368TIP3   OH261594   2.627   0.384  12.193 -0.4608  0.0557  0.0715
13368TIP3    H161595   2.674   0.304  12.168 -0.7287 -0.4693  1.1789
13368TIP3    H261596   2.680   0.421  12.263 -0.0420  1.1782 -0.8021
13369TIP3   OH261597   0.366   3.321   3.513  0.2505  0.0195  0.3263
13369TIP3    H161598   0.422   3.387   3.553 -0.5068  2.1157 -1.8488
13369TIP3    H261599   0.412   3.238   3.528  2.0344  1.2041  1.7805
13370TIP3   OH261600   0.921   3.187   3.557 -0.8085 -0.2727  0.0352
13370TIP3    H161601   0.933   3.181   3.462 -1.5275  2.0017 -0.2657
13370TIP3    H261602   0.903   3.097   3.585  0.7233 -1.2045 -1.7680
13371TIP3   OH261603   1.530   1.903  16.335 -0.5023 -0.2604 -0.4831
13371TIP3    H161604   1.620   1.893  16.367 -0.4492 -0.7907 -0.7866
13371TIP3    H261605   1.524   1.994  16.308 -0.8838  0.5482  2.0789
13372TIP3   OH261606   4.726   5.627  11.427 -0.4303  0.4395 -0.2515
13372TIP3    H161607   4.706   5.576  11.349  0.3384 -0.5071  0.1472
13372TIP3    H261608   4.725   5.563  11.498 -0.6368  1.2002  0.4504
13373TIP3   OH261609   0.640   6.306  11.037 -0.1616  0.1977 -0.0398
13373TIP3    H161610   0.698   6.322  11.111 -1.6310 -1.8547  1.6822
13373TIP3    H261611   0.698   6.284  10.965  1.2463 -0.1946  1.1760
13374TIP3   OH261612   5.829   3.400  14.162  0.1245 -0.3696 -0.0544
13374TIP3    H161613   5.899   3.354  14.208  0.5893  0.7603  0.4207
13374TIP3    H261614   5.871   3.440  14.086  0.7743  2.7822  1.7592
13375TIP3   OH261615   2.325   2.190   0.164  0.2720 -0.1750 -0.1954
13375TIP3    H161616   2.318   2.142   0.082  1.5337  0.1312 -0.5182
13375TIP3    H261617   2.415   2.223   0.164 -0.5668  2.3690 -0.1079
13376TIP3   OH261618   4.910   0.413  13.675  0.3699 -0.3762  0.4003
13376TIP3    H161619   4.909   0.481  13.608 -0.2062 -1.3700 -0.6211
13376TIP3    H261620   4.871   0.455  13.752 -1.5230  0.0013 -0.6950
13377TIP3   OH261621   1.470   6.205   5.749 -1.1682  0.0464  0.3471
13377TIP3    H161622   1.477   6.296   5.778 -1.4712 -0.5252  2.3202
13377TIP3    H261623   1.556   6.167   5.769 -1.6779 -0.5937  1.3602
13378TIP3   OH261624   2.635   2.651   2.571 -0.9542 -0.3766 -0.2063
13378TIP3    H161625   2.728   2.632   2.578 -0.9647  0.0847  1.6789
13378TIP3    H261626   2.594   2.567   2.551 -0.2811 -0.9110  0.6155
13379TIP3   OH261627   6.142   1.159   2.743 -0.3372  0.1866  0.4515
13379TIP3    H161628   6.111   1.179   2.655 -0.6862  0.0205  0.5349
13379TIP3    H261629   6.064   1.131   2.790 -0.2882  0.9473  1.0127
13380TIP3   OH261630   2.377   4.535   0.757 -0.2083 -0.2848 -0.2028
13380TIP3    H161631   2.404   4.609   0.811 -0.7703  1.4473 -2.1916
13380TIP3    H261632   2.451   4.474   0.763  1.1425  1.2779 -0.0462
13381TIP3   OH261633   4.872   5.971   1.320  0.7412 -0.2051  0.0929
13381TIP3    H161634   4.919   5.894   1.289  1.5062 -0.1174  1.0007
13381TIP3    H261635   4.913   5.992   1.403  0.1355  0.8280  0.1427
13382TIP3   OH261636   6.821   0.889   4.787  0.7039  0.2313 -0.0493
13382TIP3    H161637   6.852   0.856   4.871  0.8973 -0.4052 -0.3643
13382TIP3    H261638   6.726   0.897   4.799  0.9159  1.9150  0.8182
13383TIP3   OH261639   0.659   3.577   1.633  0.2362  0.5640 -0.2489
13383TIP3    H161640   0.572   3.604   1.662 -0.0568  0.8407 -1.3204
13383TIP3    H261641   0.680   3.501   1.687 -1.1772 -0.2265 -0.7423
13384TIP3   OH261642   1.437   3.233  11.354 -0.4785  0.4656  0.5054
13384TIP3    H161643   1.464   3.299  11.289 -0.5288  1.3484  1.3602
13384TIP3    H261644   1.363   3.188  11.312 -2.1120  2.6540  0.8581
13385TIP3   OH261645   3.989   3.289   2.585 -0.2731  0.3380 -0.4905
13385TIP3    H161646   3.994   3.226   2.657 -1.6808  2.8443  1.9835
13385TIP3    H261647   4.067   3.271   2.532  0.5661 -1.9480  1.3464
13386TIP3   OH261648   3.308   6.138   2.607  0.2641  0.1249  0.0140
13386TIP3    H161649   3.372   6.207   2.623 -2.0861  1.8438  3.0144
13386TIP3    H261650   3.250   6.174   2.539  0.1136  0.3536  0.2600
13387TIP3   OH261651   0.969   5.609  15.224  0.1128  0.7328  0.0891
13387TIP3    H161652   0.879   5.614  15.192 -0.4889  1.7075  1.8028
13387TIP3    H261653   1.022   5.600  15.145 -1.2972  2.7775 -1.1934
13388TIP3   OH261654   6.629   4.913   1.547 -0.3582  0.4727  0.6101
13388TIP3    H161655   6.695   4.958   1.495 -1.2494  0.2928 -0.7075
13388TIP3    H261656   6.568   4.981   1.573 -1.9886  0.0748 -1.8082
13389TIP3   OH261657   5.387   6.721   5.856 -0.0294  0.4992  0.2441
13389TIP3    H161658   5.411   6.792   5.915  2.0478 -0.3135  0.4722
13389TIP3    H261659   5.395   6.759   5.769  0.7548  0.6587  0.3741
13390TIP3   OH261660   2.781   3.446   5.727  0.5298 -0.0208  0.0181
13390TIP3    H161661   2.789   3.515   5.661 -0.4614  0.2368  0.1512
13390TIP3    H261662   2.750   3.492   5.806 -0.6196 -0.6621 -0.0297
13391TIP3   OH261663   1.488   1.919  14.394  0.5159  0.2248  0.3784
13391TIP3    H161664   1.467   1.983  14.463  1.3658  2.0782 -1.0035
13391TIP3    H261665   1.583   1.909  14.400  0.3799 -1.0125  0.6263
13392TIP3   OH261666   6.371   1.793   4.803  0.5435  0.2799 -0.0546
13392TIP3    H161667   6.466   1.797   4.811  0.7074  0.7628 -1.7395
13392TIP3    H261668   6.346   1.881   4.773 -0.4340  0.1697  0.4138
13393TIP3   OH261669   6.156   1.764  12.711 -0.0158  0.2321  0.3475
13393TIP3    H161670   6.070   1.732  12.740  0.6674  0.9450  3.5478
13393TIP3    H261671   6.136   1.845  12.664 -1.1615  0.0745  0.5132
13394TIP3   OH261672   5.809   5.294  11.060 -0.5080  0.1198  0.0624
13394TIP3    H161673   5.734   5.335  11.018 -1.9587  0.2176  2.5266
13394TIP3    H261674   5.853   5.246  10.990 -1.5254  1.8918 -1.9220
13395TIP3   OH261675   1.634   5.114   4.476 -0.5216 -0.1059  0.0607
13395TIP3    H161676   1.551   5.089   4.516 -0.1292 -0.4610  0.6690
13395TIP3    H261677   1.626   5.208   4.459 -0.3955  0.2389  1.7533
13396TIP3   OH261678   1.918   5.122   2.781 -0.0285  0.2477 -0.5891
13396TIP3    H161679   1.889   5.109   2.691 -1.0440  0.2762 -0.2695
13396TIP3    H261680   1.847   5.169   2.823  1.2789  2.0205 -0.2763
13397TIP3   OH261681   4.268   3.109  14.281 -0.2587 -0.3034  0.0460
13397TIP3    H161682   4.197   3.084  14.222 -0.4720  0.2234  0.0798
13397TIP3    H261683   4.347   3.099  14.229 -0.5025  0.8647 -0.5637
13398TIP3   OH261684   3.137   5.955   4.220 -0.6883 -0.0837 -0.3044
13398TIP3    H161685   3.155   5.874   4.172 -1.1464 -0.0770 -0.5021
13398TIP3    H261686   3.182   5.945   4.303  1.7210  0.6943 -1.4385
13399TIP3   OH261687   6.671   1.179  13.627  0.4271  0.1994  0.0484
13399TIP3    H161688   6.709   1.111  13.571  0.1101 -0.5651  0.7389
13399TIP3    H261689   6.581   1.151  13.642 -0.3427  1.7820 -1.2167
13400TIP3   OH261690   4.179   5.611  13.585 -0.6426  0.3217 -0.3705
13400TIP3    H161691   4.134   5.668  13.648 -0.9097 -2.4690  2.1831
13400TIP3    H261692   4.272   5.633  13.595 -0.7368  0.3083  0.5879
13401TIP3   OH261693   3.237   6.537   2.647 -0.5439  0.2120 -0.4369
13401TIP3    H161694   3.198   6.461   2.690  0.0338  0.8199  1.2497
13401TIP3    H261695   3.321   6.505   2.613 -0.4905 -0.0060 -0.1052
13402TIP3   OH261696   0.753   3.034   1.665 -0.3279  0.5150  0.2857
13402TIP3    H161697   0.822   3.089   1.628  0.5076 -0.2569  0.6574
13402TIP3    H261698   0.793   2.995   1.743 -0.3857 -1.7778 -0.7668
13403TIP3   OH261699   3.008   6.244  15.925 -0.4329 -0.2080 -0.3043
13403TIP3    H161700   2.975   6.281  15.844 -0.4964 -1.1783 -0.7393
13403TIP3    H261701   3.014   6.150  15.908 -0.3544 -0.4186  0.7791
13404TIP3   OH261702   0.415   2.429  15.280  0.0938  0.6339 -0.4746
13404TIP3    H161703   0.405   2.368  15.207 -0.7919  1.6335 -1.2105
13404TIP3    H261704   0.370   2.386  15.353 -0.0865  0.1775 -0.8467
13405TIP3   OH261705   6.353   2.748  12.771  0.2734 -0.3706 -0.5476
13405TIP3    H161706   6.261   2.775  12.763  0.3800  0.3459  0.5404
13405TIP3    H261707   6.371   2.750  12.865  1.8875  1.1327 -0.8337
13406TIP3   OH261708   0.942   6.227   1.552 -0.1950 -0.2272 -0.1349
13406TIP3    H161709   0.874   6.174   1.509 -1.4545  1.4274 -0.2747
13406TIP3    H261710   0.942   6.195   1.642 -0.5531 -0.8248 -0.3343
13407TIP3   OH261711   0.387   0.315   3.177  0.2628  0.0937 -0.3543
13407TIP3    H161712   0.436   0.342   3.099  0.3335  1.8756  0.2784
13407TIP3    H261713   0.452   0.271   3.232 -0.0094 -2.1448 -1.6985
13408TIP3   OH261714   4.497   2.579  10.946  0.0483 -0.4931 -0.1485
13408TIP3    H161715   4.472   2.548  10.859 -0.2835 -2.4924  0.6025
13408TIP3    H261716   4.414   2.588  10.993 -0.0321  2.9770 -0.6701
13409TIP3   OH261717   3.630   6.004  12.608  0.7121  0.0596  0.0929
13409TIP3    H161718   3.670   5.953  12.679  1.8757  0.2925 -0.3710
13409TIP3    H261719   3.609   6.088  12.648 -0.9399 -0.6338  0.7828
13410TIP3   OH261720   1.470   3.799  16.344 -0.5867 -0.7773  0.3694
13410TIP3    H161721   1.383   3.832  16.324 -0.2239 -0.8067 -1.3670
13410TIP3    H261722   1.485   3.730  16.280  1.6828  0.8985 -1.0531
13411TIP3   OH261723   0.534   1.130  12.067  0.1162 -0.0752  0.5102
13411TIP3    H161724   0.621   1.102  12.038 -0.2501 -0.6751 -0.0207
13411TIP3    H261725   0.486   1.148  11.987 -0.7327 -1.2209  0.7246
13412TIP3   OH261726   0.949   0.877   3.778  0.3927 -0.1403  0.4782
13412TIP3    H161727   0.950   0.824   3.858 -1.6326  0.0125  0.6723
13412TIP3    H261728   1.003   0.829   3.716 -0.4999 -1.8925  0.9974
13413TIP3   OH261729   0.781   1.827  11.467  0.0866 -0.8476  0.1971
13413TIP3    H161730   0.786   1.738  11.503 -0.8291  0.0614  2.8119
13413TIP3    H261731   0.860   1.836  11.414  0.7825 -2.8435  0.8058
13414TIP3   OH261732   6.221   4.229  12.316 -0.1947  0.3550 -0.5035
13414TIP3    H161733   6.260   4.225  12.228  0.3345  0.9832 -0.3051
13414TIP3    H261734   6.130   4.203  12.302  0.1660 -0.6851 -1.0473
13415TIP3   OH261735   1.838   6.153  12.462  0.0139  0.1524  0.5126
13415TIP3    H161736   1.914   6.189  12.508  0.5141 -0.6695  0.3529
13415TIP3    H261737   1.871   6.133  12.374 -0.1709 -0.9584  0.6897
13416TIP3   OH261738   0.076   5.665  17.152  0.0859 -0.1449 -0.2338
13416TIP3    H161739  -0.017   5.647  17.134 -0.1285 -1.4871  1.8895
13416TIP3    H261740   0.078   5.758  17.175 -0.8723 -0.2608  0.3951
13417TIP3   OH261741   5.215   1.728   0.561 -0.4585 -0.3918 -0.0942
13417TIP3    H161742   5.188   1.800   0.617  0.8265  1.2068 -1.4219
13417TIP3    H261743   5.277   1.767   0.499 -0.3325 -2.4666 -1.3943
13418TIP3   OH261744   5.018   0.548  12.702 -0.1678 -0.2695  0.4274
13418TIP3    H161745   4.963   0.601  12.644  0.7154  0.9103  0.6419
13418TIP3    H261746   5.067   0.491  12.643  0.8559  1.0465 -0.0525
13419TIP3   OH261747   1.900   0.664   0.423 -0.0106 -0.0281  0.6637
13419TIP3    H161748   1.850   0.583   0.432 -0.1132  0.2056  2.5532
13419TIP3    H261749   1.857   0.711   0.352 -1.8856 -0.2818  1.5782
13420TIP3   OH261750   2.337   4.687   5.672  0.5435  0.3628  0.2513
13420TIP3    H161751   2.270   4.647   5.616 -0.0976  2.1960 -0.3467
13420TIP3    H261752   2.418   4.643   5.647 -0.1301 -0.6047 -0.3220
13421TIP3   OH261753   0.789   1.804  12.617  0.4979 -0.1440 -0.5749
13421TIP3    H161754   0.789   1.721  12.665 -1.3942  0.6154  0.8606
13421TIP3    H261755   0.827   1.782  12.532 -0.8867 -2.7185 -0.6306
13422TIP3   OH261756   5.399   3.549   1.191 -0.3359 -0.0764  0.1574
13422TIP3    H161757   5.347   3.497   1.251  0.4735 -1.0643  0.0341
13422TIP3    H261758   5.335   3.595   1.137 -1.0695 -0.5582  0.6021
13423TIP3   OH261759   4.766   5.508  11.681 -0.3220 -0.3916  0.0979
13423TIP3    H161760   4.693   5.553  11.723  0.5327  1.1714 -0.0111
13423TIP3    H261761   4.838   5.515  11.744  0.0369 -1.0037 -0.2295
13424TIP3   OH261762   5.553   5.454   3.394  0.0140  0.0445  0.1385
13424TIP3    H161763   5.641   5.490   3.387  0.2282 -0.5581 -0.3817
13424TIP3    H261764   5.532   5.425   3.305  0.2325 -1.9689  0.7028
13425TIP3   OH261765   4.889   5.278   1.728 -0.0111  0.1999 -0.9159
13425TIP3    H161766   4.900   5.205   1.789 -0.3973  0.0607 -1.0119
13425TIP3    H261767   4.974   5.324   1.729  0.1019 -0.0205 -0.5612
13426TIP3   OH261768   2.246   4.290  13.041 -0.0091  0.3044  0.5869
13426TIP3    H161769   2.193   4.251  12.972  2.7154 -1.0169 -0.9455
13426TIP3    H261770   2.196   4.277  13.121 -1.3725 -2.0655 -0.5628
13427TIP3   OH261771   0.776   1.584  14.543  0.0634 -0.4242 -0.1320
13427TIP3    H161772   0.735   1.659  14.587 -1.0535 -0.8152 -0.4692
13427TIP3    H261773   0.720   1.510  14.566 -0.4140 -0.6926 -1.9580
13428TIP3   OH261774   2.453   0.815  16.208 -0.2643  0.1552 -0.1331
13428TIP3    H161775   2.465   0.895  16.259  2.1345  0.4955 -1.0826
13428TIP3    H261776   2.533   0.764  16.225 -0.4728 -0.7555 -1.7156
13429TIP3   OH261777   5.713   4.737   4.716 -0.4838 -0.0229 -0.1855
13429TIP3    H161778   5.785   4.788   4.752 -0.0471  1.1231 -2.4338
13429TIP3    H261779   5.754   4.658   4.681 -0.5656 -0.1383 -0.0186
13430TIP3   OH261780   6.330   6.126   5.301 -0.0090  0.3261 -0.0446
13430TIP3    H161781   6.306   6.099   5.390  0.4295 -0.2729 -0.1044
13430TIP3    H261782   6.382   6.054   5.267 -1.2665 -0.0545 -1.2705
13431TIP3   OH261783   3.785   6.648   4.583 -0.4367 -0.4161 -0.2529
13431TIP3    H161784   3.876   6.618   4.585 -0.4709 -0.4924  0.9219
13431TIP3    H261785   3.790   6.739   4.611 -0.6134 -0.0556 -1.3326
13432TIP3   OH261786   6.664   2.692  15.491  0.0621  0.1407  0.0090
13432TIP3    H161787   6.747   2.727  15.457  0.4870 -2.6028 -2.1367
13432TIP3    H261788   6.689   2.612  15.537 -1.3423 -0.5058 -0.3271
13433TIP3   OH261789   5.315   1.563   3.641 -0.8337  0.0359  0.1088
13433TIP3    H161790   5.243   1.616   3.675 -3.0512 -1.8244 -1.3057
13433TIP3    H261791   5.311   1.482   3.692  0.3477 -0.0636  0.0617
13434TIP3   OH261792   0.646   2.900   3.113 -0.4609 -0.6088 -0.1953
13434TIP3    H161793   0.643   2.995   3.121  2.8724 -0.4385  0.5122
13434TIP3    H261794   0.704   2.884   3.038 -1.0222 -2.0775 -0.3557
13435TIP3   OH261795   1.009   1.981   1.894  0.6023  0.7416 -0.1433
13435TIP3    H161796   1.102   1.967   1.914  0.0786 -0.8393  1.3229
13435TIP3    H261797   0.975   2.028   1.970 -0.2465 -0.6077  0.3400
13436TIP3   OH261798   2.333   3.372  14.377  0.3203  0.3408 -0.0836
13436TIP3    H161799   2.308   3.328  14.297 -1.1124 -0.2859  0.6720
13436TIP3    H261800   2.328   3.304  14.445  3.1700  0.4001  0.3331
13437TIP3   OH261801   5.671   2.445  13.364  0.4615 -0.0025  0.2068
13437TIP3    H161802   5.706   2.405  13.285 -1.3218 -1.3604  0.0527
13437TIP3    H261803   5.700   2.389  13.436 -0.4140 -0.4975  0.1882
13438TIP3   OH261804   6.415   4.096   1.796 -0.4003  0.5481  0.0265
13438TIP3    H161805   6.427   4.159   1.725  0.6989 -0.5728 -0.8461
13438TIP3    H261806   6.427   4.011   1.754  2.6398 -0.1065  1.9088
13439TIP3   OH261807   4.574   5.662   6.512 -0.8339  0.3527 -0.1196
13439TIP3    H161808   4.548   5.753   6.505 -1.1086  0.3008  0.2557
13439TIP3    H261809   4.618   5.644   6.428 -0.1734  1.0185  0.0730
13440TIP3   OH261810   3.073   2.561  10.883  0.8803  0.0990 -0.1232
13440TIP3    H161811   3.023   2.642  10.890 -0.5329 -0.8718  1.9059
13440TIP3    H261812   3.054   2.529  10.795 -0.2376  0.9004 -0.2021
13441TIP3   OH261813   1.308   0.152  13.916 -0.0642  0.1437  0.5751
13441TIP3    H161814   1.392   0.108  13.920 -0.0817  0.1855  1.9789
13441TIP3    H261815   1.244   0.083  13.936 -0.3349  0.1925 -0.1072
13442TIP3   OH261816   2.426   4.182  14.057 -0.6751  0.0773 -0.4187
13442TIP3    H161817   2.493   4.247  14.034 -1.3865  1.0707  0.2166
13442TIP3    H261818   2.378   4.222  14.129 -0.0662 -1.9248  1.1556
13443TIP3   OH261819   4.449   4.397  10.793 -0.3138 -0.4469  0.2034
13443TIP3    H161820   4.422   4.343  10.867 -0.7347  0.7333  0.9425
13443TIP3    H261821   4.542   4.416  10.810 -1.1036  2.3720  2.1820
13444TIP3   OH261822   4.235   6.425   5.046  0.2849 -0.5414  0.2890
13444TIP3    H161823   4.198   6.477   4.975  2.0774  1.0828  0.4779
13444TIP3    H261824   4.225   6.335   5.017  0.3917  0.0542 -1.7306
13445TIP3   OH261825   1.307   4.602  15.230  0.5435 -0.0693  0.6699
13445TIP3    H161826   1.275   4.571  15.315 -1.4078 -0.0628 -0.0231
13445TIP3    H261827   1.396   4.568  15.225 -0.1022 -2.0917  1.7167
13446TIP3   OH261828   0.684   0.890  14.031 -0.0088 -0.2645  0.3920
13446TIP3    H161829   0.665   0.900  14.124  0.4731  1.9359  0.3177
13446TIP3    H261830   0.607   0.926  13.987  0.5726  0.5034 -0.0187
13447TIP3   OH261831   1.400   6.128   6.331 -0.1716 -0.2710 -0.9246
13447TIP3    H161832   1.311   6.132   6.368  0.3748 -1.1914  0.5596
13447TIP3    H261833   1.399   6.051   6.274 -0.1554 -0.6254 -0.4456
13448TIP3   OH261834   6.837   2.780   1.379  0.1765 -0.4403 -0.4295
13448TIP3    H161835   6.747   2.813   1.383  0.2628  0.3866 -3.2662
13448TIP3    H261836   6.886   2.849   1.334  1.5471 -2.2092 -1.7860
13449TIP3   OH261837   0.706   0.669  13.044  0.0590 -0.6541 -0.2894
13449TIP3    H161838   0.720   0.592  12.988  0.2654 -1.1708  0.4484
13449TIP3    H261839   0.686   0.632  13.130 -1.9436  0.0864 -0.3658
13450TIP3   OH261840   6.712   3.254  12.275 -0.0761 -0.2040  0.3290
13450TIP3    H161841   6.762   3.248  12.193 -0.2545 -0.3206  0.2264
13450TIP3    H261842   6.623   3.276  12.247  0.1973  1.3075  0.6035
13451TIP3   OH261843   1.021   4.685  11.104 -0.6436 -0.0568  0.1028
13451TIP3    H161844   1.062   4.645  11.181  0.7090  1.7883  0.4022
13451TIP3    H261845   0.945   4.730  11.138 -0.6478 -0.1309  0.1917
13452TIP3   OH261846   2.551   0.266  15.566  0.2787  0.2036  0.7675
13452TIP3    H161847   2.477   0.327  15.567  0.6547  0.7089  2.6299
13452TIP3    H261848   2.618   0.310  15.514 -1.0352 -0.7282 -1.8615
13453TIP3   OH261849   5.551   5.854   0.523  0.3089  0.6380  0.5152
13453TIP3    H161850   5.472   5.864   0.576 -0.3272 -0.2563 -0.2203
13453TIP3    H261851   5.533   5.905   0.444 -0.9100 -2.0150 -1.0611
13454TIP3   OH261852   5.327   5.911   4.869 -0.3500  0.2227 -0.1949
13454TIP3    H161853   5.264   5.885   4.802 -1.6250  2.1641  0.1881
13454TIP3    H261854   5.333   5.835   4.927 -2.4699  0.0192 -0.1690
13455TIP3   OH261855   1.300   4.447   4.054  0.2251  0.9422  0.1949
13455TIP3    H161856   1.293   4.452   4.150 -0.3975 -0.9448  0.2652
13455TIP3    H261857   1.292   4.538   4.026  1.2990  1.6645  1.9762
13456TIP3   OH261858   2.325   5.274  12.039 -0.2252 -0.4407 -0.0797
13456TIP3    H161859   2.398   5.323  12.000  0.9394 -1.8616  0.2494
13456TIP3    H261860   2.366   5.212  12.098 -1.7204 -1.2716  0.1350
13457TIP3   OH261861   5.835   3.248   4.860  0.0987  0.2693 -0.0050
13457TIP3    H161862   5.786   3.313   4.910  0.9201  1.1999 -0.3660
13457TIP3    H261863   5.780   3.231   4.783 -0.0747  0.6278  0.0378
13458TIP3   OH261864   6.756   2.377   6.254  0.0543 -0.5341  0.0361
13458TIP3    H161865   6.804   2.460   6.258 -0.5910 -0.1634  0.2907
13458TIP3    H261866   6.750   2.348   6.345 -0.1749 -0.5937  0.0021
13459TIP3   OH261867   5.250   0.605   0.701  0.0434 -0.3126  0.2484
13459TIP3    H161868   5.206   0.643   0.625 -0.5620 -0.5348  0.4763
13459TIP3    H261869   5.342   0.625   0.689 -0.2050  0.8365  0.1268
13460TIP3   OH261870   6.265   0.571  13.725 -0.3643  0.1147 -0.3697
13460TIP3    H161871   6.229   0.660  13.720 -0.7093  0.0872  1.1864
13460TIP3    H261872   6.354   0.584  13.758 -0.8171 -0.1721  1.0306
13461TIP3   OH261873   6.747   3.797   0.697  0.0521  0.4908 -0.1302
13461TIP3    H161874   6.764   3.789   0.603  0.1614  0.5412 -0.1155
13461TIP3    H261875   6.823   3.755   0.738  0.7957  1.8714 -0.0494
13462TIP3   OH261876   1.170   2.822  16.629  0.5045  0.3648  0.0301
13462TIP3    H161877   1.103   2.869  16.680  0.3610 -0.2376  0.4006
13462TIP3    H261878   1.169   2.733  16.664  1.3650  0.2970 -0.0931
13463TIP3   OH261879   5.539   1.736  13.757  0.5305  0.0593 -0.2021
13463TIP3    H161880   5.449   1.757  13.730  1.4384  3.1165 -1.2132
13463TIP3    H261881   5.533   1.727  13.852 -0.9870 -0.8055 -0.3410
13464TIP3   OH261882   3.123   0.367  13.530 -0.3282  0.0465  0.8363
13464TIP3    H161883   3.112   0.303  13.460 -1.3502  1.6630 -0.5776
13464TIP3    H261884   3.214   0.397  13.520 -0.3199 -0.0790  0.5028
13465TIP3   OH261885   4.270   4.644   5.388  0.1163 -0.0410  0.6791
13465TIP3    H161886   4.269   4.731   5.428 -3.7353 -0.4233  1.8124
13465TIP3    H261887   4.306   4.587   5.456  1.8163  0.4596  0.2519
13466TIP3   OH261888   6.793   6.309   1.475  0.4782  0.2881 -0.6884
13466TIP3    H161889   6.885   6.316   1.451  1.1132 -0.7732  1.2399
13466TIP3    H261890   6.787   6.228   1.525 -1.6636 -0.0424 -1.3689
13467TIP3   OH261891   5.407   6.184   6.153 -0.1357 -0.3538 -0.2591
13467TIP3    H161892   5.462   6.262   6.153 -0.5064 -0.0527  1.0746
13467TIP3    H261893   5.346   6.197   6.080  1.4030 -0.6151 -1.6433
13468TIP3   OH261894   6.810   2.882  15.357  0.0852 -0.0473 -0.2155
13468TIP3    H161895   6.787   2.952  15.418 -2.4583 -0.5212 -0.4913
13468TIP3    H261896   6.735   2.878  15.297  0.3057 -2.7439 -0.4306
13469TIP3   OH261897   0.060   2.773   5.218  0.8488  0.4315  0.1647
13469TIP3    H161898  -0.032   2.778   5.242  0.3193  0.1677 -1.7221
13469TIP3    H261899   0.098   2.713   5.283 -1.2907 -3.3398 -1.7195
13470TIP3   OH261900   0.071   4.679   6.331  0.1161 -0.2283 -0.0982
13470TIP3    H161901   0.058   4.682   6.236 -0.3290  2.2242 -0.0356
13470TIP3    H261902   0.164   4.657   6.342  0.0553 -1.0282 -1.0700
13471TIP3   OH261903   0.832   0.772  16.264  0.4777 -0.1507  0.0583
13471TIP3    H161904   0.915   0.788  16.220 -0.9032  1.5987 -2.0604
13471TIP3    H261905   0.780   0.720  16.202 -0.9216  0.9428  0.2618
13472TIP3   OH261906   4.693   6.744  11.803  0.4488  0.6795  0.4579
13472TIP3    H161907   4.650   6.788  11.876 -1.1240 -0.4417  0.2913
13472TIP3    H261908   4.635   6.761  11.728  0.1848 -0.9513  0.2383
13473TIP3   OH261909   2.170   2.805  13.690 -0.1929  0.3310  0.0619
13473TIP3    H161910   2.166   2.781  13.783  0.3537  0.4363  0.1137
13473TIP3    H261911   2.100   2.870  13.680 -1.0877 -0.6088  0.1162
13474TIP3   OH261912   2.191   1.244  12.233 -0.3943 -0.3745 -0.8168
13474TIP3    H161913   2.095   1.249  12.236 -0.3585  0.3478 -0.7539
13474TIP3    H261914   2.212   1.161  12.277 -0.9557 -0.2136 -0.2261
13475TIP3   OH261915   4.094   4.863   2.229  0.5186  0.1983 -0.0894
13475TIP3    H161916   4.129   4.780   2.263 -0.7157 -0.8374 -1.2263
13475TIP3    H261917   4.163   4.927   2.247  0.3061 -0.3647  3.6153
13476TIP3   OH261918   5.260   6.297   2.491 -0.2932 -0.5167 -0.1060
13476TIP3    H161919   5.288   6.360   2.558  0.3997  1.3245 -2.0101
13476TIP3    H261920   5.169   6.319   2.474 -0.0675 -0.0312 -0.7302
13477TIP3   OH261921   1.660   0.927  13.464 -0.3446 -0.1243  0.1843
13477TIP3    H161922   1.602   0.881  13.403  0.7900 -2.5069  0.7722
13477TIP3    H261923   1.603   0.956  13.535 -0.8205 -3.4585  1.3564
13478TIP3   OH261924   5.907   3.915   2.216 -0.3581  0.0137  0.2267
13478TIP3    H161925   5.813   3.932   2.229 -0.5882 -0.7911 -0.2640
13478TIP3    H261926   5.928   3.847   2.280 -0.4035 -0.6590 -0.4555
13479TIP3   OH261927   4.523   5.450   4.743 -0.3469  0.6805  0.2651
13479TIP3    H161928   4.451   5.393   4.716  0.3334  0.8042 -2.0547
13479TIP3    H261929   4.574   5.397   4.803 -0.8664 -0.4068 -0.2226
13480TIP3   OH261930   0.746   0.471  12.869  0.6484 -0.3707 -0.1245
13480TIP3    H161931   0.839   0.450  12.857  0.5247  0.2494 -2.8287
13480TIP3    H261932   0.699   0.395  12.833  0.1629  0.2939 -0.9447
13481TIP3   OH261933   2.219   1.523   3.000  0.3053  0.5628  0.5951
13481TIP3    H161934   2.177   1.580   2.936  0.3075 -1.1091 -1.0057
13481TIP3    H261935   2.161   1.524   3.075 -1.2055  0.4280 -0.5206
13482TIP3   OH261936   2.773   0.065   4.289  0.7575  0.7421  0.0392
13482TIP3    H161937   2.818   0.078   4.206  0.4663 -1.2549 -0.4851
13482TIP3    H261938   2.681   0.084   4.270  0.3878 -1.3938 -0.6383
13483TIP3   OH261939   1.497   4.792  16.528 -0.7704 -0.3286 -0.6198
13483TIP3    H161940   1.575   4.846  16.543 -0.0847 -1.4926  0.2754
13483TIP3    H261941   1.486   4.791  16.433 -0.9141  1.4926 -0.6523
13484TIP3   OH261942   3.822   0.933   5.650  0.1063  0.7952  0.3867
13484TIP3    H161943   3.734   0.948   5.614  0.2600  1.0895  0.1277
13484TIP3    H261944   3.880   0.935   5.574  0.0217 -2.6248  0.0835
13485TIP3   OH261945   5.549   6.743  16.624 -0.5575 -0.4352 -0.1717
13485TIP3    H161946   5.643   6.728  16.629 -0.1749  1.7066 -0.1294
13485TIP3    H261947   5.531   6.808  16.692 -2.3674 -1.9413  0.9063
13486TIP3   OH261948   4.499   1.083   5.305  0.4490  0.2626 -0.3663
13486TIP3    H161949   4.593   1.076   5.289  0.9683  0.9618  1.9496
13486TIP3    H261950   4.482   1.018   5.374 -0.6377  0.5981 -0.3052
13487TIP3   OH261951   4.746   1.401   4.509 -0.2882  0.0705  0.4629
13487TIP3    H161952   4.747   1.353   4.591 -0.8194  0.8441  0.9367
13487TIP3    H261953   4.737   1.493   4.535 -2.0965  0.2049 -0.4854
13488TIP3   OH261954   6.386   3.535  13.587 -0.0607  0.7525  0.0543
13488TIP3    H161955   6.330   3.586  13.529 -0.6509 -0.1398 -0.1889
13488TIP3    H261956   6.382   3.446  13.551  0.1413  0.3327  1.0496
13489TIP3   OH261957   6.590   6.662  11.696 -0.5404  0.2795 -0.2728
13489TIP3    H161958   6.576   6.746  11.652  3.6636  0.8892 -0.8356
13489TIP3    H261959   6.662   6.679  11.757 -1.7826 -2.1870  2.0583
13490TIP3   OH261960   6.756   6.610  14.986 -0.0231  0.7951 -0.2137
13490TIP3    H161961   6.827   6.549  15.008 -0.7206 -0.9643 -2.4222
13490TIP3    H261962   6.712   6.570  14.911 -2.3161  2.6772 -0.0062
13491TIP3   OH261963   4.561   0.931   4.519 -0.5970 -0.1804  0.0493
13491TIP3    H161964   4.486   0.883   4.554 -0.6227  0.1698  0.4836
13491TIP3    H261965   4.539   1.023   4.533 -0.5162 -0.0427 -0.7118
13492TIP3   OH261966   5.395   3.475  15.861 -0.0896 -0.0204 -0.1868
13492TIP3    H161967   5.480   3.434  15.846 -0.8416 -1.5913 -0.3929
13492TIP3    H261968   5.408   3.531  15.938  1.3196  0.4207 -0.7227
13493TIP3   OH261969   3.058   1.264  16.310 -0.1365  0.5930 -0.4757
13493TIP3    H161970   2.979   1.210  16.313  1.6307 -2.1873 -0.1193
13493TIP3    H261971   3.072   1.281  16.217 -0.3365 -0.2621 -0.6763
13494TIP3   OH261972   0.742   1.352  12.710 -0.1349 -0.2873 -0.0834
13494TIP3    H161973   0.728   1.443  12.738  1.6319  0.0053 -0.0351
13494TIP3    H261974   0.677   1.338  12.641 -0.0981  1.1977 -0.4645
13495TIP3   OH261975   4.745   2.494  10.920 -0.2760 -0.1077  0.1227
13495TIP3    H161976   4.682   2.423  10.936  0.6587 -0.7825  0.9479
13495TIP3    H261977   4.707   2.570  10.963 -1.5654  0.0638 -1.2413
13496TIP3   OH261978   0.811   4.132   2.068  0.8572  0.1075  0.0094
13496TIP3    H161979   0.792   4.095   1.982 -0.7770  0.1085  0.3364
13496TIP3    H261980   0.906   4.146   2.068  0.9966 -0.6579 -1.4717
13497TIP3   OH261981   5.533   0.491   0.019  0.0910  0.0767 -0.2641
13497TIP3    H161982   5.578   0.526  -0.057  1.6790 -1.0138  0.1193
13497TIP3    H261983   5.453   0.544   0.027  0.9388  1.5897 -1.4114
13498TIP3   OH261984   0.922   3.956   5.809 -0.3953  0.2790 -0.3778
13498TIP3    H161985   0.969   3.987   5.731 -0.0040  0.4293 -0.0878
13498TIP3    H261986   0.853   3.899   5.775  0.2245 -0.2415 -0.7959
13499TIP3   OH261987   0.652   4.347   4.277  1.1211  0.5888  0.1442
13499TIP3    H161988   0.653   4.395   4.194 -0.0889  0.4362  0.0225
13499TIP3    H261989   0.584   4.281   4.266  1.2129  0.3141  1.1190
13500TIP3   OH261990   2.934   1.891   1.120 -0.4661 -0.0598 -0.3649
13500TIP3    H161991   2.999   1.886   1.050 -0.5011 -0.0035 -0.4016
13500TIP3    H261992   2.933   1.984   1.145  0.2975 -0.2445  0.4194
13501TIP3   OH261993   5.541   2.643   2.975  0.2244 -0.0022 -0.3062
13501TIP3    H161994   5.567   2.577   2.911  1.3010  0.0157  0.0965
13501TIP3    H261995   5.462   2.607   3.015 -0.6969  0.1646 -1.9037
13502TIP3   OH261996   1.683   2.836   1.054  0.0808 -0.2174  0.1794
13502TIP3    H161997   1.622   2.765   1.073  0.3745 -0.9843 -1.5440
13502TIP3    H261998   1.652   2.872   0.970  2.5496 -1.3134 -1.3090
13503TIP3   OH261999   4.265   0.662  12.921  0.6534  0.1599  0.0455
13503TIP3    H162000   4.238   0.679  12.831 -0.5611  0.1483  0.3913
13503TIP3    H262001   4.261   0.566  12.929  1.4070  0.1136 -0.0755
13504TIP3   OH262002   6.455   5.804   0.982 -0.0281 -0.5719 -0.2008
13504TIP3    H162003   6.460   5.836   1.072 -1.2581  2.4681 -1.0939
13504TIP3    H262004   6.361   5.799   0.963  0.2143 -0.1486 -1.6213
13505TIP3   OH262005   2.795   0.917  15.150 -0.5783 -0.0481  0.0123
13505TIP3    H162006   2.729   0.921  15.080  2.2214 -0.6814 -2.9136
13505TIP3    H262007   2.804   1.007  15.179 -0.6955  0.5331 -1.6411
13506TIP3   OH262008   0.616   5.389  13.627  0.1528 -0.6835 -0.0879
13506TIP3    H162009   0.669   5.355  13.699  0.0510 -0.8436 -0.0888
13506TIP3    H262010   0.679   5.433  13.570  0.6846 -2.7681 -1.2574
13507TIP3   OH262011   0.677   0.803   4.853 -0.3915  0.2170 -0.1308
13507TIP3    H162012   0.601   0.853   4.824 -1.1394 -0.1071  1.2012
13507TIP3    H262013   0.663   0.715   4.818 -0.3112  0.3079 -0.3961
13508TIP3   OH262014   2.586   3.802   0.750  0.2103 -0.4635  0.2781
13508TIP3    H162015   2.504   3.779   0.706  0.1631 -1.7292  0.9651
13508TIP3    H262016   2.625   3.717   0.773  0.5709  0.1430  2.0338
13509TIP3   OH262017   5.888   5.416  14.272 -0.4518  0.3585 -0.1564
13509TIP3    H162018   5.979   5.388  14.262 -0.2217  0.6785  0.9569
13509TIP3    H262019   5.837   5.337  14.253  0.1756 -0.7435  2.3175
13510TIP3   OH262020   6.499   6.324  15.011  0.2111 -0.2797 -0.1121
13510TIP3    H162021   6.520   6.286  14.926  0.0839  0.1788 -0.3527
13510TIP3    H262022   6.446   6.402  14.991 -1.0280 -0.9431  0.4402
13511TIP3   OH262023   0.935   3.825  16.348 -0.3959 -0.0864  0.1696
13511TIP3    H162024   0.908   3.734  16.341 -1.1808 -0.0076  1.6608
13511TIP3    H262025   0.860   3.870  16.388 -0.7589  1.6181 -2.2353
13512TIP3   OH262026   3.860   1.172   4.710  0.2173  0.0178  0.0398
13512TIP3    H162027   3.858   1.258   4.667  0.2312 -0.9563 -2.0302
13512TIP3    H262028   3.893   1.190   4.798  0.5979  2.0753 -0.4707
13513TIP3   OH262029   4.797   3.231  16.466  0.2809  0.3065 -0.3544
13513TIP3    H162030   4.835   3.162  16.413  0.5261 -0.0460  0.2769
13513TIP3    H262031   4.860   3.246  16.536  0.1388  1.0287 -0.3664
13514TIP3   OH262032   0.210   2.328  11.475  0.1882  0.3675  0.0144
13514TIP3    H162033   0.274   2.279  11.424  0.0872  0.2426  0.0071
13514TIP3    H262034   0.194   2.407  11.424  1.4011  1.0854  0.6936
13515TIP3   OH262035   1.080   3.039  15.480 -0.7592  0.4841  0.1384
13515TIP3    H162036   1.010   2.981  15.511  0.7922 -1.2538  0.5923
13515TIP3    H262037   1.074   3.035  15.385 -2.8884  2.4800  0.1145
13516TIP3   OH262038   6.496   4.774   4.250 -0.0954 -0.3259  0.0339
13516TIP3    H162039   6.490   4.853   4.303 -2.0694  0.2372 -0.9690
13516TIP3    H262040   6.480   4.702   4.312  0.1292  0.1459  0.6467
13517TIP3   OH262041   5.771   6.740  13.668 -0.2168 -0.0320  0.1563
13517TIP3    H162042   5.721   6.820  13.651 -0.6176 -0.1071  0.9326
13517TIP3    H262043   5.728   6.701  13.744 -0.3026 -1.2221 -0.4760
13518TIP3   OH262044   2.961   3.265   4.954 -0.1885  0.3260 -0.0061
13518TIP3    H162045   2.889   3.325   4.934  0.2791  0.6943 -0.6431
13518TIP3    H262046   2.924   3.202   5.015 -1.2872  0.0471 -0.9195
13519TIP3   OH262047   0.804   4.134   6.561  0.4542 -0.4612  0.4440
13519TIP3    H162048   0.814   4.047   6.522 -0.5184 -0.5444  0.3660
13519TIP3    H262049   0.765   4.187   6.491 -0.2891 -0.3303  0.9492
13520TIP3   OH262050   5.823   6.221  12.403  0.0610 -0.4187  0.2231
13520TIP3    H162051   5.820   6.173  12.320 -2.3883  0.4543 -0.2851
13520TIP3    H262052   5.779   6.164  12.466  0.5247 -0.4248  0.5470
13521TIP3   OH262053   2.440   3.617   4.395  0.8208  0.0874  0.2074
13521TIP3    H162054   2.405   3.582   4.313  1.3922  1.3359 -0.6075
13521TIP3    H262055   2.523   3.571   4.407  1.5771  1.1049 -0.8635
13522TIP3   OH262056   3.176   4.192  15.009 -0.7459  0.2018  0.2617
13522TIP3    H162057   3.131   4.206  15.092 -0.7254 -0.3176  0.3645
13522TIP3    H262058   3.256   4.244  15.016 -1.3183  1.1463  0.0730
13523TIP3   OH262059   3.305   1.039  12.736 -0.0690 -0.1213 -0.0720
13523TIP3    H162060   3.285   1.116  12.789  0.7270  0.4714 -0.6132
13523TIP3    H262061   3.296   0.965  12.796 -0.5934  0.4107  0.5187
13524TIP3   OH262062   4.547   6.277   4.861  0.1573  0.5524  0.1521
13524TIP3    H162063   4.474   6.315   4.811  0.7611  0.6100 -0.7034
13524TIP3    H262064   4.517   6.281   4.952 -1.0104  0.3428 -0.2004
13525TIP3   OH262065   1.604   0.976   1.641  0.3497  0.0041 -0.6836
13525TIP3    H162066   1.583   1.068   1.650  1.1852  0.1074  0.5084
13525TIP3    H262067   1.681   0.974   1.584  1.2596  0.1880  0.5042
13526TIP3   OH262068   3.004   1.323   3.359 -0.0228 -0.2121 -0.0599
13526TIP3    H162069   2.912   1.344   3.373  0.2328  0.0770  1.3142
13526TIP3    H262070   3.033   1.286   3.442  1.3095  0.4592 -0.2058
13527TIP3   OH262071   6.644   2.986   5.442 -0.6680  0.0711  0.3122
13527TIP3    H162072   6.610   2.961   5.528 -1.2804  0.2015  0.1157
13527TIP3    H262073   6.616   2.915   5.384 -0.3544  0.0393  0.1977
13528TIP3   OH262074   5.165   6.657  13.679  0.6339 -0.3608  0.1325
13528TIP3    H162075   5.138   6.592  13.615 -0.7151  0.4893 -0.1896
13528TIP3    H262076   5.108   6.642  13.755  0.9636 -0.1600  0.4260
13529TIP3   OH262077   2.911   0.952  11.499 -0.0977 -0.1390  0.1796
13529TIP3    H162078   2.865   1.023  11.545  0.2955 -0.6659  1.4338
13529TIP3    H262079   2.986   0.932  11.555 -1.2479 -2.8641  0.9192
13530TIP3   OH262080   6.252   5.579   4.725  0.0644 -0.0545 -0.1369
13530TIP3    H162081   6.161   5.581   4.696  0.2601 -1.5691 -0.9606
13530TIP3    H262082   6.247   5.553   4.817 -0.3217 -1.0695 -0.4256
13531TIP3   OH262083   3.720   5.471  14.727 -0.7196  0.7848 -0.1366
13531TIP3    H162084   3.762   5.397  14.684  2.5704  2.1439  0.4649
13531TIP3    H262085   3.656   5.503  14.663  0.8071  0.0115 -2.1470
13532TIP3   OH262086   0.801   5.256  13.324 -0.0427 -0.3460  0.5195
13532TIP3    H162087   0.781   5.181  13.267  2.1777  0.9883 -2.2859
13532TIP3    H262088   0.805   5.220  13.412 -1.5362 -2.9905 -0.3962
13533TIP3   OH262089   3.843   4.659   5.558 -0.2302  0.0853 -0.2103
13533TIP3    H162090   3.884   4.582   5.596  0.0959  0.1893 -0.3449
13533TIP3    H262091   3.801   4.628   5.478  1.9355  0.4602 -1.5604
13534TIP3   OH262092   0.707   5.225  11.723  0.0801 -0.0833  0.9114
13534TIP3    H162093   0.757   5.216  11.804  0.6556  1.8255  0.8323
13534TIP3    H262094   0.642   5.292  11.743 -1.2352 -1.1777  0.4271
13535TIP3   OH262095   6.032   2.973  15.294  0.5691 -0.0201  0.0094
13535TIP3    H162096   5.949   2.966  15.247 -1.2219 -0.7159  2.9814
13535TIP3    H262097   6.052   2.883  15.321  2.6139  0.0536 -1.0509
13536TIP3   OH262098   3.983   4.134   2.417  0.1389 -0.3028 -0.0658
13536TIP3    H162099   3.967   4.097   2.504  1.2265  1.1104  0.7705
13536TIP3    H262100   3.899   4.127   2.373 -1.9540  3.2243  2.7673
13537TIP3   OH262101   6.165   5.368   4.935 -0.2789 -0.2481 -0.2035
13537TIP3    H162102   6.224   5.377   5.011 -0.8157 -0.8952  0.3071
13537TIP3    H262103   6.205   5.298   4.883 -0.9508 -1.1963  0.5122
13538TIP3   OH262104   1.037   2.567   2.626 -0.3303  0.6506 -1.2487
13538TIP3    H162105   1.058   2.660   2.617 -0.0072  0.6379 -0.6488
13538TIP3    H262106   1.111   2.531   2.675 -1.1778  0.3664 -0.1591
13539TIP3   OH262107   1.308   1.066   1.664  0.8404  0.1607 -0.4487
13539TIP3    H162108   1.341   1.101   1.581 -0.7563  1.6420 -0.5307
13539TIP3    H262109   1.266   0.983   1.640  1.4677 -0.0247 -0.9149
13540TIP3   OH262110   2.724   1.177  14.986  0.8870 -0.4117  0.7925
13540TIP3    H162111   2.813   1.162  14.956  0.6073  0.0995 -0.3474
13540TIP3    H262112   2.715   1.273  14.986 -0.1809 -0.4664 -0.8001
13541TIP3   OH262113   3.743   5.873  16.920  0.7138 -0.4146 -0.0183
13541TIP3    H162114   3.784   5.854  16.835 -1.0398 -0.3842 -0.9098
13541TIP3    H262115   3.762   5.797  16.974 -0.3794 -1.6322 -1.3019
13542TIP3   OH262116   6.478   0.975  11.954 -0.5295 -0.2844 -0.6460
13542TIP3    H162117   6.496   0.889  11.990 -1.1669 -0.0735  0.2040
13542TIP3    H262118   6.390   0.968  11.917 -0.4210 -0.1169 -0.9347
13543TIP3   OH262119   4.666   2.365   1.952 -0.1030 -0.1804 -0.0530
13543TIP3    H162120   4.648   2.322   2.036 -1.0558  0.4037  0.0656
13543TIP3    H262121   4.633   2.304   1.886 -1.9185  0.5147  0.1314
13544TIP3   OH262122   1.587   2.354   1.126  0.2805 -0.2059 -0.3463
13544TIP3    H162123   1.492   2.361   1.134  0.4556  2.0547  0.3130
13544TIP3    H262124   1.602   2.332   1.034 -0.8823 -1.4607 -0.2634
13545TIP3   OH262125   4.194   0.425   5.787  0.1319 -0.1831 -0.6202
13545TIP3    H162126   4.169   0.496   5.847  0.7780 -0.2951 -0.2028
13545TIP3    H262127   4.207   0.349   5.845  0.5208 -0.3564 -0.9317
13546TIP3   OH262128   0.761   4.814   0.492 -0.6840  0.6686 -0.2069
13546TIP3    H162129   0.809   4.768   0.423 -0.3532  1.2764 -0.3809
13546TIP3    H262130   0.711   4.745   0.535  1.3004 -0.2332  0.8136
13547TIP3   OH262131   2.004   5.865  10.552 -0.2037  0.1013  0.4628
13547TIP3    H162132   2.011   5.791  10.490  1.1872  0.6606 -0.1060
13547TIP3    H262133   1.986   5.824  10.636 -0.8490 -0.7812 -0.0857
13548TIP3   OH262134   3.520   6.741  15.134  0.4188 -0.2044  0.1238
13548TIP3    H162135   3.451   6.735  15.067  1.8242 -0.3911 -1.3500
13548TIP3    H262136   3.488   6.685  15.205 -0.8061 -0.5506 -0.6645
13549TIP3   OH262137   5.652   0.541   2.482  0.7292 -0.0807  0.0251
13549TIP3    H162138   5.709   0.470   2.508 -0.5355 -2.0590 -2.2459
13549TIP3    H262139   5.568   0.499   2.461 -1.0288  2.4372  1.3451
13550TIP3   OH262140   4.960   1.270   5.646  0.0519 -0.0539 -0.1330
13550TIP3    H162141   5.046   1.244   5.678  0.0481 -0.2525 -0.2846
13550TIP3    H262142   4.898   1.227   5.705  0.0640  1.8361  1.3560
13551TIP3   OH262143   3.856   1.818  14.246  0.7039 -0.5204 -0.3615
13551TIP3    H162144   3.896   1.766  14.175 -1.3971 -0.7645 -1.4413
13551TIP3    H262145   3.843   1.755  14.317  0.1282 -0.9729 -0.8645
13552TIP3   OH262146   0.338   3.108  14.978 -0.0698 -0.4345  0.3651
13552TIP3    H162147   0.396   3.109  14.901  0.3464 -1.4302  0.6570
13552TIP3    H262148   0.383   3.053  15.042 -1.9338 -2.3953  0.1111
13553TIP3   OH262149   2.614   0.032  13.007 -0.3461 -0.6706  0.0276
13553TIP3    H162150   2.661  -0.052  13.003 -0.5213 -0.7414 -0.6143
13553TIP3    H262151   2.639   0.069  13.091 -1.4815 -2.0830  1.0305
13554TIP3   OH262152   2.105   4.073   1.644 -0.1054  0.6190 -0.1486
13554TIP3    H162153   2.093   3.979   1.656 -0.0985  0.9660  3.4065
13554TIP3    H262154   2.034   4.113   1.694  1.2212  2.4940  0.3276
13555TIP3   OH262155   6.156   2.910  14.957  0.0671  0.1570  0.0936
13555TIP3    H162156   6.136   2.950  15.042  1.8595 -0.7654  1.0321
13555TIP3    H262157   6.113   2.965  14.893 -1.3263  0.9121  1.6071
13556TIP3   OH262158   4.296   1.344   4.915  0.4478  0.2134 -0.1571
13556TIP3    H162159   4.298   1.289   4.993 -0.6033  3.9573  2.7735
13556TIP3    H262160   4.204   1.362   4.899  0.7707  1.6696 -0.5672
13557TIP3   OH262161   3.409   1.071   6.070 -0.3109  0.4285 -0.0279
13557TIP3    H162162   3.479   1.136   6.074 -1.5295  1.8896 -1.4277
13557TIP3    H262163   3.388   1.064   5.977 -0.5308 -1.6759  0.1293
13558TIP3   OH262164   0.882   1.749  16.285 -1.1020  0.5564  0.5409
13558TIP3    H162165   0.819   1.750  16.212 -0.5245 -0.5395 -0.0023
13558TIP3    H262166   0.837   1.700  16.354 -0.9489 -0.0473  0.2277
13559TIP3   OH262167   2.389   2.471  14.488 -0.3279 -0.1276 -0.0429
13559TIP3    H162168   2.305   2.517  14.478 -0.6674 -0.5479  0.7597
13559TIP3    H262169   2.402   2.466  14.583 -0.6739 -2.3162 -0.0646
13560TIP3   OH262170   1.508   4.034  14.722  0.1117 -0.9956 -0.2449
13560TIP3    H162171   1.427   4.000  14.685  1.6189 -1.6110 -3.3881
13560TIP3    H262172   1.514   4.124  14.689 -0.3149 -0.1148  1.8934
13561TIP3   OH262173   3.739   4.009   5.387 -0.2564  0.3149 -0.2248
13561TIP3    H162174   3.667   4.061   5.350  0.4132  0.7434 -0.9395
13561TIP3    H262175   3.741   4.034   5.479 -1.7879 -0.5884  0.0876
13562TIP3   OH262176   4.346   1.594   1.188 -0.5735 -0.1441 -0.0982
13562TIP3    H162177   4.325   1.527   1.123 -0.9905 -0.1262  0.0162
13562TIP3    H262178   4.334   1.551   1.273 -1.4048  0.2283 -0.0115
13563TIP3   OH262179   6.632   0.670   3.390 -0.2824 -0.3813 -0.5285
13563TIP3    H162180   6.612   0.622   3.470 -0.0867  1.1822  0.5007
13563TIP3    H262181   6.596   0.616   3.320 -0.1638 -1.9437  0.5757
13564TIP3   OH262182   2.574   0.230  16.056 -0.9938 -0.1475  0.1376
13564TIP3    H162183   2.521   0.302  16.088 -0.0158  1.4226 -1.5383
13564TIP3    H262184   2.563   0.232  15.961  2.8352  1.0657 -0.4734
13565TIP3   OH262185   5.218   1.663   4.484 -1.0285  0.2598  0.8192
13565TIP3    H162186   5.131   1.625   4.474 -0.5571 -0.8502  0.7725
13565TIP3    H262187   5.268   1.628   4.410 -0.4439  0.6223  1.0327
13566TIP3   OH262188   4.499   3.507   4.415  0.0630 -0.2652  0.1446
13566TIP3    H162189   4.589   3.512   4.447 -0.7750 -1.0341  2.9256
13566TIP3    H262190   4.504   3.535   4.323  2.9511  0.6406  0.4835
13567TIP3   OH262191   3.172   0.087  10.625 -0.1214  0.9534 -0.0471
13567TIP3    H162192   3.118   0.135  10.561 -1.2348  0.0144  0.1561
13567TIP3    H262193   3.260   0.122  10.612 -0.2622  0.6683 -2.2396
13568TIP3   OH262194   5.320   2.903   2.576  0.4150 -0.1107 -0.3578
13568TIP3    H162195   5.280   2.885   2.491 -0.6367  0.1100  0.0693
13568TIP3    H262196   5.317   2.819   2.622 -0.8176  0.2002  0.1652
13569TIP3   OH262197   3.076   2.010   2.268 -0.0624 -0.1089  0.2901
13569TIP3    H162198   3.015   2.081   2.249  0.4444  0.3017  0.1724
13569TIP3    H262199   3.103   2.026   2.359  0.0630 -0.1475  0.2586
13570TIP3   OH262200   4.399   3.751   3.060  1.0783  0.1958 -0.4521
13570TIP3    H162201   4.305   3.737   3.047  0.7368  0.1323  1.6530
13570TIP3    H262202   4.441   3.697   2.993 -0.3796  0.2400 -1.4449
13571TIP3   OH262203   2.646   4.989  15.035 -0.0685 -0.1784 -0.3427
13571TIP3    H162204   2.635   4.913  15.093  0.8138  0.5326  0.7960
13571TIP3    H262205   2.562   4.997  14.990 -0.9737 -0.4367  1.2330
13572TIP3   OH262206   0.126   3.480  14.261  0.0874 -0.2323 -0.0335
13572TIP3    H162207   0.206   3.508  14.218 -0.4163  0.4114 -0.5781
13572TIP3    H262208   0.088   3.415  14.202 -0.5659  0.5970 -0.5564
13573TIP3   OH262209   6.174   0.824   6.043  0.7532  0.2959 -0.2559
13573TIP3    H162210   6.126   0.759   5.992 -0.3144  1.3805 -0.6984
13573TIP3    H262211   6.133   0.824   6.129  1.9717 -0.9002  0.3600
13574TIP3   OH262212   5.658   4.808   1.351 -0.0097 -0.6387  0.2058
13574TIP3    H162213   5.679   4.774   1.437  3.5562 -0.9826 -0.6606
13574TIP3    H262214   5.679   4.901   1.356 -1.3993 -0.2929  0.1170
13575TIP3   OH262215   4.625   2.031   4.034  0.2731 -0.0031  0.3152
13575TIP3    H162216   4.685   2.089   4.081 -0.3951  0.5475  0.5062
13575TIP3    H262217   4.537   2.060   4.061 -0.2684  1.6339 -2.6644
13576TIP3   OH262218   1.855   1.101  12.664 -0.2625 -0.5778 -0.0989
13576TIP3    H162219   1.857   1.174  12.726 -1.3361 -0.0111 -0.6835
13576TIP3    H262220   1.854   1.023  12.718  0.5442 -0.1531  0.5476
13577TIP3   OH262221   4.403   0.937   0.648  0.2213  0.4866 -0.5896
13577TIP3    H162222   4.326   0.993   0.649 -0.2368 -0.1359 -0.0221
13577TIP3    H262223   4.458   0.972   0.719  0.0903  0.4336 -0.4601
13578TIP3   OH262224   6.424   5.148   4.996  0.1569 -0.1666 -0.3700
13578TIP3    H162225   6.385   5.060   4.997  0.2183 -0.1911  0.4968
13578TIP3    H262226   6.498   5.142   5.057 -0.6642  0.8454  0.7922
13579TIP3   OH262227   3.900   0.382   6.499 -0.1759 -0.5465  0.4796
13579TIP3    H162228   3.825   0.431   6.465  2.2752  2.0745 -1.5788
13579TIP3    H262229   3.907   0.409   6.591 -0.6379  0.6404  0.1716
13580TIP3   OH262230   4.118   0.325   1.697  0.4191 -0.1714 -0.2062
13580TIP3    H162231   4.162   0.257   1.748  0.2803 -0.3351 -0.3029
13580TIP3    H262232   4.171   0.334   1.617 -0.2689 -1.0733 -0.7796
13581TIP3   OH262233   6.816   0.735  12.106  0.3053  0.7733  0.5327
13581TIP3    H162234   6.866   0.655  12.090 -2.0425 -0.8455  0.6720
13581TIP3    H262235   6.845   0.765  12.192  0.9436 -0.1583  0.6620
13582TIP3   OH262236   0.986   6.201   1.014  0.8110  0.4688 -0.2619
13582TIP3    H162237   0.960   6.155   1.094  1.0416  0.1077 -0.3913
13582TIP3    H262238   1.019   6.132   0.956  0.7600  0.7440 -0.6231
13583TIP3   OH262239   5.727   4.694  13.699  0.2632 -0.7266 -0.4823
13583TIP3    H162240   5.696   4.607  13.725 -1.2693 -0.7297 -2.1135
13583TIP3    H262241   5.814   4.678  13.661  1.0350 -1.1686  1.3788
13584TIP3   OH262242   4.971   2.416  15.476  0.4654  0.1946  0.2774
13584TIP3    H162243   4.941   2.373  15.557  0.2622 -0.6479 -0.2384
13584TIP3    H262244   4.903   2.397  15.412  0.1183  1.7344  0.1555
13585TIP3   OH262245   4.097   5.497  14.120 -0.5469  0.2104  0.1485
13585TIP3    H162246   4.078   5.588  14.097  1.9748  0.7780  0.0293
13585TIP3    H262247   4.177   5.502  14.172 -0.6242 -1.9222  0.5554
13586TIP3   OH262248   2.691   6.317   0.354 -0.0235 -0.4361 -0.0417
13586TIP3    H162249   2.779   6.280   0.345 -0.4556 -1.4919 -0.0266
13586TIP3    H262250   2.683   6.337   0.448  0.7039  0.9912 -0.2578
13587TIP3   OH262251   4.928   2.447   0.101 -0.6687 -0.0014 -0.3037
13587TIP3    H162252   4.956   2.371   0.153 -1.8938  0.0736  0.5286
13587TIP3    H262253   4.939   2.521   0.161 -1.1835  0.2237 -0.4880
13588TIP3   OH262254   0.612   6.342   3.940 -0.2660  0.2997  0.2934
13588TIP3    H162255   0.668   6.267   3.960  1.7335  1.4844 -0.6154
13588TIP3    H262256   0.539   6.335   4.003  1.2239 -0.9256  1.9846
13589TIP3   OH262257   3.057   4.388   2.269 -0.4927  0.3849  0.5504
13589TIP3    H162258   3.139   4.379   2.220 -1.4133  1.4753 -1.3195
13589TIP3    H262259   3.012   4.305   2.257 -1.2133  1.0042 -1.5737
13590TIP3   OH262260   5.086   0.481  14.803  0.7318 -0.2075  0.2007
13590TIP3    H162261   5.107   0.559  14.853 -0.9234  1.2749 -1.2639
13590TIP3    H262262   4.996   0.459  14.828 -0.0570  0.4470 -1.8715
13591TIP3   OH262263   0.877   1.672  10.996 -0.1518 -0.1588  0.0471
13591TIP3    H162264   0.954   1.638  10.951 -1.0325 -0.6249 -1.1623
13591TIP3    H262265   0.884   1.767  10.987  0.4428 -0.1817  0.2327
13592TIP3   OH262266   6.329   2.532   4.448  0.1382  0.0437  0.5019
13592TIP3    H162267   6.266   2.574   4.389  1.5710  1.0286 -0.3996
13592TIP3    H262268   6.366   2.460   4.396  0.7625  0.3611  0.4878
13593TIP3   OH262269   0.255   1.611  14.891 -0.3048 -0.0013 -0.0927
13593TIP3    H162270   0.286   1.674  14.826 -0.9343  0.3750 -0.0477
13593TIP3    H262271   0.176   1.652  14.928 -0.5037 -0.6430  0.2154
13594TIP3   OH262272   4.284   4.670   3.755  0.0422  0.3659  0.1510
13594TIP3    H162273   4.296   4.632   3.668  3.7055  0.6051  0.3810
13594TIP3    H262274   4.286   4.594   3.814 -0.0296  0.3814  0.1734
13595TIP3   OH262275   1.449   2.806   5.222 -0.0298  0.5077  0.1635
13595TIP3    H162276   1.365   2.842   5.196 -0.2523 -1.3087 -1.8936
13595TIP3    H262277   1.504   2.814   5.144  0.9655 -0.4618  0.7404
13596TIP3   OH262278   6.410   2.244  16.549 -0.7353  0.0212 -0.2312
13596TIP3    H162279   6.343   2.176  16.541 -0.6371 -0.2352  0.8555
13596TIP3    H262280   6.493   2.198  16.534 -0.7534  0.1707 -0.7829
13597TIP3   OH262281   0.165   4.329   2.614 -0.3393  0.2143 -0.3989
13597TIP3    H162282   0.080   4.367   2.636 -1.1682  0.6041 -3.6312
13597TIP3    H262283   0.144   4.260   2.550  1.6878 -0.5749 -0.2774
13598TIP3   OH262284   0.889   5.302  11.290  0.2807  0.2420  0.2578
13598TIP3    H162285   0.920   5.319  11.379  0.4246  0.1688  0.2208
13598TIP3    H262286   0.912   5.381  11.242  2.9037 -0.8522 -0.4460
13599TIP3   OH262287   3.231   1.595  12.728  0.4205 -0.2261  0.4414
13599TIP3    H162288   3.180   1.528  12.774 -0.2728 -0.2772 -0.3823
13599TIP3    H262289   3.266   1.550  12.651 -2.1303  0.9098 -1.5187
13600TIP3   OH262290   6.243   3.412   2.825  0.0003  0.7408  0.2515
13600TIP3    H162291   6.249   3.327   2.869  1.6665  1.8351  2.3081
13600TIP3    H262292   6.250   3.392   2.732 -1.4082 -1.4936  0.5657
13601TIP3   OH262293   5.201   2.240  13.831 -0.2879 -0.4276 -0.1037
13601TIP3    H162294   5.252   2.180  13.885 -1.4791  0.1124  1.7294
13601TIP3    H262295   5.118   2.251  13.879 -1.0905  0.7190 -1.6486
13602TIP3   OH262296   0.105   0.001  16.410  0.3600  0.1143  0.6244
13602TIP3    H162297   0.036   0.057  16.373  0.3685 -0.2900 -0.0100
13602TIP3    H262298   0.062  -0.046  16.482  0.1463  0.3438  0.6468
13603TIP3   OH262299   2.276   5.436  13.351  0.0543  0.3061  0.3545
13603TIP3    H162300   2.191   5.476  13.372  0.7009  0.8235  2.2501
13603TIP3    H262301   2.257   5.342  13.345 -0.6676  0.4108  0.7979
13604TIP3   OH262302   5.224   4.651  12.600 -0.1358  0.2464  0.2356
13604TIP3    H162303   5.320   4.646  12.599 -0.2054 -1.5428  0.6652
13604TIP3    H262304   5.201   4.655  12.692 -0.5280 -1.1012  0.2145
13605TIP3   OH262305   4.932   2.185   4.881  0.7605  0.3492 -0.4226
13605TIP3    H162306   4.892   2.105   4.848  1.1998 -0.2306  0.4216
13605TIP3    H262307   4.859   2.244   4.898  0.3954 -0.0941 -0.4622
13606TIP3   OH262308   0.901   2.895   1.840 -0.3253 -0.2573 -0.2981
13606TIP3    H162309   0.972   2.955   1.866  0.2088 -0.6275 -0.8780
13606TIP3    H262310   0.944   2.811   1.828 -0.5360 -0.1110 -2.3516
13607TIP3   OH262311   0.340   1.367   2.522 -0.2107  0.1846  0.1464
13607TIP3    H162312   0.323   1.276   2.549 -0.2476  0.0865 -0.1972
13607TIP3    H262313   0.418   1.361   2.468 -0.6031  0.2603 -0.4373
13608TIP3   OH262314   3.602   1.458  15.291 -0.1462 -0.0316 -0.4597
13608TIP3    H162315   3.688   1.438  15.253  0.8253  0.7481  1.2402
13608TIP3    H262316   3.560   1.373  15.300  2.0090 -0.9716  2.1868
13609TIP3   OH262317   0.680   1.961  16.479  0.0687 -0.1606 -0.6119
13609TIP3    H162318   0.718   1.878  16.507 -0.8796 -0.1663  0.7657
13609TIP3    H262319   0.672   2.012  16.560 -1.8442  0.2411 -1.0005
13610TIP3   OH262320   6.361   6.520  14.887 -0.2144  0.4242 -0.4518
13610TIP3    H162321   6.268   6.500  14.876 -0.1406 -0.4905  0.4060
13610TIP3    H262322   6.362   6.589  14.954 -0.2437 -0.4075  0.4360
13611TIP3   OH262323   0.557   4.707   0.819 -0.5651 -0.0799  0.3655
13611TIP3    H162324   0.565   4.727   0.913  0.9959 -1.5687  0.6027
13611TIP3    H262325   0.637   4.659   0.798 -2.0216 -1.9784 -1.1704
13612TIP3   OH262326   5.458   4.459  16.827 -0.6887 -0.2292 -0.3208
13612TIP3    H162327   5.395   4.529  16.846 -0.2173  0.4725 -1.2053
13612TIP3    H262328   5.435   4.430  16.739  1.2189  1.2476 -1.4243
13613TIP3   OH262329   2.038   6.027   4.127  0.7424  0.0937 -0.0971
13613TIP3    H162330   2.069   5.964   4.192  1.2880 -0.1211 -0.5529
13613TIP3    H262331   1.943   6.018   4.127  0.5105  1.7525  2.3375
13614TIP3   OH262332   1.251   1.497   3.106 -0.0370  0.1437 -0.5408
13614TIP3    H162333   1.209   1.549   3.038 -0.5769 -2.0425 -1.9858
13614TIP3    H262334   1.201   1.415   3.109  2.0327 -1.1986  0.0675
13615TIP3   OH262335   5.076   0.393   6.452  0.5861 -0.3156  0.1573
13615TIP3    H162336   5.056   0.434   6.368  0.9352 -0.1508  0.1513
13615TIP3    H262337   4.996   0.403   6.503  0.1156 -1.0548 -0.3996
13616TIP3   OH262338   0.614   2.730   2.544 -0.5348 -0.6624  0.5478
13616TIP3    H162339   0.549   2.746   2.613 -0.8550 -0.8563  0.2955
13616TIP3    H262340   0.624   2.814   2.500  0.6588 -0.1781  1.6543
13617TIP3   OH262341   4.394   5.104  16.199 -0.1906  0.0472  0.6096
13617TIP3    H162342   4.319   5.066  16.245 -0.9183  2.4139  1.5593
13617TIP3    H262343   4.470   5.076  16.248 -0.7723  0.5297  1.8249
13618TIP3   OH262344   5.641   2.911  12.248 -0.3868 -0.0300  0.4029
13618TIP3    H162345   5.655   2.914  12.343 -0.5980 -1.4637  0.5122
13618TIP3    H262346   5.546   2.902  12.239 -0.5917  2.0648 -0.0484
13619TIP3   OH262347   5.608   6.428  12.767 -0.1937  0.5454  0.1720
13619TIP3    H162348   5.568   6.459  12.848  0.8829  0.5023  0.7518
13619TIP3    H262349   5.629   6.508  12.719 -0.8375  0.5712 -0.0759
13620TIP3   OH262350   1.958   2.821  13.277 -0.2105  0.2169 -0.0242
13620TIP3    H162351   1.908   2.740  13.287  0.3993 -0.1572  0.0263
13620TIP3    H262352   1.893   2.890  13.285 -0.9962 -0.2953 -1.5026
13621TIP3   OH262353   0.113   3.172  12.114 -0.2295  0.1991 -0.2866
13621TIP3    H162354   0.198   3.213  12.129 -0.0119 -0.3062 -0.1394
13621TIP3    H262355   0.110   3.098  12.174 -0.5730 -0.0757 -0.6322
13622TIP3   OH262356   5.403   5.163  12.902 -0.3549  0.4987 -0.7705
13622TIP3    H162357   5.345   5.204  12.966  0.0055  1.4145 -1.0111
13622TIP3    H262358   5.491   5.188  12.930 -0.0426 -1.0349 -0.2950
13623TIP3   OH262359   4.700   3.585   5.308 -0.6449 -0.2294  0.0521
13623TIP3    H162360   4.751   3.583   5.389 -1.4462 -0.2000  0.5647
13623TIP3    H262361   4.740   3.655   5.256 -0.9705  0.6656  0.9863
13624TIP3   OH262362   2.576   2.596   6.271 -0.2249 -0.0122  0.3428
13624TIP3    H162363   2.636   2.668   6.290  0.1788 -0.4507  0.7238
13624TIP3    H262364   2.577   2.541   6.349 -1.1182 -0.0344  0.3569
13625TIP3   OH262365   0.935   5.543   4.886 -0.3741 -0.7487 -0.2726
13625TIP3    H162366   1.010   5.577   4.935 -0.9657 -0.3526  0.3636
13625TIP3    H262367   0.862   5.599   4.911 -0.7773 -0.8102 -1.2839
13626TIP3   OH262368   0.705   0.271   1.349  0.1709 -0.1799  0.3464
13626TIP3    H162369   0.753   0.290   1.430  0.2977  1.3559 -0.0590
13626TIP3    H262370   0.613   0.284   1.372  0.2840  1.4289 -0.0327
13627TIP3   OH262371   1.951   5.348   3.856 -0.1059  0.3031 -0.6565
13627TIP3    H162372   1.959   5.295   3.935 -0.5035 -0.1761 -0.9313
13627TIP3    H262373   2.039   5.384   3.842  0.1817 -0.3138 -0.4822
13628TIP3   OH262374   2.236   4.573  11.659 -0.2407 -0.4811 -0.6570
13628TIP3    H162375   2.226   4.505  11.726  0.9385 -1.4662 -1.4293
13628TIP3    H262376   2.324   4.607  11.674 -0.0581 -0.5459 -1.5457
13629TIP3   OH262377   4.125   6.590   5.524  0.3466 -0.4377 -0.3491
13629TIP3    H162378   4.164   6.576   5.438  0.6030 -0.5149 -0.2226
13629TIP3    H262379   4.039   6.549   5.518 -0.1499  0.6640 -0.9684
13630TIP3   OH262380   6.586   5.565  11.777 -0.3419 -0.1884  0.4186
13630TIP3    H162381   6.642   5.641  11.786  0.7756 -0.9110 -0.2414
13630TIP3    H262382   6.618   5.520  11.699 -0.7865 -1.4810  0.9448
13631TIP3   OH262383   5.285   5.879   1.317  0.5113  0.0905 -0.8327
13631TIP3    H162384   5.334   5.961   1.316  0.7094  0.0336  0.8355
13631TIP3    H262385   5.270   5.861   1.410  1.0545 -2.1236 -1.1193
13632TIP3   OH262386   2.406   3.266  16.321  0.1797  0.1651  0.2866
13632TIP3    H162387   2.340   3.313  16.371  0.1348 -0.6000  0.9564
13632TIP3    H262388   2.356   3.222  16.252  0.1138  0.3798  0.1963
13633TIP3   OH262389   1.419   1.968   4.347  0.1211  0.2534  0.5767
13633TIP3    H162390   1.429   2.028   4.421 -0.0595 -1.5820  2.1709
13633TIP3    H262391   1.328   1.939   4.352 -0.0629  0.5405 -0.7568
13634TIP3   OH262392   1.095   3.164   5.717  0.3828  1.0269  0.0926
13634TIP3    H162393   1.128   3.144   5.630 -1.3546  0.4434 -0.4888
13634TIP3    H262394   1.144   3.107   5.775  0.0622 -0.1919 -0.7917
13635TIP3   OH262395   3.996   4.303  10.902 -0.1311  0.2345  0.7286
13635TIP3    H162396   3.967   4.213  10.888  0.3771  0.2333 -0.4460
13635TIP3    H262397   3.915   4.352  10.916 -0.3476 -0.5797  2.6147
13636TIP3   OH262398   3.657   6.196   0.173  0.1023 -0.1760  0.3148
13636TIP3    H162399   3.568   6.162   0.176 -0.8026  2.0345  1.1793
13636TIP3    H262400   3.650   6.275   0.119  1.5147  0.0913  0.4996
13637TIP3   OH262401   6.624   5.665   5.701  0.1359 -0.0946  0.5289
13637TIP3    H162402   6.634   5.711   5.785 -1.8967  0.1933  0.6562
13637TIP3    H262403   6.532   5.678   5.678  0.6240 -0.2992 -1.6906
13638TIP3   OH262404   6.576   5.876  16.493 -0.0328  0.1275  0.5615
13638TIP3    H162405   6.586   5.805  16.430 -0.9007  0.2085  0.3274
13638TIP3    H262406   6.542   5.949  16.442  0.5422  0.6164  0.8665
13639TIP3   OH262407   1.297   0.966  13.977 -0.0774  0.2070  0.3051
13639TIP3    H162408   1.298   0.889  14.033  0.6190 -0.9572 -1.2499
13639TIP3    H262409   1.288   0.932  13.889  1.9013  1.7892 -0.5888
13640TIP3   OH262410   3.410   0.738   2.607 -0.2121 -0.3267 -0.1717
13640TIP3    H162411   3.362   0.750   2.525  2.0682 -0.2636 -1.6131
13640TIP3    H262412   3.470   0.813   2.610 -0.5315 -0.0888  1.8244
13641TIP3   OH262413   3.892   5.508   3.516 -0.3705  0.0017  0.4534
13641TIP3    H162414   3.844   5.569   3.572  0.7169  0.2982  1.0964
13641TIP3    H262415   3.841   5.427   3.520  0.0180 -0.1897  2.4392
13642TIP3   OH262416   4.804   0.480   3.763 -1.2296  0.0787 -0.1277
13642TIP3    H162417   4.891   0.489   3.801 -1.0237  0.1184 -0.6064
13642TIP3    H262418   4.802   0.544   3.692 -1.2098 -0.7740 -0.9151
13643TIP3   OH262419   3.068   3.069   0.137  0.1926  0.0103  0.4863
13643TIP3    H162420   3.003   3.071   0.067  0.2829 -0.6247  0.3787
13643TIP3    H262421   3.049   3.147   0.190  0.1685  0.5253 -0.2745
13644TIP3   OH262422   6.773   0.672   3.660  0.2624  0.5957  0.0264
13644TIP3    H162423   6.833   0.691   3.733  0.2849  1.9008 -0.3200
13644TIP3    H262424   6.798   0.584   3.632 -0.0174 -0.1128  1.8461
13645TIP3   OH262425   2.442   5.412   6.155 -0.1914  0.7760 -0.0884
13645TIP3    H162426   2.417   5.496   6.114 -1.9106  0.2967 -0.0952
13645TIP3    H262427   2.459   5.434   6.246  1.6925  1.5111 -0.5779
13646TIP3   OH262428   4.089   1.069   4.919  0.6154  0.1806 -0.5424
13646TIP3    H162429   4.071   1.162   4.934 -2.0173 -0.1672 -0.9429
13646TIP3    H262430   4.158   1.067   4.854  1.9083  1.8149  0.7114
13647TIP3   OH262431   4.397   6.556  16.137  0.3662 -0.2271 -0.5497
13647TIP3    H162432   4.402   6.614  16.213 -0.7033  0.0445 -0.6694
13647TIP3    H262433   4.424   6.611  16.063  3.0014 -0.9269 -0.2014
13648TIP3   OH262434   6.727   3.161  13.326  0.2039 -0.7895 -0.5494
13648TIP3    H162435   6.661   3.225  13.300 -0.0826 -0.0899  1.6757
13648TIP3    H262436   6.806   3.213  13.341  0.1016 -0.9990  0.8157
13649TIP3   OH262437   0.691   0.226  15.889  0.6969 -0.1827  0.1888
13649TIP3    H162438   0.676   0.192  15.801 -0.4381  1.5663 -0.3670
13649TIP3    H262439   0.604   0.254  15.918  1.6559  3.8383 -0.1984
13650TIP3   OH262440   4.743   3.070  10.672 -0.2700  0.1504  0.2038
13650TIP3    H162441   4.765   2.982  10.641 -0.4031  0.8957 -2.1746
13650TIP3    H262442   4.651   3.063  10.700 -1.4797  0.2560 -3.3160
13651TIP3   OH262443   5.406   2.313   3.098  0.2475 -0.2232  0.4064
13651TIP3    H162444   5.351   2.290   3.173 -1.2159  1.3943 -0.1124
13651TIP3    H262445   5.492   2.331   3.136  0.2442 -1.9437  1.3415
13652TIP3   OH262446   3.066   0.023   2.392  0.5667  0.0693 -0.0675
13652TIP3    H162447   2.995   0.086   2.381  1.9309  1.5500 -0.8517
13652TIP3    H262448   3.082   0.022   2.487 -0.8020 -0.6849  0.1866
13653TIP3   OH262449   2.361   1.171  16.059 -0.5119  0.1787 -0.0020
13653TIP3    H162450   2.343   1.167  16.153  0.5283  0.8592  0.2461
13653TIP3    H262451   2.453   1.148  16.051 -0.1517  1.6937 -0.6654
13654TIP3   OH262452   0.978   3.806  12.215  0.0283  0.3541 -0.3110
13654TIP3    H162453   0.924   3.727  12.218  1.0012 -0.3131  0.2364
13654TIP3    H262454   1.024   3.806  12.298  0.8345  0.9235 -0.7489
13655TIP3   OH262455   4.235   3.717  15.051 -0.0752 -0.0036  0.6095
13655TIP3    H162456   4.178   3.725  14.974 -0.1166 -1.4499  0.4616
13655TIP3    H262457   4.183   3.752  15.123 -0.7195 -0.2322  0.2661
13656TIP3   OH262458   2.931   5.083   2.386  0.1984  0.0088  0.9551
13656TIP3    H162459   2.925   4.988   2.379 -0.3725  0.1218 -0.2020
13656TIP3    H262460   2.863   5.116   2.328 -0.9102  1.1219  2.8002
13657TIP3   OH262461   4.344   0.159  11.586  0.6913  0.0007 -0.1382
13657TIP3    H162462   4.273   0.221  11.605 -0.2632 -1.1417  0.0946
13657TIP3    H262463   4.403   0.208  11.529  0.4374  1.4339  0.7810
13658TIP3   OH262464   6.782   3.055  12.455  0.1221 -0.2585  0.0057
13658TIP3    H162465   6.762   3.121  12.388 -0.2193  0.5492  0.8813
13658TIP3    H262466   6.699   3.010  12.470  0.3602 -0.9212 -0.6072
13659TIP3   OH262467   3.856   6.246  15.509  0.1534  0.2117  0.1024
13659TIP3    H162468   3.879   6.154  15.501 -0.3043  0.0059  1.0519
13659TIP3    H262469   3.777   6.247  15.563  0.5415  1.2065  0.6841
13660TIP3   OH262470   5.239   1.958  15.395  0.2339 -0.0692  0.2730
13660TIP3    H162471   5.193   1.908  15.327 -2.0532 -0.1276  1.7381
13660TIP3    H262472   5.214   2.049  15.379  1.7719  0.2620 -0.4411
13661TIP3   OH262473   0.376   6.815  15.309 -0.4136  0.3739  0.0398
13661TIP3    H162474   0.448   6.793  15.369  0.0188 -3.0524 -1.5343
13661TIP3    H262475   0.419   6.829  15.224 -1.5115 -1.4297 -0.8619
13662TIP3   OH262476   2.977   0.717  16.197  0.2675  0.3712  0.5030
13662TIP3    H162477   2.989   0.656  16.124 -1.0745 -0.4458  0.9208
13662TIP3    H262478   3.004   0.802  16.163  0.2203 -0.1051 -0.7620
13663TIP3   OH262479   5.341   3.474  14.852  0.1697  0.1593  0.5753
13663TIP3    H162480   5.315   3.400  14.798  1.9397  0.6885 -1.0789
13663TIP3    H262481   5.364   3.543  14.790  0.9923  1.2397  2.0179
13664TIP3   OH262482   6.113   3.189   0.151  0.3234 -0.0161  0.5505
13664TIP3    H162483   6.098   3.250   0.079 -0.9171  0.9377  1.5671
13664TIP3    H262484   6.028   3.182   0.195  0.5027 -2.2475  0.6722
13665TIP3   OH262485   0.013   0.785   4.142 -0.0054  0.0357 -0.2407
13665TIP3    H162486   0.056   0.842   4.078  1.4780 -1.3287 -0.5045
13665TIP3    H262487   0.048   0.814   4.226  1.0364 -0.6933 -0.4063
13666TIP3   OH262488   4.372   1.105   3.351 -0.6465 -0.2852  0.7718
13666TIP3    H162489   4.277   1.099   3.339 -0.4957 -1.8456  0.1526
13666TIP3    H262490   4.395   1.030   3.405  0.3735 -0.5424  0.0122
13667TIP3   OH262491   1.412   5.930  11.295  0.0291  0.1195  0.0275
13667TIP3    H162492   1.417   5.870  11.370  0.9234  0.2974  0.1244
13667TIP3    H262493   1.363   6.005  11.327  0.8267  0.4098  0.5963
13668TIP3   OH262494   6.727   2.980   0.783 -0.4114  0.1355 -0.2251
13668TIP3    H162495   6.687   2.921   0.847 -1.4070 -1.4269 -2.1431
13668TIP3    H262496   6.675   3.060   0.788 -1.2331 -0.4018  0.1169
13669TIP3   OH262497   5.182   0.786  16.995 -0.3757  0.0304  0.1942
13669TIP3    H162498   5.116   0.795  17.064 -0.8586  0.2648 -0.2965
13669TIP3    H262499   5.177   0.869  16.947 -0.2400 -0.2480 -0.2978
13670TIP3   OH262500   4.733   5.523   4.025 -0.0927  0.4867  1.2382
13670TIP3    H162501   4.714   5.553   4.114  2.7105 -0.6630  2.3400
13670TIP3    H262502   4.795   5.451   4.036  0.9128  0.7552 -1.6624
13671TIP3   OH262503   0.935   1.886   2.439  0.4507  0.2868  0.0637
13671TIP3    H162504   0.855   1.839   2.417 -0.1003  1.0786  0.3268
13671TIP3    H262505   0.908   1.977   2.446  0.7417  0.2525  3.0031
13672TIP3   OH262506   4.777   1.993  13.295  0.0734 -0.2465  0.0006
13672TIP3    H162507   4.768   1.910  13.248  2.1548  0.4615 -1.7883
13672TIP3    H262508   4.864   1.988  13.336 -0.7230  0.1553  1.8552
13673TIP3   OH262509   2.040   0.374   2.270 -0.3146 -0.2004 -0.5542
13673TIP3    H162510   1.962   0.414   2.231  0.2571  1.2063 -0.3133
13673TIP3    H262511   2.102   0.366   2.198 -0.1544  0.0774 -0.4497
13674TIP3   OH262512   1.158   3.853   1.516  0.4722  0.7956 -0.0605
13674TIP3    H162513   1.065   3.835   1.513  0.6576 -0.8275  1.8432
13674TIP3    H262514   1.164   3.944   1.546 -0.4938  0.5809  0.8126
13675TIP3   OH262515   5.641   1.552   2.948  0.6321 -0.2757  0.0172
13675TIP3    H162516   5.669   1.461   2.944  1.1666 -0.1088 -0.1163
13675TIP3    H262517   5.714   1.598   2.989 -0.2452 -0.1376  1.5048
13676TIP3   OH262518   1.708   4.005  15.156  0.2360 -0.0118  0.2167
13676TIP3    H162519   1.652   3.969  15.224 -1.1003 -1.5272 -1.5809
13676TIP3    H262520   1.755   3.929  15.121  0.1981  0.5640 -1.1434
13677TIP3   OH262521   0.185   5.431   0.812  0.4745 -0.0015 -0.2981
13677TIP3    H162522   0.236   5.491   0.758 -0.5895  1.4876  0.2719
13677TIP3    H262523   0.175   5.477   0.896  0.2162 -1.2977  0.4179
13678TIP3   OH262524   5.497   5.270   2.968 -0.2192 -0.3485  0.3277
13678TIP3    H162525   5.441   5.337   3.006 -1.8077 -0.0515 -2.3162
13678TIP3    H262526   5.541   5.314   2.896  0.2143 -1.6627 -0.2391
13679TIP3   OH262527   3.453   5.099   2.331 -0.1225 -0.6998 -0.0109
13679TIP3    H162528   3.438   5.013   2.369 -0.0252 -1.6778 -2.0911
13679TIP3    H262529   3.365   5.136   2.320 -0.2253 -0.9553 -0.0514
13680TIP3   OH262530   5.186   5.247  12.630  0.5248 -0.2273 -0.0215
13680TIP3    H162531   5.228   5.172  12.671  1.4088  0.7138  0.8565
13680TIP3    H262532   5.217   5.246  12.540  1.0776 -0.5193  0.1723
13681TIP3   OH262533   6.364   4.110  12.918 -0.4144 -0.3053  0.1243
13681TIP3    H162534   6.321   4.025  12.909 -1.0503  0.1334 -1.1905
13681TIP3    H262535   6.323   4.150  12.995 -0.8590 -0.7649  0.1275
13682TIP3   OH262536   5.996   3.336   5.830  0.7039  0.1721 -0.0420
13682TIP3    H162537   5.927   3.338   5.764  0.3215 -1.8653  0.2447
13682TIP3    H262538   6.077   3.321   5.781  0.7891  1.1723 -0.2411
13683TIP3   OH262539   3.889   4.591   1.827 -0.0031 -0.2729 -0.1484
13683TIP3    H162540   3.960   4.619   1.770 -1.3703  3.5055 -0.3144
13683TIP3    H262541   3.928   4.587   1.914  0.9996 -1.1106 -0.6173
13684TIP3   OH262542   3.314   4.164   4.440 -0.3449  0.1309  0.2995
13684TIP3    H162543   3.370   4.087   4.429 -0.1237  0.5600 -2.3319
13684TIP3    H262544   3.231   4.130   4.471  0.9008 -0.6547  3.1091
13685TIP3   OH262545   0.967   0.684  15.805 -0.1111 -0.0168 -0.5886
13685TIP3    H162546   1.047   0.707  15.852 -0.8320  0.7799  0.2716
13685TIP3    H262547   0.938   0.602  15.845 -0.3696  0.3219 -0.0747
13686TIP3   OH262548   1.986   4.781   2.575  0.5862  0.3571  0.4825
13686TIP3    H162549   1.902   4.742   2.550  0.8168 -0.6471  1.2047
13686TIP3    H262550   1.986   4.777   2.671  0.2209  3.0315  0.6850
13687TIP3   OH262551   2.327   2.080  12.370 -0.1910  0.0507 -0.6795
13687TIP3    H162552   2.292   2.165  12.396  0.9425  0.3293  0.0152
13687TIP3    H262553   2.250   2.031  12.340 -1.0391  0.8976  0.0246
13688TIP3   OH262554   4.804   0.531  14.304  0.0847 -0.0426 -0.1588
13688TIP3    H162555   4.768   0.449  14.340  1.8757 -0.1307  1.6134
13688TIP3    H262556   4.891   0.507  14.272  0.3287  1.0156 -0.3225
13689TIP3   OH262557   0.148   4.832  11.465 -0.3194  0.5219  0.4701
13689TIP3    H162558   0.155   4.891  11.540  2.9788  1.1043 -0.1447
13689TIP3    H262559   0.193   4.878  11.394  0.2394 -1.6965 -0.7166
13690TIP3   OH262560   3.623   1.397  13.978 -0.0238  0.4538  0.2834
13690TIP3    H162561   3.550   1.413  14.037 -0.1675 -0.6022  0.4014
13690TIP3    H262562   3.644   1.483  13.942 -0.2168  1.0463  1.5361
13691TIP3   OH262563   2.123   2.193  16.673  0.0099 -0.2656  0.5018
13691TIP3    H162564   2.128   2.256  16.745 -0.4326  2.7707 -1.8864
13691TIP3    H262565   2.050   2.224  16.620  0.4344 -2.2518 -1.3614
13692TIP3   OH262566   5.531   4.725   3.098  0.5081 -0.0264 -0.5257
13692TIP3    H162567   5.543   4.638   3.136 -0.9220 -0.8867 -1.9561
13692TIP3    H262568   5.544   4.785   3.172 -0.7492 -1.5566  1.0185
13693TIP3   OH262569   0.097   1.718  11.877 -0.4600 -0.3018 -0.0723
13693TIP3    H162570   0.172   1.757  11.831 -0.5640  1.5904  1.2437
13693TIP3    H262571   0.032   1.704  11.809 -0.4212  1.9615 -0.6563
13694TIP3   OH262572   2.153   5.480   5.575 -0.1028  0.0977 -0.5094
13694TIP3    H162573   2.184   5.506   5.488  1.8141  1.2092  0.4411
13694TIP3    H262574   2.229   5.438   5.616  0.1257  2.4094  1.7205
13695TIP3   OH262575   4.150   6.263  16.924 -0.1657 -0.5214  0.2168
13695TIP3    H162576   4.102   6.213  16.990 -0.6778 -0.6533 -0.2500
13695TIP3    H262577   4.187   6.337  16.972 -0.0463 -0.9313  0.7631
13696TIP3   OH262578   4.719   3.853  11.826  0.3914  0.0778  0.4217
13696TIP3    H162579   4.798   3.895  11.861  0.9021  0.2829 -0.9065
13696TIP3    H262580   4.653   3.866  11.893  1.9186 -1.6843  2.4239
13697TIP3   OH262581   5.921   3.492   0.981  0.5026 -0.3397  0.0277
13697TIP3    H162582   5.826   3.487   0.989  0.5529  0.5530  1.4322
13697TIP3    H262583   5.938   3.472   0.889 -1.3017  2.8113 -1.1375
13698TIP3   OH262584   0.616   1.458  15.698 -0.0175 -0.2350 -0.3796
13698TIP3    H162585   0.657   1.440  15.782  0.1734  0.0001 -0.4207
13698TIP3    H262586   0.689   1.475  15.639 -0.1403 -0.6632 -0.6553
13699TIP3   OH262587   4.845   0.301   5.826  0.3437  0.6714  0.0664
13699TIP3    H162588   4.861   0.387   5.786 -1.8874  0.9828 -0.3114
13699TIP3    H262589   4.773   0.317   5.887 -1.4790 -1.2727 -1.4525
13700TIP3   OH262590   0.629   4.223   4.765 -0.1567  0.0797  0.1931
13700TIP3    H162591   0.709   4.229   4.817  0.1233 -0.2554 -0.1953
13700TIP3    H262592   0.568   4.172   4.818  0.3930 -0.9246 -0.1367
13701TIP3   OH262593   5.951   3.392   1.239 -0.5282  0.3201  0.5735
13701TIP3    H162594   5.927   3.300   1.227  0.3039  0.0939  0.5749
13701TIP3    H262595   5.955   3.428   1.151 -0.6668  0.3033  0.5608
13702TIP3   OH262596   5.329   3.887  14.752 -0.0252 -0.3980  0.4728
13702TIP3    H162597   5.317   3.798  14.719  1.5423 -1.5750  2.8258
13702TIP3    H262598   5.302   3.884  14.844 -0.3263  1.6754  0.5167
13703TIP3   OH262599   1.223   1.019  12.178  0.1929 -0.1404 -0.0235
13703TIP3    H162600   1.255   0.930  12.161 -0.0682 -0.3731  0.6878
13703TIP3    H262601   1.241   1.034  12.270  0.3423  0.5988 -0.1699
13704TIP3   OH262602   5.333   0.038  13.581  0.2778  0.2022 -0.2216
13704TIP3    H162603   5.286  -0.043  13.601  2.4571 -1.5312 -1.7386
13704TIP3    H262604   5.293   0.103  13.639 -3.4712 -1.2483 -0.9116
13705TIP3   OH262605   2.987   5.567  11.808 -0.4314 -0.3855  0.1713
13705TIP3    H162606   3.025   5.556  11.721  0.0567 -1.0907  0.4670
13705TIP3    H262607   2.976   5.478  11.842 -0.7505 -0.1252  0.7756
13706TIP3   OH262608   1.868   2.459   2.141 -0.1513 -0.0950  0.0478
13706TIP3    H162609   1.864   2.448   2.046  0.1320 -0.8485  0.1177
13706TIP3    H262610   1.955   2.495   2.157 -1.4713  3.6051 -0.2842
13707TIP3   OH262611   5.690   2.424  16.668  0.5433 -0.1923 -0.1453
13707TIP3    H162612   5.734   2.350  16.709 -1.4832 -1.7586 -0.6271
13707TIP3    H262613   5.692   2.404  16.574 -2.4667 -1.1743 -0.0904
13708TIP3   OH262614   0.733   4.307   2.439  0.2034  0.1801 -0.3434
13708TIP3    H162615   0.787   4.236   2.402  1.2480  0.5405  0.4327
13708TIP3    H262616   0.651   4.265   2.463  0.0075 -0.3380 -1.8037
13709TIP3   OH262617   2.347   5.077  12.803  0.7900  0.2509 -0.2574
13709TIP3    H162618   2.440   5.068  12.821  0.7329  0.0281 -0.0608
13709TIP3    H262619   2.329   5.171  12.810  1.0363  0.3134 -0.4801
13710TIP3   OH262620   0.461   6.080   2.939 -0.5070 -0.4888  0.7381
13710TIP3    H162621   0.378   6.044   2.906 -0.0974 -0.1685 -0.6552
13710TIP3    H262622   0.506   6.113   2.862  0.6411 -0.0512  1.5735
13711TIP3   OH262623   1.745   1.316  13.581  0.2604 -0.0265 -0.0658
13711TIP3    H162624   1.759   1.392  13.524  2.3333 -1.0718 -1.0835
13711TIP3    H262625   1.651   1.301  13.579 -0.0876  1.9821 -0.5450
13712TIP3   OH262626   6.260   1.051  16.105 -0.1225 -0.4736  0.0777
13712TIP3    H162627   6.323   0.993  16.062 -0.9756 -0.8792 -0.6489
13712TIP3    H262628   6.228   0.999  16.179 -0.9641 -0.9893 -0.6318
13713TIP3   OH262629   6.152   3.881  16.358  0.0187 -0.0341 -0.0334
13713TIP3    H162630   6.122   3.798  16.395 -2.1327 -0.1480 -1.8484
13713TIP3    H262631   6.099   3.948  16.401  0.7636  0.2899  0.4043
13714TIP3   OH262632   2.303   2.418  15.515 -0.3798 -0.7511  0.7445
13714TIP3    H162633   2.256   2.411  15.598 -3.0747  0.6892 -0.5358
13714TIP3    H262634   2.234   2.419  15.448  1.6726 -1.8734 -1.5586
13715TIP3   OH262635   1.132   5.254   5.906  0.1516  0.1166 -0.8070
13715TIP3    H162636   1.108   5.316   5.974 -0.1851  1.1121 -1.7935
13715TIP3    H262637   1.050   5.232   5.863  0.4804  0.3897 -1.6075
13716TIP3   OH262638   6.187   2.290   5.862  0.3090  0.4013  0.2578
13716TIP3    H162639   6.268   2.241   5.849  0.0064  0.2136 -1.1645
13716TIP3    H262640   6.201   2.341   5.942  2.3019  1.2852 -0.5915
13717TIP3   OH262641   6.459   1.247   4.526 -0.7276  0.2390 -0.1218
13717TIP3    H162642   6.509   1.297   4.590 -0.4087 -2.5521  2.0334
13717TIP3    H262643   6.523   1.190   4.484 -1.4854 -0.6901 -0.0753
13718TIP3   OH262644   6.586   4.071  17.032  0.1988  0.5909 -0.2717
13718TIP3    H162645   6.514   4.071  17.095  1.6682  0.3575  1.5020
13718TIP3    H262646   6.644   4.000  17.061  1.0944  0.6703 -1.7259
13719TIP3   OH262647   2.972   4.658  14.485 -0.4023  0.4798  0.2287
13719TIP3    H162648   2.931   4.634  14.568 -1.6564  0.5400 -0.3609
13719TIP3    H262649   2.916   4.620  14.418 -0.0915  1.4850 -0.6291
13720TIP3   OH262650   1.302   3.964   5.756  0.7144 -0.3807  0.0626
13720TIP3    H162651   1.236   4.030   5.733  0.9789 -0.5077 -1.1173
13720TIP3    H262652   1.265   3.919   5.832  1.2325  2.1358  1.9377
13721TIP3   OH262653   4.249   0.650  17.148  0.1552 -0.5556  0.0918
13721TIP3    H162654   4.225   0.732  17.191 -0.6684 -0.1605 -1.0699
13721TIP3    H262655   4.200   0.583  17.195 -0.4983 -0.1683 -0.0242
13722TIP3   OH262656   5.917   3.039  16.803  0.0183 -0.1881  0.2107
13722TIP3    H162657   5.830   3.074  16.784 -0.2789 -0.1024  1.5887
13722TIP3    H262658   5.942   2.991  16.724 -1.1467  0.0436 -0.3180
13723TIP3   OH262659   3.930   3.250   3.708  0.9028  0.2975  0.8171
13723TIP3    H162660   3.937   3.320   3.643  0.6724  1.6935  2.2521
13723TIP3    H262661   3.871   3.284   3.775 -0.9027 -2.0744  0.5852
13724TIP3   OH262662   6.595   2.368   2.152  0.2790 -0.8549  0.5541
13724TIP3    H162663   6.616   2.459   2.168 -0.3672 -0.5457 -0.2420
13724TIP3    H262664   6.631   2.349   2.065 -0.6707 -0.9768  0.1716
13725TIP3   OH262665   0.283   1.560   1.184  0.2045 -0.2790  0.4557
13725TIP3    H162666   0.269   1.650   1.214  1.9003  0.6740 -1.3528
13725TIP3    H262667   0.354   1.527   1.239  0.3261 -0.0960  0.4110
13726TIP3   OH262668   5.334   1.253  15.152 -0.0784  0.2187  0.2395
13726TIP3    H162669   5.306   1.196  15.081 -0.6123  0.2459  0.4215
13726TIP3    H262670   5.288   1.220  15.229  0.4670  0.2138  0.5665
13727TIP3   OH262671   6.309   1.682   5.077 -0.6555 -0.0189 -0.1068
13727TIP3    H162672   6.388   1.729   5.049  1.0567 -1.3177  2.1771
13727TIP3    H262673   6.277   1.733   5.152 -0.2407 -1.0916  0.8148
13728TIP3   OH262674   6.293   6.387  16.873  0.0618 -0.1542 -0.4578
13728TIP3    H162675   6.327   6.304  16.841  0.3922 -1.0035  1.8953
13728TIP3    H262676   6.198   6.379  16.868  0.0940  0.1691 -2.1307
13729TIP3   OH262677   5.862   6.181   3.191 -1.0017  0.0284 -0.3053
13729TIP3    H162678   5.795   6.240   3.156 -0.5426  1.1929  0.6976
13729TIP3    H262679   5.915   6.237   3.248  0.3742 -1.0278 -0.4916
13730TIP3   OH262680   4.872   0.699   4.571 -0.0328 -0.6739  0.1025
13730TIP3    H162681   4.939   0.768   4.565  0.3098 -0.9103  1.0568
13730TIP3    H262682   4.815   0.714   4.495  1.1716 -0.5444 -0.8042
13731TIP3   OH262683   3.062   6.610  10.323 -0.0888  0.4512 -0.0014
13731TIP3    H162684   3.070   6.693  10.276  0.8290  0.8158  0.7724
13731TIP3    H262685   3.135   6.610  10.385 -1.0516 -0.1759  1.1794
13732TIP3   OH262686   1.028   5.387  15.772 -0.2847  0.1603 -0.4159
13732TIP3    H162687   1.070   5.362  15.855  0.4571 -1.8341 -1.3346
13732TIP3    H262688   0.941   5.417  15.798  0.9684  2.6564  1.3662
13733TIP3   OH262689   0.995   1.254  17.155 -0.4853  0.6898 -0.1615
13733TIP3    H162690   0.949   1.309  17.092  0.0468  2.5528  1.0108
13733TIP3    H262691   0.926   1.204  17.199 -0.9720  0.3926 -1.2345
13734TIP3   OH262692   1.895   5.553  15.140 -0.2264 -0.1654  0.1311
13734TIP3    H162693   1.848   5.496  15.200 -0.2038  0.3657  0.6577
13734TIP3    H262694   1.958   5.600  15.195 -1.2479  1.4593 -0.0299
13735TIP3   OH262695   1.310   6.707  16.116 -0.3617 -0.7405 -0.0525
13735TIP3    H162696   1.247   6.745  16.177 -0.9281 -1.1713 -0.3552
13735TIP3    H262697   1.391   6.700  16.166 -0.3486  0.4824  0.1277
13736TIP3   OH262698   4.615   2.817  16.095  0.2876 -0.3962 -0.6063
13736TIP3    H162699   4.710   2.809  16.106  0.3544 -0.0501 -0.9499
13736TIP3    H262700   4.596   2.909  16.110  0.0439 -0.4063 -0.8380
13737TIP3   OH262701   3.404   1.174  13.458 -0.5078  0.5165  0.3293
13737TIP3    H162702   3.425   1.233  13.531 -1.0596 -0.5021  1.3389
13737TIP3    H262703   3.371   1.095  13.500 -0.6377 -0.1771 -1.0351
13738TIP3   OH262704   2.903   3.898   3.136  0.0095 -0.0074 -0.0231
13738TIP3    H162705   2.878   3.940   3.219 -0.5071 -1.6485  0.6930
13738TIP3    H262706   2.898   3.969   3.071 -1.1910  0.9610  1.0643
13739TIP3   OH262707   6.060   2.766   6.197  0.1002  0.1372 -0.5113
13739TIP3    H162708   6.049   2.681   6.153 -1.2071 -0.8175  1.5252
13739TIP3    H262709   5.971   2.797   6.213  0.5573  1.2576 -0.0230
13740TIP3   OH262710   5.538   0.716  15.356  0.5853  0.0826  0.1256
13740TIP3    H162711   5.553   0.633  15.310  0.6563 -0.5089  1.1833
13740TIP3    H262712   5.620   0.734  15.400  0.1547  0.0242  0.9725
13741TIP3   OH262713   6.117   0.328  16.733  0.7662 -0.3423  0.0981
13741TIP3    H162714   6.055   0.315  16.805 -0.2381  0.6639 -0.5404
13741TIP3    H262715   6.143   0.240  16.707  0.6985 -0.7368  1.3086
13742TIP3   OH262716   6.775   0.143   4.671  0.1888  0.3351  0.3294
13742TIP3    H162717   6.829   0.180   4.741  0.4981 -0.5877  0.5902
13742TIP3    H262718   6.728   0.071   4.712 -1.9626  1.6598  0.3402
13743TIP3   OH262719   2.563   5.890   6.271 -0.3674  0.1929 -0.3237
13743TIP3    H162720   2.533   5.972   6.309  0.5784  0.2961  0.2501
13743TIP3    H262721   2.567   5.829   6.345 -0.0037 -0.0531 -0.5416
13744TIP3   OH262722   1.233   1.037  17.002 -0.1248 -0.1719  0.1939
13744TIP3    H162723   1.209   1.098  16.933 -0.1074  1.3947  1.5053
13744TIP3    H262724   1.165   0.969  17.000 -0.4952  0.2199 -0.8815
13745TIP3   OH262725   4.365   5.868  13.093  0.2922  0.0501 -0.3065
13745TIP3    H162726   4.401   5.935  13.034 -1.7572  1.1862 -0.3564
13745TIP3    H262727   4.337   5.798  13.034  0.7554 -0.0384 -0.4260
13746TIP3   OH262728   1.360   6.728   3.301 -0.4130  0.0679  0.0727
13746TIP3    H162729   1.366   6.818   3.266 -1.4656 -0.4863 -1.6945
13746TIP3    H262730   1.372   6.738   3.395  0.6549  1.9283 -0.2063
13747TIP3   OH262731   5.759   4.982  13.070  0.5378  0.3498 -0.0214
13747TIP3    H162732   5.805   4.983  12.986 -0.4229  0.1933 -0.5559
13747TIP3    H262733   5.713   5.066  13.073  0.9976  0.5870  0.5963
13748TIP3   OH262734   0.004   0.893   3.510  0.2443  0.3059 -0.0203
13748TIP3    H162735  -0.025   0.804   3.531  1.2278  0.4453  2.2544
13748TIP3    H262736  -0.077   0.943   3.503 -0.2760 -0.5172 -0.0507
13749TIP3   OH262737   2.901   5.165   4.080  0.0203 -0.0011  0.3218
13749TIP3    H162738   2.973   5.129   4.029  0.1666  1.2748 -0.4165
13749TIP3    H262739   2.838   5.093   4.086  0.3223 -0.4085 -1.0485
13750TIP3   OH262740   5.002   4.341   1.266 -0.1880 -0.0492 -0.0016
13750TIP3    H162741   5.088   4.375   1.291 -0.7992  1.2720  0.3961
13750TIP3    H262742   4.988   4.373   1.178 -0.7701  0.7633  0.3744
13751TIP3   OH262743   4.709   0.764   2.737 -0.9839  0.3365 -0.6474
13751TIP3    H162744   4.641   0.734   2.798  0.1033  0.7741  0.8188
13751TIP3    H262745   4.788   0.769   2.789  0.1460  0.1055 -2.2701
13752TIP3   OH262746   5.668   2.106   2.107 -0.3637 -0.4089  0.4268
13752TIP3    H162747   5.572   2.101   2.115 -0.5559  1.8523 -0.0130
13752TIP3    H262748   5.698   2.123   2.196 -0.4649  0.0357  0.3757
13753TIP3   OH262749   6.491   2.014   1.900  0.5204 -0.3498  0.2803
13753TIP3    H162750   6.508   2.011   1.994  0.8433  1.4950  0.3219
13753TIP3    H262751   6.454   2.101   1.885 -2.0530 -1.5626 -0.9357
13754TIP3   OH262752   3.745   1.514   5.053  0.0543  0.7134  0.3895
13754TIP3    H162753   3.693   1.436   5.068  1.0515 -0.4423 -1.7049
13754TIP3    H262754   3.804   1.519   5.129 -0.8176  0.1377  1.1238
13755TIP3   OH262755   6.502   0.927  12.596 -0.4112 -0.0217  0.0250
13755TIP3    H162756   6.419   0.891  12.563 -0.0688  0.1224 -1.0610
13755TIP3    H262757   6.537   0.858  12.652  0.0362 -1.2746 -1.7081
13756TIP3   OH262758   4.915   0.615  13.511 -0.6826  0.1749 -0.1216
13756TIP3    H162759   4.919   0.592  13.418 -0.9079  0.1623 -0.1290
13756TIP3    H262760   4.873   0.702  13.512 -0.9507  0.0447 -0.0129
13757TIP3   OH262761   2.928   5.720  16.993 -0.6434  1.0638  0.0462
13757TIP3    H162762   3.012   5.712  17.038 -0.7345  2.8730  0.6071
13757TIP3    H262763   2.950   5.715  16.900 -0.1688 -0.3172  0.2064
13758TIP3   OH262764   4.565   0.841  14.731  0.2372  0.2311 -0.3397
13758TIP3    H162765   4.567   0.767  14.790  0.9966 -0.0222 -0.6669
13758TIP3    H262766   4.518   0.909  14.779 -1.8662 -0.9347 -0.6288
13759TIP3   OH262767   5.454   0.564   3.355  0.5638 -0.6055 -0.1718
13759TIP3    H162768   5.430   0.585   3.264  0.9622  3.0542  0.4023
13759TIP3    H262769   5.550   0.568   3.355  0.8272  6.4312  1.3457
13760TIP3   OH262770   4.554   1.373  15.500 -0.1750  0.0990  0.2452
13760TIP3    H162771   4.473   1.423  15.493  1.2424  2.8166  1.5292
13760TIP3    H262772   4.602   1.395  15.420 -0.0946 -0.3139  0.1795
13761TIP3   OH262773   1.500   6.188  12.074  0.0468  0.2949 -0.2253
13761TIP3    H162774   1.417   6.226  12.044 -1.8704 -1.2086  2.7604
13761TIP3    H262775   1.475   6.107  12.117  2.7767  0.9002  2.8339
13762TIP3   OH262776   3.474   5.745  15.127  0.3580 -0.6021 -0.3929
13762TIP3    H162777   3.509   5.736  15.215 -0.9955  1.0668  0.3615
13762TIP3    H262778   3.451   5.655  15.101  1.7474 -1.2543  0.4864
13763TIP3   OH262779   1.006   3.156  13.537  0.4510 -0.1334  0.3955
13763TIP3    H162780   1.000   3.247  13.567 -0.2335  0.4025 -1.2751
13763TIP3    H262781   1.075   3.157  13.471 -0.0664 -0.6722 -0.1617
13764TIP3   OH262782   0.203   5.321   6.683  0.0073  0.1027  0.0100
13764TIP3    H162783   0.198   5.226   6.696  0.7070 -0.1610 -1.4282
13764TIP3    H262784   0.286   5.335   6.637 -0.5095  1.3105 -0.6111
13765TIP3   OH262785   5.032   4.185   3.575  0.2508 -0.0256  0.3600
13765TIP3    H162786   5.093   4.259   3.584 -1.4808  1.7395 -1.5411
13765TIP3    H262787   5.081   4.110   3.611  2.2872  1.8812  1.8813
13766TIP3   OH262788   0.906   2.951   4.736  0.5961 -0.2979 -0.0451
13766TIP3    H162789   0.917   3.036   4.694 -1.7959  1.3017  2.2454
13766TIP3    H262790   0.975   2.947   4.802  0.7056 -0.1713 -0.1517
13767TIP3   OH262791   5.725   4.767   1.904  0.8107 -0.0488  0.3346
13767TIP3    H162792   5.753   4.806   1.821  0.4281 -0.1942  0.1371
13767TIP3    H262793   5.713   4.674   1.885 -1.5341  0.2726 -0.0496
13768TIP3   OH262794   5.658   4.017   0.332  0.1638  0.5634  0.8424
13768TIP3    H162795   5.625   3.928   0.333  0.3016  0.5132  1.5849
13768TIP3    H262796   5.595   4.066   0.280  0.1047  0.0300  0.4070
13769TIP3   OH262797   3.503   1.192  13.108 -0.2258 -0.0110  0.0788
13769TIP3    H162798   3.517   1.143  13.027 -0.1390  0.7555 -0.3803
13769TIP3    H262799   3.588   1.233  13.127  0.0908 -1.1381  1.2176
13770TIP3   OH262800   2.999   3.319   0.843  0.6780 -0.4255 -0.3280
13770TIP3    H162801   2.924   3.260   0.853  0.4966 -0.0244  0.7981
13770TIP3    H262802   2.997   3.374   0.922  3.0601 -1.4419  0.5360
13771TIP3   OH262803   2.910   4.663   4.172 -0.5548 -0.4577  0.0208
13771TIP3    H162804   2.895   4.569   4.176  1.7358 -0.8267  1.6914
13771TIP3    H262805   2.946   4.678   4.084  0.6134 -1.4461  0.3062
13772TIP3   OH262806   0.797   4.381  11.666 -0.3622 -0.1317 -0.2922
13772TIP3    H162807   0.873   4.338  11.627 -1.4152 -1.9567 -0.4673
13772TIP3    H262808   0.721   4.335  11.629 -1.6084  1.9942 -0.5550
13773TIP3   OH262809   4.529   3.976  15.175 -0.5371  0.3889  1.0000
13773TIP3    H162810   4.556   3.889  15.146 -0.0328  0.6783  0.5748
13773TIP3    H262811   4.459   3.960  15.239 -1.8197 -0.2905 -0.4892
13774TIP3   OH262812   2.097   0.897   2.304  0.6859  0.6882  0.4580
13774TIP3    H162813   2.150   0.927   2.378  1.9819  1.1227 -0.5980
13774TIP3    H262814   2.099   0.970   2.242  0.8378 -0.2003 -0.6195
13775TIP3   OH262815   2.869   6.423   4.765 -0.6882 -0.1667  0.1247
13775TIP3    H162816   2.956   6.427   4.805 -0.2594 -0.3884 -0.7688
13775TIP3    H262817   2.809   6.415   4.839  0.0602 -0.1374  0.7429
13776TIP3   OH262818   0.668   1.769  13.363  0.0124  0.6004  0.5692
13776TIP3    H162819   0.645   1.797  13.274 -1.6175  0.8349  1.0346
13776TIP3    H262820   0.616   1.826  13.420  0.9849  0.4075  1.6844
13777TIP3   OH262821   0.718   1.538   6.056  0.3289 -0.4232 -0.2638
13777TIP3    H162822   0.762   1.620   6.076  0.1777 -0.3476 -0.2346
13777TIP3    H262823   0.768   1.471   6.101 -0.8788 -0.1058  1.6777
13778TIP3   OH262824   5.542   2.652  16.663 -0.1692  0.3823 -0.8161
13778TIP3    H162825   5.596   2.573  16.665  0.7681  0.9940 -1.3050
13778TIP3    H262826   5.586   2.709  16.600 -0.8370  1.2857 -0.4749
13779TIP3   OH262827   0.865   5.071  16.614  0.4127  0.2864 -0.1874
13779TIP3    H162828   0.855   5.111  16.701 -1.5631 -2.3768  0.9318
13779TIP3    H262829   0.790   5.103  16.565  0.7448  0.6526 -0.4640
13780TIP3   OH262830   0.744   0.669   4.289  0.0936  0.4574 -0.1421
13780TIP3    H162831   0.687   0.674   4.365 -0.9076  0.7266 -0.8965
13780TIP3    H262832   0.764   0.760   4.268  1.2436  0.3563  0.4234
13781TIP3   OH262833   2.749   1.866   4.256  0.1137 -0.4579  0.1567
13781TIP3    H162834   2.744   1.781   4.214  1.3343 -0.8135  0.6884
13781TIP3    H262835   2.662   1.880   4.292 -0.4043 -0.9868 -0.8725
13782TIP3   OH262836   0.079   2.632  17.112  0.3004  0.1161  0.3540
13782TIP3    H162837   0.034   2.715  17.127  0.6806 -0.0712  3.2514
13782TIP3    H262838   0.167   2.657  17.083  0.2261  0.7269  0.6280
13783TIP3   OH262839   4.759   4.737   0.356 -0.4642 -0.1968  0.8748
13783TIP3    H162840   4.777   4.825   0.391 -0.5234  0.6930 -1.1684
13783TIP3    H262841   4.843   4.692   0.361 -0.0020  0.5806  0.3784
13784TIP3   OH262842   0.334   5.448  10.658  0.1061 -0.2039  0.0326
13784TIP3    H162843   0.345   5.353  10.650  1.6895 -0.3107  2.4115
13784TIP3    H262844   0.415   5.485  10.622 -0.9157  0.3534 -1.7971
13785TIP3   OH262845   3.548   5.241   5.164  0.3427 -0.1816 -0.1957
13785TIP3    H162846   3.502   5.196   5.093 -0.6448 -1.6568  1.2985
13785TIP3    H262847   3.490   5.313   5.189  0.5332  0.1310 -0.6411
13786TIP3   OH262848   0.555   3.838   2.612  0.6515  0.0786  0.6034
13786TIP3    H162849   0.629   3.894   2.634  2.8374 -2.7109  0.9354
13786TIP3    H262850   0.503   3.833   2.693  0.6085  1.2561  0.6659
13787TIP3   OH262851   5.829   4.626  13.327 -0.1595 -0.6980  0.2557
13787TIP3    H162852   5.867   4.617  13.415 -1.6625 -0.4598  0.9619
13787TIP3    H262853   5.885   4.691  13.284 -0.1090  0.1172  1.4771
13788TIP3   OH262854   4.854   1.495   5.530 -0.0046 -0.0637  0.0581
13788TIP3    H162855   4.921   1.525   5.469 -0.2915  2.4038  0.8539
13788TIP3    H262856   4.902   1.445   5.596  0.8516  0.4356 -0.1762
13789TIP3   OH262857   3.412   2.878   2.191  0.5271 -0.5460 -0.3151
13789TIP3    H162858   3.444   2.925   2.114 -1.7717 -0.1725 -1.0878
13789TIP3    H262859   3.491   2.838   2.228  2.5499  3.1944 -0.0368
13790TIP3   OH262860   4.126   2.034   3.720  0.2271  0.7169  0.5202
13790TIP3    H162861   4.091   2.023   3.631  0.6986  2.2685  0.1026
13790TIP3    H262862   4.073   1.975   3.774 -1.5580  1.3478 -0.4430
13791TIP3   OH262863   2.324   2.609   3.394  0.1437 -0.0951 -0.0726
13791TIP3    H162864   2.409   2.581   3.360  0.2667 -0.3217  0.4019
13791TIP3    H262865   2.270   2.531   3.393  0.4569 -0.3527  1.1619
13792TIP3   OH262866   1.463   5.342   2.895  0.9790  0.0326 -0.1439
13792TIP3    H162867   1.464   5.355   2.990  1.0364 -0.9779  0.0069
13792TIP3    H262868   1.372   5.321   2.875  1.3619 -2.0522  0.0528
13793TIP3   OH262869   0.978   1.654   4.002  0.7333 -0.5853  0.0415
13793TIP3    H162870   0.918   1.589   4.038  2.1031 -1.3703  0.9563
13793TIP3    H262871   0.924   1.703   3.939 -1.0035 -0.8975  1.2143
13794TIP3   OH262872   4.774   5.089  12.993  0.0067  0.0015 -0.1567
13794TIP3    H162873   4.723   5.125  13.065 -1.2084 -1.2379 -0.3567
13794TIP3    H262874   4.826   5.020  13.032  1.3010  1.0049 -0.0282
13795TIP3   OH262875   4.717   0.479  12.849 -0.3105  0.0852  0.0196
13795TIP3    H162876   4.645   0.458  12.789 -0.4102  2.7977 -0.9640
13795TIP3    H262877   4.690   0.442  12.933 -3.1810  1.3983 -0.1728
13796TIP3   OH262878   2.445   1.010   4.381  0.0201 -0.1251  0.3537
13796TIP3    H162879   2.522   0.981   4.332 -0.6848  0.2593 -1.0110
13796TIP3    H262880   2.374   0.953   4.350 -0.5833  0.5766  0.4207
13797TIP3   OH262881   3.812   5.156  11.744 -0.5654  0.3285 -0.7884
13797TIP3    H162882   3.736   5.116  11.787  0.5615 -2.0580 -0.8685
13797TIP3    H262883   3.801   5.135  11.651  0.1688 -0.0157 -0.8014
13798TIP3   OH262884   1.560   5.415  14.623 -0.1956  0.1103 -0.2268
13798TIP3    H162885   1.474   5.374  14.614  0.4428 -1.3774  0.2509
13798TIP3    H262886   1.590   5.389  14.710  0.4146  1.2935 -0.0556
13799TIP3   OH262887   0.992   1.931   3.294 -0.8287 -0.6042  0.4212
13799TIP3    H162888   1.047   1.863   3.255  0.2555 -0.9547  2.4283
13799TIP3    H262889   1.037   2.013   3.275 -1.4579 -0.5224 -0.8704
13800TIP3   OH262890   5.494   1.837   0.762  0.1351  0.3294  0.0201
13800TIP3    H162891   5.455   1.919   0.793 -1.0770 -0.5051  0.8134
13800TIP3    H262892   5.495   1.846   0.666 -0.1729  1.1828  0.0875
13801TIP3   OH262893   2.090   1.086   0.497 -0.3764  0.7390  0.0684
13801TIP3    H162894   2.183   1.090   0.474 -0.7878  0.2483 -1.8095
13801TIP3    H262895   2.082   1.009   0.554  0.1583 -0.0359 -0.8801
13802TIP3   OH262896   0.578   2.130   0.057 -0.7169 -0.1805  0.5039
13802TIP3    H162897   0.641   2.115   0.127  0.8778 -0.9150 -1.0077
13802TIP3    H262898   0.629   2.167  -0.015 -2.2370  0.3150 -0.3797
13803TIP3   OH262899   5.441   4.436  11.168 -0.3241  0.0582  0.3682
13803TIP3    H162900   5.466   4.430  11.075 -3.2082  1.0891 -0.5843
13803TIP3    H262901   5.415   4.346  11.191 -0.0406 -0.1126  0.0348
13804TIP3   OH262902   4.118   1.058   3.280  0.0026  0.2849  0.0921
13804TIP3    H162903   4.122   0.969   3.315  1.7800  0.5183  0.5616
13804TIP3    H262904   4.024   1.078   3.278 -0.3603 -1.0927  1.2341
13805TIP3   OH262905   2.153   6.717  12.581 -0.1794 -0.1331  0.5735
13805TIP3    H162906   2.155   6.671  12.497  0.0070  1.0686 -0.0993
13805TIP3    H262907   2.127   6.806  12.559  0.8139  0.4529  1.6747
13806TIP3   OH262908   1.223   6.338   4.594  0.1967 -0.0279 -0.3167
13806TIP3    H162909   1.234   6.292   4.511  3.4193  0.5460 -0.3208
13806TIP3    H262910   1.279   6.291   4.656 -0.9580  0.4542  1.1583
13807TIP3   OH262911   6.343   3.832  13.981 -0.1880  0.3002 -1.0386
13807TIP3    H162912   6.357   3.927  13.978 -1.8558  0.5951 -4.1652
13807TIP3    H262913   6.408   3.797  13.920  1.4683 -0.8312  1.2573
13808TIP3   OH262914   5.639   3.165  11.860 -0.1066  0.1125  0.6594
13808TIP3    H162915   5.586   3.156  11.939 -0.2751  0.7043  0.6177
13808TIP3    H262916   5.662   3.258  11.857 -1.9775  0.6109 -1.1632
13809TIP3   OH262917   5.251   0.043   3.542 -0.1577  0.3179 -0.9144
13809TIP3    H162918   5.218   0.083   3.623  1.7757 -2.1971  1.3078
13809TIP3    H262919   5.310   0.110   3.506 -1.5941  1.7674 -0.7101
13810TIP3   OH262920   2.049   1.051   4.161 -0.6921  1.1531  0.3534
13810TIP3    H162921   1.955   1.070   4.168 -0.8132  0.4931  0.5733
13810TIP3    H262922   2.073   1.016   4.246  0.1490  2.8874  0.8825
13811TIP3   OH262923   4.382   1.987  11.307 -0.2303 -0.0738 -0.6177
13811TIP3    H162924   4.435   1.909  11.288  0.3271 -0.1596  1.0760
13811TIP3    H262925   4.368   2.028  11.222  2.1057 -0.3532 -1.2245
13812TIP3   OH262926   6.536   1.425   1.964 -0.5553  0.1753  0.9386
13812TIP3    H162927   6.537   1.357   1.896 -0.0792 -0.1460  1.2552
13812TIP3    H262928   6.479   1.493   1.930 -0.3726 -0.0150  0.2438
13813TIP3   OH262929   4.327   6.781   4.491 -0.0720  0.3582 -0.4819
13813TIP3    H162930   4.332   6.827   4.575  0.4517 -0.3555 -0.1086
13813TIP3    H262931   4.388   6.827   4.434 -0.1587  0.6204 -0.3667
13814TIP3   OH262932   4.717   6.503   0.234 -0.0697 -0.0825  0.4033
13814TIP3    H162933   4.713   6.568   0.304 -1.0999 -0.7867  1.0361
13814TIP3    H262934   4.702   6.553   0.154  1.9875  0.8653  0.5630
13815TIP3   OH262935   4.607   3.018  13.403  0.2523 -0.3940  0.6445
13815TIP3    H162936   4.614   3.054  13.491 -1.4499 -0.0132  0.6689
13815TIP3    H262937   4.526   2.966  13.404  0.0963 -0.2278 -0.7284
13816TIP3   OH262938   2.115   6.571  12.363 -0.4464 -0.4084  0.1470
13816TIP3    H162939   2.023   6.569  12.338 -0.0416  1.5160 -1.8788
13816TIP3    H262940   2.148   6.484  12.340 -1.7045 -1.0827  0.7979
13817TIP3   OH262941   3.436   5.741   6.319  0.0864  0.2414  0.6262
13817TIP3    H162942   3.384   5.822   6.311  0.9061  0.6270 -1.9226
13817TIP3    H262943   3.371   5.671   6.320 -0.5868  0.8292 -0.1202
13818TIP3   OH262944   4.652   3.843   0.897 -0.0478  0.2754 -0.2000
13818TIP3    H162945   4.623   3.760   0.935  0.1279 -0.5832 -1.8470
13818TIP3    H262946   4.620   3.909   0.958 -2.9391 -0.7974 -0.4132
13819TIP3   OH262947   6.777   6.605   0.131  0.1034 -0.2873 -0.5342
13819TIP3    H162948   6.869   6.579   0.127 -0.1592 -2.4990  3.0416
13819TIP3    H262949   6.730   6.524   0.150 -2.2487  1.1721  0.2630
13820TIP3   OH262950   2.997   2.866   0.313 -0.1501  0.0329  0.0947
13820TIP3    H162951   2.995   2.779   0.273  0.7190 -0.0807  0.2848
13820TIP3    H262952   3.034   2.922   0.246 -0.5938  0.2412  0.0187
13821TIP3   OH262953   1.034   4.821  10.850  0.1171 -0.1401  0.5085
13821TIP3    H162954   0.995   4.908  10.862  2.2420  0.9700 -0.1386
13821TIP3    H262955   1.051   4.789  10.938 -0.7508  0.0477  0.7540
13822TIP3   OH262956   4.232   1.580   3.175 -0.1712  0.1137 -0.2686
13822TIP3    H162957   4.295   1.514   3.147 -0.2909 -0.4057  0.6669
13822TIP3    H262958   4.159   1.530   3.212  0.3762  0.7634  1.8389
13823TIP3   OH262959   2.087   6.336   5.032 -0.3698  0.3328 -0.1493
13823TIP3    H162960   2.068   6.412   5.085 -0.3933  0.2165  0.0101
13823TIP3    H262961   2.039   6.350   4.950 -0.4165  0.4618 -0.0984
13824TIP3   OH262962   4.257   6.459  16.499 -0.2457  0.0328 -0.0853
13824TIP3    H162963   4.185   6.439  16.558  1.6495 -1.8942  1.7355
13824TIP3    H262964   4.329   6.485  16.556  1.1438 -0.1167 -1.6818
13825TIP3   OH262965   6.052   5.701  13.458  0.0932 -0.2372  0.4619
13825TIP3    H162966   6.022   5.641  13.390  1.9712  1.2239 -1.8040
13825TIP3    H262967   6.115   5.650  13.509  1.1491 -0.4559 -0.9959
13826TIP3   OH262968   4.134   5.955  14.739 -0.3639  0.0908  0.2824
13826TIP3    H162969   4.096   6.013  14.805 -1.4303 -0.0367 -0.1884
13826TIP3    H262970   4.058   5.911  14.699  0.4041 -1.4648  0.4697
13827TIP3   OH262971   2.630   1.146  16.699  0.2929 -0.3561  0.6145
13827TIP3    H162972   2.725   1.149  16.687  0.0994  0.4662 -1.0053
13827TIP3    H262973   2.599   1.231  16.668 -0.9307 -0.3664  1.7216
13828TIP3   OH262974   3.770   5.441  11.339 -0.0926  0.4883 -0.2730
13828TIP3    H162975   3.865   5.435  11.356  0.1072  1.0361 -1.1484
13828TIP3    H262976   3.757   5.388  11.261 -0.5616  0.1985 -0.0011
13829TIP3   OH262977   2.573   1.054  14.756 -0.0951 -0.0022  0.5352
13829TIP3    H162978   2.599   1.080  14.844 -1.8300  0.1650  1.0319
13829TIP3    H262979   2.645   0.999  14.724  1.9990  2.3829  0.8482
13830TIP3   OH262980   3.813   3.979   4.118  0.1167 -0.1297  0.0023
13830TIP3    H162981   3.860   3.968   4.201  1.1960 -0.7362 -0.6675
13830TIP3    H262982   3.834   4.068   4.090  1.0449 -0.4555 -0.3817
13831TIP3   OH262983   3.509   0.335  10.988  0.1062  0.5444 -0.9164
13831TIP3    H162984   3.548   0.377  11.065  0.9534 -2.4928  0.4584
13831TIP3    H262985   3.575   0.272  10.959 -2.3879 -2.5845 -0.4162
13832TIP3   OH262986   2.458   5.427  12.313  0.2460 -0.2392  0.0160
13832TIP3    H162987   2.492   5.497  12.257 -0.4201 -0.8161 -1.1681
13832TIP3    H262988   2.367   5.416  12.284 -0.6409  0.4813  2.3049
13833TIP3   OH262989   4.509   4.653   5.887 -0.1705 -0.4446 -0.1143
13833TIP3    H162990   4.535   4.561   5.879 -1.4694 -0.7528 -1.2737
13833TIP3    H262991   4.521   4.674   5.980 -1.2742 -2.2555  0.4851
13834TIP3   OH262992   3.910   5.498  15.087 -0.4299  0.4869  0.0191
13834TIP3    H162993   3.872   5.573  15.134 -2.5000 -0.7517  0.4784
13834TIP3    H262994   3.955   5.448  15.155 -1.6080 -0.1926  0.3367
13835TIP3   OH262995   3.021   1.000  10.757 -0.4628  0.6030 -0.0046
13835TIP3    H162996   2.988   0.989  10.846 -3.2654  1.7788 -0.8032
13835TIP3    H262997   3.041   1.094  10.751  3.5884 -0.0233  0.4883
13836TIP3   OH262998   5.249   1.060   5.579  0.2002  0.0544  0.1645
13836TIP3    H162999   5.219   1.124   5.643  0.4527  0.1468  0.1914
13836TIP3    H263000   5.183   0.991   5.581  0.0010  0.2493  0.2350
13837TIP3   OH263001   3.449   1.190  13.947 -0.6781 -0.2280 -0.3893
13837TIP3    H163002   3.361   1.224  13.937 -0.8495  0.0718  1.7617
13837TIP3    H263003   3.504   1.268  13.959 -0.0037 -0.3806 -2.0638
13838TIP3   OH263004   0.693   2.591   5.626  0.0422 -0.1291 -0.1515
13838TIP3    H163005   0.734   2.674   5.652  0.3121 -0.7159  1.3455
13838TIP3    H263006   0.601   2.614   5.611  0.7371  1.1792 -3.4448
13839TIP3   OH263007   4.485   4.057  16.739 -0.3745 -0.3678 -0.2963
13839TIP3    H163008   4.415   4.120  16.719  0.3451  0.6975  0.4819
13839TIP3    H263009   4.455   4.013  16.819 -0.4842 -0.4087 -0.3594
13840TIP3   OH263010   0.997   1.358   2.109 -0.5200  0.3216 -0.6451
13840TIP3    H163011   0.949   1.440   2.103 -0.8474  0.1199 -0.8412
13840TIP3    H263012   1.087   1.383   2.131 -0.4929  0.7706 -1.2377
13841TIP3   OH263013   1.523   1.883   4.611 -0.3071  0.0967  0.8584
13841TIP3    H163014   1.540   1.835   4.529  0.0846 -0.3956  1.2227
13841TIP3    H263015   1.598   1.864   4.666 -0.4854  0.5727  1.2739
13842TIP3   OH263016   6.443   5.974   3.370 -0.0916  0.6180 -0.0618
13842TIP3    H163017   6.500   5.902   3.395  0.2835  0.9090 -0.0758
13842TIP3    H263018   6.435   5.967   3.275 -1.3444 -0.3584  0.0847
13843TIP3   OH263019   3.137   3.705  16.357  0.2547 -0.1424  0.1220
13843TIP3    H163020   3.060   3.702  16.414 -0.3361  1.1566 -0.5602
13843TIP3    H263021   3.142   3.796  16.329  2.2187 -0.1384  0.3569
13844TIP3   OH263022   1.627   1.653  15.681  0.4312 -0.0741 -0.1806
13844TIP3    H163023   1.670   1.739  15.684 -0.5402  0.4093  0.8596
13844TIP3    H263024   1.680   1.598  15.739 -1.3540  1.0653  2.7578
13845TIP3   OH263025   4.237   6.352  16.194  0.3098 -0.2355 -0.0446
13845TIP3    H163026   4.249   6.314  16.281 -1.8993 -0.8425  0.0603
13845TIP3    H263027   4.294   6.429  16.193  0.7744 -0.5192  1.7332
13846TIP3   OH263028   3.218   0.284  10.973  0.1512 -0.4391  0.4338
13846TIP3    H163029   3.313   0.279  10.984  0.1487 -0.5116  0.4252
13846TIP3    H263030   3.196   0.205  10.922  0.3546  0.6240 -1.4097
13847TIP3   OH263031   4.289   0.643  10.497 -0.1700 -0.1534  0.2627
13847TIP3    H163032   4.279   0.672  10.406  2.2371  1.9605  0.5589
13847TIP3    H263033   4.262   0.719  10.549 -2.1518 -1.5398  1.4459
13848TIP3   OH263034   3.581   6.098  13.998 -0.2386 -0.2921 -0.0010
13848TIP3    H163035   3.606   6.169  13.939 -1.8920  0.4375  0.1184
13848TIP3    H263036   3.586   6.137  14.086 -2.1642  0.0525 -0.0026
13849TIP3   OH263037   0.282   6.611  14.565 -0.0603 -0.0019 -0.4596
13849TIP3    H163038   0.370   6.588  14.534 -0.0426 -0.3428 -0.1646
13849TIP3    H263039   0.253   6.534  14.614  0.5723  1.0945  1.7856
13850TIP3   OH263040   1.474   5.103   3.784  0.7110  0.3231 -0.2901
13850TIP3    H163041   1.387   5.121   3.821  0.0299  1.4479 -2.2692
13850TIP3    H263042   1.464   5.016   3.744  0.8326 -0.0042  0.3757
13851TIP3   OH263043   6.078   5.204  14.069 -0.6221  0.8150 -0.2651
13851TIP3    H163044   6.104   5.128  14.016 -3.0853  0.0535 -0.5057
13851TIP3    H263045   6.136   5.202  14.145  0.1304 -0.6214 -0.8479
13852TIP3   OH263046   4.526   3.617  13.854 -0.7560 -0.1791 -0.2937
13852TIP3    H163047   4.531   3.566  13.774  0.9082 -2.5151  1.1750
13852TIP3    H263048   4.487   3.557  13.918  0.0142  0.8523  1.1969
13853TIP3   OH263049   5.658   4.470   1.839 -0.0065  0.1296  0.7716
13853TIP3    H163050   5.564   4.454   1.838 -0.3949  1.6434  3.4879
13853TIP3    H263051   5.696   4.389   1.874 -0.5495  0.2078  1.5756
13854TIP3   OH263052   5.027   5.561   5.159 -0.4610  0.6076  0.2085
13854TIP3    H163053   4.992   5.548   5.247 -1.1166 -0.5356 -0.1964
13854TIP3    H263054   5.122   5.562   5.170 -0.5265  0.0733  0.8883
13855TIP3   OH263055   5.281   6.724  14.980  0.5342 -0.5767 -0.5370
13855TIP3    H163056   5.361   6.760  14.944  1.5213 -2.9067 -0.8199
13855TIP3    H263057   5.286   6.743  15.074  0.4439  0.9771 -0.8289
13856TIP3   OH263058   3.261   6.409  15.014 -0.4803 -0.1521 -0.2468
13856TIP3    H163059   3.338   6.407  14.958 -1.1416  1.7451 -1.3179
13856TIP3    H263060   3.238   6.317  15.027  1.6138 -0.7334 -0.3447
13857TIP3   OH263061   3.553   6.441  15.994  0.5367 -0.4650  0.2064
13857TIP3    H163062   3.599   6.385  15.932  2.4694  1.0772  0.1437
13857TIP3    H263063   3.470   6.397  16.010  1.0707 -2.1952 -1.4889
13858TIP3   OH263064   2.354   2.374   6.152  0.2800 -0.0229 -0.0091
13858TIP3    H163065   2.327   2.386   6.243 -0.1743  0.0826 -0.1551
13858TIP3    H263066   2.298   2.303   6.120 -2.0695  2.2187 -1.2281
13859TIP3   OH263067   6.065   6.048   4.241  0.4288  0.5939 -0.2898
13859TIP3    H163068   6.052   5.953   4.244  0.3639  0.6318  1.3598
13859TIP3    H263069   5.976   6.084   4.245  0.4483  0.7423 -1.0047
13860TIP3   OH263070   2.723   2.247   2.524  0.0753 -0.1913 -0.2790
13860TIP3    H163071   2.798   2.273   2.471 -0.5408 -0.7909 -1.4788
13860TIP3    H263072   2.648   2.289   2.481 -0.8111 -2.9043 -1.6195
13861TIP3   OH263073   2.084   1.922  14.848 -0.1942 -0.9410 -0.0176
13861TIP3    H163074   2.174   1.928  14.881 -0.5321 -0.1505  0.8177
13861TIP3    H263075   2.054   1.836  14.876 -0.3149 -0.4671  1.3765
13862TIP3   OH263076   4.034   1.668   5.095  0.0048 -0.1727 -0.0563
13862TIP3    H163077   4.084   1.735   5.048  0.8192 -0.5347  0.2788
13862TIP3    H263078   4.100   1.608   5.129 -0.3513  0.9565  3.0011
13863TIP3   OH263079   4.881   4.207  16.282 -0.2254  0.0091  0.2709
13863TIP3    H163080   4.823   4.145  16.327 -1.5093  0.2310 -1.0084
13863TIP3    H263081   4.822   4.259  16.227  1.0532  1.1438 -0.0671
13864TIP3   OH263082   2.771   4.050  14.294  0.0768 -0.1098 -0.0797
13864TIP3    H163083   2.829   4.114  14.336  0.4135  0.9155 -1.9922
13864TIP3    H263084   2.828   4.003  14.233 -0.5597 -0.9737 -0.0207
13865TIP3   OH263085   1.388   1.798  15.368  0.1674  0.5527  0.3033
13865TIP3    H163086   1.481   1.814  15.356  1.0476 -1.9440  2.6688
13865TIP3    H263087   1.359   1.759  15.285  1.8899 -1.0527  0.4103
13866TIP3   OH263088   3.007   4.221  12.097 -0.5652 -0.1196  0.7022
13866TIP3    H163089   3.077   4.184  12.151 -0.0094 -0.1191  0.0002
13866TIP3    H263090   2.951   4.267  12.158 -1.7445 -2.7460  1.7825
13867TIP3   OH263091   3.736   3.842  13.107 -0.3461  0.4377 -0.2951
13867TIP3    H163092   3.812   3.897  13.087  0.0014 -0.1568 -0.6325
13867TIP3    H263093   3.764   3.788  13.181 -0.6718  0.6842  0.0085
13868TIP3   OH263094   6.030   0.275  10.907  0.3607 -0.5791  0.4280
13868TIP3    H163095   6.123   0.257  10.919  0.6764  1.2246  1.1481
13868TIP3    H263096   6.026   0.328  10.828  0.1816  0.6976  1.2561
13869TIP3   OH263097   0.707   3.875  12.716 -0.2473  0.2905 -0.8143
13869TIP3    H163098   0.638   3.917  12.767  0.0907 -0.5022  0.3506
13869TIP3    H263099   0.786   3.887  12.769  0.0415 -0.9013 -0.9457
13870TIP3   OH263100   1.756   5.835  11.379  0.7262  0.8524 -0.6619
13870TIP3    H163101   1.845   5.826  11.343  0.2468  0.5193 -1.8344
13870TIP3    H263102   1.716   5.903  11.326 -0.6052 -0.9253 -2.0762
13871TIP3   OH263103   1.724   6.427  16.939  0.5592 -0.0727  0.3825
13871TIP3    H163104   1.629   6.427  16.950  0.5449  1.0160  0.3363
13871TIP3    H263105   1.756   6.367  17.007 -0.1598 -0.5363  0.3258
13872TIP3   OH263106   3.681   4.264  14.399 -0.4729  0.0748  0.2249
13872TIP3    H163107   3.662   4.247  14.491  0.8500 -0.3752  0.4344
13872TIP3    H263108   3.682   4.359  14.392  0.6451  0.1357  0.9675
13873TIP3   OH263109   2.836   1.094   3.795 -0.6854 -0.0855 -0.1082
13873TIP3    H163110   2.812   1.122   3.707  1.3826 -1.0455 -1.0690
13873TIP3    H263111   2.892   1.164   3.829  0.9159 -0.9837 -0.7788
13874TIP3   OH263112   5.011   3.972   3.282  0.4701  0.2062 -0.1880
13874TIP3    H163113   4.953   3.948   3.354  0.4122 -1.5075 -0.7658
13874TIP3    H263114   5.092   3.923   3.300  2.0761  3.0268  0.9501
13875TIP3   OH263115   3.513   2.360  16.913  0.0368  0.1710  0.0907
13875TIP3    H163116   3.533   2.267  16.907  2.1170  0.5513  0.5416
13875TIP3    H263117   3.551   2.398  16.834  0.6224  0.8368  0.6726
13876TIP3   OH263118   1.979   3.024  12.827 -0.8551  0.0239  0.0897
13876TIP3    H163119   2.043   3.083  12.867 -0.4306 -0.4835  0.1810
13876TIP3    H263120   2.000   2.938  12.864  0.4527 -0.7524 -2.1881
13877TIP3   OH263121   0.661   2.538  15.091  0.2230 -0.3556 -0.4440
13877TIP3    H163122   0.738   2.595  15.093  0.1858 -0.3237  0.2125
13877TIP3    H263123   0.595   2.587  15.043  0.0614  0.3315  0.4542
13878TIP3   OH263124   0.242   6.266   3.535 -0.0896  0.1318 -0.2849
13878TIP3    H163125   0.294   6.319   3.595 -0.7736  0.9905 -0.4419
13878TIP3    H263126   0.260   6.303   3.448 -1.7193  1.1108 -0.2456
13879TIP3   OH263127   3.630   0.672   4.617  0.0125 -0.5404  0.2851
13879TIP3    H163128   3.601   0.581   4.618 -0.4992 -0.3727  0.9450
13879TIP3    H263129   3.598   0.706   4.533 -0.1504 -0.8522  0.2200
13880TIP3   OH263130   2.192   6.066  13.467 -0.4626 -0.0900  0.0988
13880TIP3    H163131   2.207   6.158  13.491 -1.0897  0.1829 -0.5182
13880TIP3    H263132   2.171   6.023  13.550 -0.4958  0.3935  0.3490
13881TIP3   OH263133   5.520   4.230   5.867  0.3519 -0.5545 -0.0299
13881TIP3    H163134   5.473   4.228   5.951  1.6159  1.7690  0.8170
13881TIP3    H263135   5.587   4.162   5.876  0.6410 -0.1621  0.9719
13882TIP3   OH263136   4.327   2.117  12.216 -0.0663  0.1700 -0.0615
13882TIP3    H163137   4.385   2.172  12.269  0.8821 -0.7739 -0.1003
13882TIP3    H263138   4.363   2.122  12.127  0.0523 -0.5484 -0.0568
13883TIP3   OH263139   0.696   3.381  14.652  0.1678  0.4155  0.1158
13883TIP3    H163140   0.740   3.376  14.567 -0.6313  0.7381 -0.3246
13883TIP3    H263141   0.766   3.370  14.716  0.6122 -1.1547 -0.5970
13884TIP3   OH263142   6.650   6.171  11.222  0.1966  0.4017 -0.2790
13884TIP3    H163143   6.561   6.188  11.193  0.3659  0.0539 -1.0374
13884TIP3    H263144   6.649   6.079  11.250  0.2383  0.4957  0.0428
13885TIP3   OH263145   5.671   3.737   5.235  0.2964 -0.3436  0.1414
13885TIP3    H163146   5.607   3.708   5.170  0.3056  0.7098 -0.3656
13885TIP3    H263147   5.621   3.744   5.316  0.2331 -1.4460  0.2045
13886TIP3   OH263148   2.911   1.745  15.625 -0.2073 -0.0957  0.3208
13886TIP3    H163149   2.972   1.792  15.568 -1.0856  0.4716 -0.1768
13886TIP3    H263150   2.892   1.807  15.696  1.1413 -0.9167  1.4601
13887TIP3   OH263151   2.062   3.322  13.329 -0.3426 -0.2565 -0.1700
13887TIP3    H163152   2.103   3.352  13.411 -0.9271  0.4531 -0.1271
13887TIP3    H263153   2.034   3.233  13.348  0.7096 -0.5727 -0.0301
13888TIP3   OH263154   2.101   2.833  15.154 -0.2660  0.0296 -0.0123
13888TIP3    H163155   2.062   2.752  15.121  0.8066 -0.5971  0.2054
13888TIP3    H263156   2.068   2.841  15.243  0.5167 -0.8167  0.3790
13889TIP3   OH263157   1.489   0.421   3.256  0.2211 -0.0028  0.5705
13889TIP3    H163158   1.545   0.345   3.242  0.3881  0.3177 -0.5946
13889TIP3    H263159   1.423   0.390   3.318 -0.6876 -1.6320 -1.0988
13890TIP3   OH263160   1.141   0.886  13.527  0.2671 -0.2472  0.2518
13890TIP3    H163161   1.050   0.858  13.519  0.0962  0.1113  0.8943
13890TIP3    H263162   1.139   0.981  13.515  0.7910 -0.4092 -1.4971
13891TIP3   OH263163   3.934   4.665   1.354 -0.6784  0.1307 -0.5474
13891TIP3    H163164   3.981   4.625   1.280  0.1239 -0.8771  0.4645
13891TIP3    H263165   3.875   4.597   1.385 -0.3735  0.2233  0.2751
13892TIP3   OH263166   3.766   2.531   0.496  0.0900 -0.0231 -0.0364
13892TIP3    H163167   3.718   2.477   0.559  1.0726 -1.2839 -0.3169
13892TIP3    H263168   3.702   2.554   0.429 -0.5425 -0.1444  0.5224
13893TIP3   OH263169   5.916   0.493   5.543 -0.0775 -0.4585 -0.1933
13893TIP3    H163170   5.933   0.425   5.609 -2.5558 -0.9538  0.0236
13893TIP3    H263171   5.975   0.470   5.471  2.2075 -0.3080  1.4855
13894TIP3   OH263172   5.459   0.616   6.235 -0.0614  0.3900  0.4396
13894TIP3    H163173   5.440   0.583   6.322 -1.9209  0.8851  0.2561
13894TIP3    H263174   5.391   0.682   6.218 -0.0508 -0.0405 -1.5612
13895TIP3   OH263175   1.319   5.109  15.383  0.0069  0.2155  0.5338
13895TIP3    H163176   1.368   5.183  15.419 -0.0798 -0.1654  1.4419
13895TIP3    H263177   1.386   5.042  15.368 -0.0952  0.0333  0.8869
13896TIP3   OH263178   2.430   5.818  14.239 -0.1608 -0.3943  0.4228
13896TIP3    H163179   2.388   5.777  14.164  0.5741  0.8211 -0.7026
13896TIP3    H263180   2.510   5.768  14.252 -0.1803 -0.4723  0.2476
13897TIP3   OH263181   2.032   1.558  11.552  0.5320 -0.1019 -0.6128
13897TIP3    H163182   2.001   1.482  11.502  0.5726 -0.4454 -0.1230
13897TIP3    H263183   1.987   1.551  11.636  1.7655 -0.4790  0.0297
13898TIP3   OH263184   5.897   0.580  15.707 -0.3613 -0.5564 -0.2804
13898TIP3    H163185   5.807   0.549  15.714  0.3526 -2.6030  0.3986
13898TIP3    H263186   5.951   0.501  15.714  1.5559  0.7767  1.2880
13899TIP3   OH263187   2.281   5.138   1.193 -0.2481  0.2441 -0.2787
13899TIP3    H163188   2.318   5.076   1.256  1.8755  1.3553 -0.3385
13899TIP3    H263189   2.227   5.084   1.136 -2.4742 -0.7862  2.5630
13900TIP3   OH263190   5.409   4.594  11.622 -0.1288 -0.4307 -0.1617
13900TIP3    H163191   5.439   4.542  11.696  0.2863 -0.4634 -0.3460
13900TIP3    H263192   5.378   4.530  11.558 -0.1687 -0.4216 -0.1511
13901TIP3   OH263193   0.396   2.126  11.341 -0.3101  0.3960 -0.0388
13901TIP3    H163194   0.373   2.046  11.293  0.6290 -0.9784  1.6994
13901TIP3    H263195   0.492   2.130  11.334 -0.0869 -0.1599  2.1239
13902TIP3   OH263196   4.756   4.210  12.108 -0.2084 -0.2233 -0.4858
13902TIP3    H163197   4.774   4.124  12.146 -0.0747 -1.5261 -3.2404
13902TIP3    H263198   4.660   4.217  12.109 -0.1898  0.2896  1.0164
13903TIP3   OH263199   3.499   5.238  16.223  0.1186  0.3703  0.8068
13903TIP3    H163200   3.411   5.226  16.186  0.7734 -0.6590 -0.4724
13903TIP3    H263201   3.532   5.317  16.182 -0.0742  0.5739  1.0380
13904TIP3   OH263202   3.017   6.644   0.099  0.2519  0.1737  0.4411
13904TIP3    H163203   3.050   6.656   0.010  1.6421 -1.9041  0.6114
13904TIP3    H263204   2.971   6.560   0.096 -3.9689  2.2087  0.5951
13905TIP3   OH263205   6.031   3.059   6.027 -0.4883  0.2146 -1.0573
13905TIP3    H163206   6.007   3.088   5.940 -0.3011  1.3263 -0.7618
13905TIP3    H263207   5.994   3.125   6.086 -1.6857 -1.1715 -0.1890
13906TIP3   OH263208   3.649   2.904   4.636 -0.1142 -0.2648  0.5590
13906TIP3    H163209   3.591   2.829   4.635  0.4018 -0.7140 -1.6937
13906TIP3    H263210   3.610   2.966   4.574  2.9196 -1.6270 -3.0629
13907TIP3   OH263211   4.190   5.096   5.026  0.0187 -0.4255 -0.0309
13907TIP3    H163212   4.236   5.109   5.109 -1.2757 -0.2226  0.6824
13907TIP3    H263213   4.213   5.007   5.000  2.3413  0.2947 -0.7172
13908TIP3   OH263214   1.126   6.310  12.114 -0.0832 -0.1828  0.2131
13908TIP3    H163215   1.114   6.337  12.023 -2.1350  2.2915  1.1002
13908TIP3    H263216   1.192   6.369  12.148  0.0883 -0.5677  0.5594
13909TIP3   OH263217   0.217   6.519  13.768  0.2042 -0.3053 -0.1621
13909TIP3    H163218   0.241   6.510  13.860  2.0457 -1.1815 -0.6834
13909TIP3    H263219   0.189   6.610  13.758  0.3888 -0.0960  1.1627
13910TIP3   OH263220   4.092   5.976   4.272 -0.4036  0.3163  0.2246
13910TIP3    H163221   4.138   6.057   4.249  0.5695 -0.0989  0.6424
13910TIP3    H263222   4.153   5.929   4.329 -1.0390 -0.6172  0.1665
13911TIP3   OH263223   5.061   6.561  14.903  0.3818 -0.1163  0.1517
13911TIP3    H163224   4.997   6.550  14.974  0.0350 -0.0301 -0.1470
13911TIP3    H263225   5.141   6.588  14.947  0.4986 -1.2093  0.6369
13912TIP3   OH263226   0.954   2.401   1.005 -0.1533  0.1976 -0.4997
13912TIP3    H163227   0.933   2.391   1.098  0.3117 -0.6201 -0.4658
13912TIP3    H263228   0.870   2.394   0.960 -0.1960 -1.2220 -0.2503
13913TIP3   OH263229   4.977   4.685   4.575 -0.3671 -0.1572  0.0507
13913TIP3    H163230   4.990   4.674   4.480 -1.4721  2.1398 -0.4376
13913TIP3    H263231   5.064   4.673   4.612  0.3045  0.0309 -1.3883
13914TIP3   OH263232   0.128   6.380   2.388 -0.0755  0.5660  0.6204
13914TIP3    H163233   0.147   6.350   2.300 -0.9541  0.5213  0.4317
13914TIP3    H263234   0.097   6.302   2.434 -0.4883  0.7669  0.6945
13915TIP3   OH263235   0.156   2.711  16.730 -0.5402 -0.0167 -0.5193
13915TIP3    H163236   0.076   2.677  16.770 -0.3536  2.5402  2.4103
13915TIP3    H263237   0.224   2.648  16.755 -0.8262  0.4049  1.4483
13916TIP3   OH263238   6.188   4.964  13.393  0.5946  0.3785 -0.8295
13916TIP3    H163239   6.109   4.980  13.342 -0.4125 -0.2328  0.4862
13916TIP3    H263240   6.160   4.907  13.465  2.2261  0.1466 -0.3240
13917TIP3   OH263241   0.729   1.735   5.571  0.2300  0.1430 -0.2276
13917TIP3    H163242   0.807   1.788   5.590  0.5770 -0.3237 -0.3521
13917TIP3    H263243   0.730   1.666   5.638 -0.4065  0.4790  0.1432
13918TIP3   OH263244   0.812   4.824   2.767  0.2972 -0.4163 -0.0325
13918TIP3    H163245   0.832   4.818   2.674 -0.0723 -0.2942 -0.1189
13918TIP3    H263246   0.875   4.765   2.809 -1.3219 -2.6545 -0.5868
13919TIP3   OH263247   2.445   6.215   2.960 -0.1153 -0.4000  0.3250
13919TIP3    H163248   2.368   6.186   3.009 -0.4804 -1.0438 -0.6006
13919TIP3    H263249   2.410   6.275   2.894 -0.1710 -2.2466 -1.4453
13920TIP3   OH263250   0.603   0.191   3.352  0.5092  0.2595  0.0964
13920TIP3    H163251   0.584   0.213   3.443  1.3090  1.6377 -0.0401
13920TIP3    H263252   0.699   0.186   3.347  0.5556  1.5444 -0.9323
13921TIP3   OH263253   1.295   3.770   1.319  0.1260  0.2212  0.3912
13921TIP3    H163254   1.289   3.824   1.240  0.8341  1.7147  1.3086
13921TIP3    H263255   1.265   3.828   1.389  1.1938 -0.4834  1.4676
13922TIP3   OH263256   0.596   6.366   1.422 -0.1129 -0.4210  0.1529
13922TIP3    H163257   0.550   6.332   1.345 -1.6902 -0.2531  0.9625
13922TIP3    H263258   0.685   6.381   1.392 -1.2086  1.8964 -2.3431
13923TIP3   OH263259   2.969   4.526   2.505  0.5115  0.4455 -0.2175
13923TIP3    H163260   3.012   4.486   2.429  0.1274 -0.4445  0.0313
13923TIP3    H263261   2.877   4.532   2.481  0.5938  1.3723 -0.3292
13924TIP3   OH263262   0.011   1.971   2.846 -0.1634  0.2048 -0.1863
13924TIP3    H163263   0.071   1.899   2.828  1.0255  0.9215  0.7893
13924TIP3    H263264   0.028   2.035   2.776  0.4446  0.5474  0.2727
13925TIP3   OH263265   0.780   3.610  12.280 -0.4345  0.5293 -0.2936
13925TIP3    H163266   0.748   3.608  12.190 -0.8893  0.3274 -0.1307
13925TIP3    H263267   0.724   3.675  12.324 -0.9832 -0.2025  0.1198
13926TIP3   OH263268   4.524   6.369   5.148  0.1987  0.2792 -0.7694
13926TIP3    H163269   4.604   6.419   5.165  0.3886 -0.4169  0.5167
13926TIP3    H263270   4.456   6.415   5.198  0.1827 -0.1978 -0.3476
13927TIP3   OH263271   5.191   4.939  11.859  0.0977 -0.4455 -0.1352
13927TIP3    H163272   5.258   5.005  11.876 -1.5416  1.3201 -0.1215
13927TIP3    H263273   5.239   4.862  11.829  2.0286  1.2691 -1.7196
13928TIP3   OH263274   5.680   3.617  16.018  0.4967  0.2941  0.0574
13928TIP3    H163275   5.697   3.670  15.940  1.8933 -0.9394 -0.5249
13928TIP3    H263276   5.753   3.636  16.076 -2.0498  3.6149  2.5666
13929TIP3   OH263277   2.328   1.779   0.918  0.0078 -0.2976 -0.3391
13929TIP3    H163278   2.358   1.868   0.932 -0.0343 -0.3681  0.1868
13929TIP3    H263279   2.243   1.774   0.962 -0.4971 -0.2869 -1.2696
13930TIP3   OH263280   6.394   5.846  12.901  0.1925 -0.8142 -0.2879
13930TIP3    H163281   6.449   5.847  12.823  0.0049  1.2191 -0.4500
13930TIP3    H263282   6.305   5.855  12.869  0.0145 -1.0597  0.1196
13931TIP3   OH263283   1.821   4.104  14.598 -0.0227  0.3974 -0.8266
13931TIP3    H163284   1.822   4.196  14.571 -2.3465  0.5287 -0.6335
13931TIP3    H263285   1.802   4.107  14.692  2.0244 -0.2544 -0.3451
13932TIP3   OH263286   6.172   1.733  11.369 -0.2947  0.6179 -0.0051
13932TIP3    H163287   6.108   1.682  11.419 -0.1736  0.1097 -0.3680
13932TIP3    H263288   6.257   1.708  11.407 -0.2655  0.8764  0.1046
13933TIP3   OH263289   1.258   0.763  16.695 -0.5579  0.7434 -0.2779
13933TIP3    H163290   1.173   0.730  16.725 -1.9364  3.4833 -0.8363
13933TIP3    H263291   1.264   0.736  16.604 -2.2632  2.9290 -1.1147
13934TIP3   OH263292   4.748   5.871  13.074  0.4680 -0.1873 -0.5371
13934TIP3    H163293   4.735   5.777  13.062 -0.1628 -0.3293  1.0162
13934TIP3    H263294   4.688   5.895  13.145  3.3416  0.5913  1.8543
13935TIP3   OH263295   6.411   6.310  14.180 -0.1656  0.1413 -0.5667
13935TIP3    H163296   6.360   6.230  14.173 -0.3136 -0.1854  2.7841
13935TIP3    H263297   6.393   6.357  14.099 -3.3587 -1.3539 -0.8597
13936TIP3   OH263298   3.697   5.295   6.520  0.1132  0.1573  0.3117
13936TIP3    H163299   3.766   5.362   6.518  0.8066 -0.5348 -1.8510
13936TIP3    H263300   3.739   5.219   6.560  0.0121  0.3170  0.7257
13937TIP3   OH263301   3.908   6.287  15.806  0.1013 -0.4030  0.2979
13937TIP3    H163302   3.898   6.372  15.763 -1.7769 -1.7106 -2.0923
13937TIP3    H263303   3.960   6.306  15.884  1.1892  2.6316 -1.0028
13938TIP3   OH263304   5.851   0.953   0.896 -0.6702  0.0540 -0.2140
13938TIP3    H163305   5.821   0.877   0.946 -0.7946  0.0070 -0.3618
13938TIP3    H263306   5.946   0.956   0.911 -0.6531 -0.1836 -0.2859
13939TIP3   OH263307   3.960   1.594   4.813 -0.2541 -0.2413 -0.1791
13939TIP3    H163308   3.979   1.619   4.904  1.8090  0.8295 -0.8444
13939TIP3    H263309   4.020   1.647   4.761 -0.6653 -1.6061 -2.1238
13940TIP3   OH263310   3.857   1.264  11.162 -0.4821  0.0707 -0.6812
13940TIP3    H163311   3.797   1.252  11.088  1.4905 -0.4287 -2.2919
13940TIP3    H263312   3.806   1.313  11.226 -1.9241  1.6089 -2.8588
13941TIP3   OH263313   2.985   5.385  15.376 -0.0824  0.0521 -0.6320
13941TIP3    H163314   3.014   5.449  15.441 -0.1124 -1.2034  0.6503
13941TIP3    H263315   2.889   5.386  15.383 -0.1715  0.8931 -1.6538
13942TIP3   OH263316   2.478   4.335   5.917  0.1520  0.1001  0.4503
13942TIP3    H163317   2.545   4.389   5.959  0.8106 -1.5925  1.6928
13942TIP3    H263318   2.514   4.247   5.919 -0.9268 -0.4328 -1.4506
13943TIP3   OH263319   6.358   2.349   3.806  0.0874 -0.0480 -0.2479
13943TIP3    H163320   6.286   2.289   3.825 -1.2754  1.8208  0.8293
13943TIP3    H263321   6.411   2.303   3.741 -0.6607 -2.5417  0.8007
13944TIP3   OH263322   5.100   2.476  15.043 -0.1379  0.3669 -0.0742
13944TIP3    H163323   5.099   2.555  14.989 -1.7458  1.7106  1.7807
13944TIP3    H263324   5.007   2.458  15.061  0.1968 -1.8536 -0.2548
13945TIP3   OH263325   5.806   2.050   3.359  0.4695 -0.6483  0.4837
13945TIP3    H163326   5.842   2.059   3.271 -0.4798 -1.1631  0.0295
13945TIP3    H263327   5.712   2.062   3.348  0.4245  0.2138  1.5753
13946TIP3   OH263328   5.975   4.680   5.485  0.0378  0.3728 -0.3526
13946TIP3    H163329   6.022   4.749   5.533 -1.7137  1.6996 -0.4511
13946TIP3    H263330   5.995   4.698   5.393 -0.4345  0.7935 -0.3798
13947TIP3   OH263331   5.604   4.045  14.439  0.2389  0.5682 -0.3421
13947TIP3    H163332   5.663   4.075  14.369  0.9065 -1.5291 -0.7394
13947TIP3    H263333   5.596   3.951  14.425  0.1374  0.1252  2.2398
13948TIP3   OH263334   4.227   3.930   4.247 -0.3031 -0.0929  0.2154
13948TIP3    H163335   4.192   3.935   4.336  0.8606  0.6806  0.6537
13948TIP3    H263336   4.244   3.837   4.234 -0.4665 -0.2148  0.8037
13949TIP3   OH263337   5.698   3.060   4.656  0.1112 -0.3272  0.2046
13949TIP3    H163338   5.691   3.120   4.581  1.2355 -0.7637 -0.2639
13949TIP3    H263339   5.766   2.998   4.631  0.6816 -0.3390  1.6866
13950TIP3   OH263340   0.708   4.625   4.364 -0.3264  0.0534  0.4626
13950TIP3    H163341   0.680   4.538   4.392  1.2429 -0.4840  0.4607
13950TIP3    H263342   0.637   4.656   4.308 -0.8188 -1.3244  0.2875
13951TIP3   OH263343   0.319   4.830  15.223 -0.0229  0.5525  0.2448
13951TIP3    H163344   0.323   4.741  15.188 -1.3228  0.6271 -0.1422
13951TIP3    H263345   0.245   4.830  15.283  1.3435  0.8035  2.0148
13952TIP3   OH263346   5.859   0.374  13.795 -0.6949  0.4948 -0.0539
13952TIP3    H163347   5.946   0.336  13.782 -0.5433  0.3947  1.0776
13952TIP3    H263348   5.817   0.317  13.859 -2.0914 -0.1713 -1.4938
13953TIP3   OH263349   2.226   4.919  11.049  0.3171 -0.0906  0.9765
13953TIP3    H163350   2.299   4.944  10.992 -0.3470 -1.4102 -0.5320
13953TIP3    H263351   2.250   4.831  11.081  0.4039  0.3897  2.2923
13954TIP3   OH263352   2.825   1.690   2.518 -0.5394 -0.1303 -0.4585
13954TIP3    H163353   2.822   1.786   2.511  0.3102 -0.0564  0.0410
13954TIP3    H263354   2.916   1.668   2.501 -0.8858 -0.9320 -1.3426
13955TIP3   OH263355   6.490   0.733   3.666 -0.4564  1.0554  0.2858
13955TIP3    H163356   6.585   0.726   3.664 -0.5311  0.1295 -0.8535
13955TIP3    H263357   6.471   0.775   3.750  0.8422 -0.6798  1.5205
13956TIP3   OH263358   6.412   0.286  16.544 -0.0340  0.5003 -0.0320
13956TIP3    H163359   6.357   0.358  16.576 -0.6395 -0.1342  0.3858
13956TIP3    H263360   6.400   0.217  16.609 -0.2481 -0.3424 -0.9562
13957TIP3   OH263361   6.229   4.153  14.325 -0.1062  0.6561 -0.1231
13957TIP3    H163362   6.276   4.069  14.326 -0.2303  0.5160 -2.4380
13957TIP3    H263363   6.284   4.211  14.379  1.0266 -0.3618 -0.1204
13958TIP3   OH263364   0.796   2.622   3.502  0.3952 -0.1367  0.2112
13958TIP3    H163365   0.745   2.686   3.551  1.5005  1.0864 -0.1512
13958TIP3    H263366   0.745   2.541   3.506 -0.9946  0.7341  0.7867
13959TIP3   OH263367   0.982   5.527   5.448 -0.2905  0.7253  0.8516
13959TIP3    H163368   0.929   5.466   5.398  0.9747  0.1648  0.1273
13959TIP3    H263369   0.920   5.588   5.487 -1.4844 -0.2913  0.5742
13960TIP3   OH263370   2.779   1.774   3.008 -0.4922 -0.2560 -0.2642
13960TIP3    H163371   2.685   1.792   3.002 -0.7995 -1.8528 -0.7101
13960TIP3    H263372   2.794   1.708   2.941  1.1406  0.6261 -0.8090
13961TIP3   OH263373   3.681   4.497  12.355  0.3857  0.4163 -0.1840
13961TIP3    H163374   3.727   4.533  12.431 -0.0985 -0.7810  0.7066
13961TIP3    H263375   3.677   4.570  12.293  1.3014  1.2528  0.6991
13962TIP3   OH263376   0.659   1.107  12.831  0.1165  0.1286 -0.1112
13962TIP3    H163377   0.731   1.090  12.891  0.2515 -0.2066 -0.3641
13962TIP3    H263378   0.678   1.193  12.793 -0.3323  0.6567  0.8352
13963TIP3   OH263379   3.665   0.526   0.765 -0.1489  0.3847 -0.2841
13963TIP3    H163380   3.661   0.436   0.798  1.2247  0.7501  1.0147
13963TIP3    H263381   3.576   0.545   0.736  0.1627 -2.4251 -3.6127
13964TIP3   OH263382   1.468   5.905  15.413  0.3941 -0.1599  0.2885
13964TIP3    H163383   1.534   5.844  15.446 -0.4639 -1.7132 -0.7359
13964TIP3    H263384   1.451   5.876  15.323  0.3753  1.9750 -0.4495
13965TIP3   OH263385   0.123   4.460  12.048 -0.2177  0.2952  0.3340
13965TIP3    H163386   0.053   4.395  12.049  1.0912 -1.1651  0.9076
13965TIP3    H263387   0.170   4.444  11.967  0.2687  0.3328  0.6007
13966TIP3   OH263388   2.854   4.118   0.237  0.0406  0.4344 -0.0261
13966TIP3    H163389   2.819   4.140   0.151  1.1509  1.8316 -0.1617
13966TIP3    H263390   2.938   4.165   0.242 -0.8593  2.0129  2.5388
13967TIP3   OH263391   0.588   3.704  14.661 -0.1799 -0.4982  0.9297
13967TIP3    H163392   0.508   3.740  14.624  0.7314  1.7791  0.9935
13967TIP3    H263393   0.621   3.643  14.594 -2.6671 -2.7029  1.5541
13968TIP3   OH263394   3.444   1.774   1.869  0.5373 -0.0068 -0.4677
13968TIP3    H163395   3.364   1.822   1.891 -0.1264 -1.8186  1.4587
13968TIP3    H263396   3.451   1.781   1.774 -2.4822 -0.5548 -0.8377
13969TIP3   OH263397   5.930   0.675  16.363  0.1675 -0.1743  0.2153
13969TIP3    H163398   5.894   0.588  16.378 -1.7152  0.8609  2.2043
13969TIP3    H263399   5.866   0.718  16.306  0.7180  0.1912 -0.1491
13970TIP3   OH263400   4.053   3.682  12.888 -0.3731 -0.9076 -0.1295
13970TIP3    H163401   4.103   3.763  12.878 -2.1246  0.9567  3.9361
13970TIP3    H263402   3.975   3.695  12.834 -0.0097 -0.4444 -0.5490
13971TIP3   OH263403   5.389   2.257  11.908  0.8574  1.0864 -0.3968
13971TIP3    H163404   5.323   2.271  11.975  2.9665  0.5234  1.9153
13971TIP3    H263405   5.360   2.178  11.862 -0.1181  0.9293  0.4559
13972TIP3   OH263406   1.138   5.047   5.647  0.1730  0.1067  0.4291
13972TIP3    H163407   1.099   5.127   5.681 -0.1098 -0.2776  1.0174
13972TIP3    H263408   1.097   4.976   5.696 -1.4666 -0.6045 -1.8057
13973TIP3   OH263409   4.203   1.580  16.353  0.1666  0.1194 -0.6525
13973TIP3    H163410   4.291   1.564  16.321  0.8597 -0.8872  1.5937
13973TIP3    H263411   4.212   1.653  16.414 -0.3277 -0.6156  0.3410
13974TIP3   OH263412   0.349   6.789   0.719 -0.3148 -0.0718  1.1359
13974TIP3    H163413   0.300   6.709   0.700  1.9629 -1.7587  1.9815
13974TIP3    H263414   0.374   6.823   0.633 -0.3755 -0.8836  0.7884
13975TIP3   OH263415   6.061   1.600  13.792 -0.1129 -0.3612  0.0027
13975TIP3    H163416   6.098   1.520  13.829  1.4478 -0.1380 -1.0022
13975TIP3    H263417   6.088   1.669  13.852 -0.8192 -0.4641  0.4584
13976TIP3   OH263418   2.938   2.174   0.601  0.8165 -1.0136  0.3132
13976TIP3    H163419   2.939   2.105   0.667  1.1060 -0.9528  0.3706
13976TIP3    H263420   2.965   2.131   0.520 -0.3511 -1.2798  0.0456
13977TIP3   OH263421   6.296   6.305   5.105 -0.3261  0.1691 -0.3666
13977TIP3    H163422   6.310   6.393   5.139  0.0138 -0.3746  0.9310
13977TIP3    H263423   6.319   6.247   5.177 -0.7608 -0.9852 -1.1310
13978TIP3   OH263424   5.842   6.360   4.716 -0.3454 -0.0520 -0.0860
13978TIP3    H163425   5.884   6.437   4.676 -3.7199  1.7682 -0.5435
13978TIP3    H263426   5.815   6.390   4.803 -2.2052 -0.4517 -0.4751
13979TIP3   OH263427   0.534   2.947  15.747 -0.1325 -0.3385 -0.0392
13979TIP3    H163428   0.453   2.903  15.720 -1.3882  1.1498  1.1379
13979TIP3    H263429   0.604   2.887  15.719 -1.6834 -2.3917  0.2199
13980TIP3   OH263430   3.088   1.166  12.430 -0.6422 -0.0336 -0.2102
13980TIP3    H163431   3.027   1.170  12.357 -1.1654 -0.9271  0.1624
13980TIP3    H263432   3.123   1.077  12.427  1.6946  0.8258 -1.2384
13981TIP3   OH263433   0.261   2.754   4.294 -0.0283  0.0394 -0.0012
13981TIP3    H163434   0.311   2.680   4.330 -0.3200  0.3102  0.9963
13981TIP3    H263435   0.177   2.749   4.338 -0.3132  0.5350 -0.4874
13982TIP3   OH263436   1.900   6.086  11.730  0.4671  0.2460 -0.7289
13982TIP3    H163437   1.932   6.173  11.708  1.2231  0.5985  1.5343
13982TIP3    H263438   1.805   6.095  11.731  0.5450  1.0858 -0.3576
13983TIP3   OH263439   5.943   1.515   3.507 -0.6262 -0.2541  0.5822
13983TIP3    H163440   5.870   1.576   3.514 -0.4712  0.0965 -0.5758
13983TIP3    H263441   5.909   1.443   3.453  0.5012  0.9875 -1.9353
13984TIP3   OH263442   4.638   2.018  16.006 -0.3310  0.2440  0.1819
13984TIP3    H163443   4.726   2.056  15.997 -0.2959  0.0406 -0.3805
13984TIP3    H263444   4.580   2.094  16.015 -0.1259  0.3881  0.2989
13985TIP3   OH263445   2.860   0.603  13.776  0.5570  0.0933 -0.0420
13985TIP3    H163446   2.874   0.637  13.688  1.4644  0.5847  0.2902
13985TIP3    H263447   2.771   0.630  13.798 -0.0422 -0.8620 -1.1699
13986TIP3   OH263448   4.091   6.247  13.258  1.1243  0.0081  0.2652
13986TIP3    H163449   4.047   6.202  13.330 -0.4445 -3.2418 -2.4851
13986TIP3    H263450   4.024   6.306  13.222  0.8897 -0.6454 -0.3816
13987TIP3   OH263451   4.490   2.071  10.245 -0.8731  0.0031 -0.0049
13987TIP3    H163452   4.447   2.091  10.162 -2.0288 -1.6252  0.1637
13987TIP3    H263453   4.420   2.074  10.310 -0.5892 -1.7285  0.4267
13988TIP3   OH263454   6.651   3.145   1.039 -0.1472 -0.1734  0.1387
13988TIP3    H163455   6.576   3.133   1.096  0.6469 -1.4263  0.9732
13988TIP3    H263456   6.614   3.177   0.957 -1.3896  0.9602  1.0870
13989TIP3   OH263457   3.615   0.913  14.245 -0.4231  0.1092 -0.2510
13989TIP3    H163458   3.669   0.988  14.217 -0.1825  0.5167  1.2108
13989TIP3    H263459   3.549   0.952  14.303 -1.6438 -0.5398 -1.1662
13990TIP3   OH263460   4.381   3.931   3.724 -0.2288 -0.0075  0.0143
13990TIP3    H163461   4.468   3.892   3.713 -0.1185  0.7204 -2.3670
13990TIP3    H263462   4.379   3.960   3.816  0.8890 -2.5884  0.9379
13991TIP3   OH263463   1.201   4.954   4.875 -0.3608 -0.4899 -0.0223
13991TIP3    H163464   1.160   4.872   4.849 -1.1349 -0.5920  1.4329
13991TIP3    H263465   1.203   4.951   4.971 -2.3100  2.0872  0.1953
13992TIP3   OH263466   1.721   4.481  13.410  0.0948  0.1893 -0.0424
13992TIP3    H163467   1.691   4.487  13.320 -0.2817  0.0232  0.0715
13992TIP3    H263468   1.714   4.570  13.444  0.2463  0.2541 -0.1773
13993TIP3   OH263469   5.692   2.450  11.194 -0.1574  0.3497  0.0208
13993TIP3    H163470   5.670   2.386  11.261 -1.0877  0.2923 -0.3223
13993TIP3    H263471   5.733   2.398  11.125 -2.0805 -0.1478 -0.8351
13994TIP3   OH263472   2.916   3.489  10.668  0.4055 -0.1284  0.5328
13994TIP3    H163473   2.897   3.549  10.741 -1.7294  0.2990 -0.2976
13994TIP3    H263474   2.830   3.473  10.628  1.2757 -1.8672 -0.7292
13995TIP3   OH263475   5.699   5.461   5.986 -0.2983  0.0587 -0.5394
13995TIP3    H163476   5.691   5.384   6.041 -1.1218  2.2399  2.7038
13995TIP3    H263477   5.775   5.508   6.021  0.0456  0.8500 -2.2498
13996TIP3   OH263478   4.266   2.840   4.176 -0.4050 -0.0152 -0.1815
13996TIP3    H163479   4.183   2.823   4.221 -0.9790  0.9328 -0.8494
13996TIP3    H263480   4.289   2.756   4.137 -0.2577 -0.6791  1.2654
13997TIP3   OH263481   4.218   5.321  15.427  0.2939  0.8966  0.1328
13997TIP3    H163482   4.229   5.383  15.355 -0.0454  1.7257  0.7703
13997TIP3    H263483   4.300   5.271  15.428  0.1245  0.5595 -1.0942
13998TIP3   OH263484   5.716   2.886  13.657 -0.1539 -0.2419 -0.6070
13998TIP3    H163485   5.643   2.843  13.701  0.7457 -0.8280  0.3865
13998TIP3    H263486   5.791   2.828  13.672  0.3861  0.0081 -2.1657
13999TIP3   OH263487   1.161   4.855   2.259  0.1588 -0.0715 -0.3445
13999TIP3    H163488   1.080   4.812   2.286  0.7979 -0.4404  1.0709
13999TIP3    H263489   1.157   4.855   2.163  1.1251 -5.3744 -0.6493
14000TIP3   OH263490   3.942   2.187   0.359 -0.2678  0.4289  0.0924
14000TIP3    H163491   4.014   2.248   0.375 -0.5745  0.8626 -0.1430
14000TIP3    H263492   3.885   2.234   0.298 -1.7166  0.8782  1.7015
14001TIP3   OH263493   4.269   0.719   2.970  0.4908  0.4814  0.0205
14001TIP3    H163494   4.261   0.698   3.063  1.1079 -0.1627 -0.0585
14001TIP3    H263495   4.247   0.637   2.925 -0.6122  1.0092 -0.4393
14002TIP3   OH263496   3.253   6.432   0.087  0.1016 -0.2866  0.4298
14002TIP3    H163497   3.231   6.521   0.059 -0.3228  0.4494  2.9008
14002TIP3    H263498   3.185   6.377   0.049 -3.4495  1.3026  3.8448
14003TIP3   OH263499   2.688   5.168  14.179  0.4209  0.2314 -0.0960
14003TIP3    H163500   2.772   5.122  14.174  1.1934  1.6231 -0.1717
14003TIP3    H263501   2.623   5.097  14.179  1.6162 -0.9542  1.2327
14004TIP3   OH263502   3.201   2.182   3.426 -0.0354 -0.0236  0.3171
14004TIP3    H163503   3.191   2.152   3.516  0.5836  0.9164  0.7228
14004TIP3    H263504   3.216   2.102   3.375 -0.3789 -0.5624  1.0461
14005TIP3   OH263505   2.489   3.185   3.216 -0.3884  0.1195 -0.2460
14005TIP3    H163506   2.417   3.176   3.154 -0.0492  1.3824 -0.8701
14005TIP3    H263507   2.453   3.158   3.300 -1.6644  0.9096 -0.5103
14006TIP3   OH263508   4.910   1.404   1.261  0.1401  0.1688 -0.2033
14006TIP3    H163509   4.815   1.400   1.252  0.2161 -2.4831 -0.5595
14006TIP3    H263510   4.943   1.337   1.202  2.1030 -0.5811  1.6065
14007TIP3   OH263511   2.413   6.768  11.937  0.6113  0.8065  0.4132
14007TIP3    H163512   2.359   6.707  11.886  2.4170 -0.4214 -0.1209
14007TIP3    H263513   2.360   6.788  12.014 -1.0557  0.5527 -0.6109
14008TIP3   OH263514   0.169   5.937  13.644  0.2447 -0.3948 -0.0756
14008TIP3    H163515   0.082   5.921  13.681 -0.3195 -3.0312 -2.2533
14008TIP3    H263516   0.219   5.858  13.665  1.4036  0.1255 -0.7642
14009TIP3   OH263517   1.826   5.725  15.477  0.5604 -0.7107 -0.2433
14009TIP3    H163518   1.746   5.704  15.526  1.8084 -1.2377  1.6751
14009TIP3    H263519   1.853   5.811  15.511  0.4244 -0.1735 -1.4406
14010TIP3   OH263520   3.852   3.729  16.556  0.4221 -0.1422 -0.1036
14010TIP3    H163521   3.869   3.791  16.485 -2.1471  0.8271  0.0085
14010TIP3    H263522   3.937   3.717  16.599  1.3895  1.7415 -1.3563
14011TIP3   OH263523   3.031   3.351   2.228 -0.1210 -0.5961  0.0475
14011TIP3    H163524   3.007   3.265   2.193  1.0744 -0.4055 -1.3717
14011TIP3    H263525   3.102   3.381   2.170 -1.0843  1.7260 -0.0485
14012TIP3   OH263526   0.516   1.810  12.623  0.0188 -0.1506  0.5801
14012TIP3    H163527   0.518   1.725  12.668  2.0419 -0.4736 -0.0135
14012TIP3    H263528   0.607   1.828  12.602 -0.6972  0.5628 -2.3275
14013TIP3   OH263529   2.426   3.619   6.176 -0.8237 -0.4797  0.1934
14013TIP3    H163530   2.370   3.585   6.105 -0.8149 -0.7536  0.3159
14013TIP3    H263531   2.372   3.685   6.220 -0.8322 -0.3127 -0.0656
14014TIP3   OH263532   6.713   4.449  11.550 -0.3250  0.0931 -0.3186
14014TIP3    H163533   6.767   4.458  11.629 -2.3418  0.0295  1.1202
14014TIP3    H263534   6.745   4.368  11.509 -0.4313 -0.8733  1.4075
14015TIP3   OH263535   5.487   1.157   1.563 -0.4805 -0.1855 -0.7159
14015TIP3    H163536   5.564   1.134   1.615 -0.4914  0.6120 -0.3285
14015TIP3    H263537   5.465   1.077   1.515 -0.8257 -1.1363  0.9449
14016TIP3   OH263538   1.557   4.609  12.183  0.4376  0.0009  0.2204
14016TIP3    H163539   1.564   4.518  12.212 -1.2163  0.3118  1.7315
14016TIP3    H263540   1.470   4.615  12.143  0.7123  0.8179 -0.2816
14017TIP3   OH263541   4.986   4.710   4.889  0.5057  0.0303 -0.8462
14017TIP3    H163542   4.914   4.768   4.865 -0.6030 -0.3572  1.3155
14017TIP3    H263543   4.983   4.704   4.984  3.3047 -0.1850 -0.6703
14018TIP3   OH263544   4.713   2.141  12.572 -0.4403 -0.4160  0.1308
14018TIP3    H163545   4.757   2.220  12.541  0.0962 -0.5142  0.6252
14018TIP3    H263546   4.761   2.116  12.651  0.5976 -2.2913 -1.0146
14019TIP3   OH263547   0.089   3.326  11.910  0.0494  0.5312 -0.0908
14019TIP3    H163548   0.007   3.376  11.908  0.5541  1.4002 -2.4775
14019TIP3    H263549   0.093   3.290  11.999 -1.9602  2.0313  0.6898
14020TIP3   OH263550   4.264   1.055  16.447 -0.0069 -0.0076 -0.2013
14020TIP3    H163551   4.256   1.034  16.540 -2.2098 -1.2620 -0.6104
14020TIP3    H263552   4.233   1.145  16.439 -1.2066 -0.3756  0.1206
14021TIP3   OH263553   2.353   4.352  11.071  0.4728 -0.1046 -0.5307
14021TIP3    H163554   2.302   4.348  11.151  0.1813  4.8736 -0.1092
14021TIP3    H263555   2.298   4.312  11.004 -0.3929 -2.0046  1.2257
14022TIP3   OH263556   5.880   4.788  16.870  0.4087 -0.2717 -0.4001
14022TIP3    H163557   5.914   4.877  16.862 -0.5592  0.2291  0.8169
14022TIP3    H263558   5.900   4.762  16.960  0.9499 -1.4086 -0.8299
14023TIP3   OH263559   6.054   6.468   3.139  0.1340 -0.1597 -0.6356
14023TIP3    H163560   5.964   6.454   3.109 -0.9345  0.6839  1.8864
14023TIP3    H263561   6.059   6.563   3.154  1.4608 -0.1952 -0.7613
14024TIP3   OH263562   2.749   5.708   2.743 -0.1820  0.1140  0.2512
14024TIP3    H163563   2.816   5.646   2.715  0.4110 -0.9823  3.6551
14024TIP3    H263564   2.797   5.785   2.774 -0.7329  0.8043 -0.5462
14025TIP3   OH263565   1.539   4.961   4.253 -0.1109 -0.8723  0.5628
14025TIP3    H163566   1.583   5.025   4.311 -2.4780 -0.0803  1.6244
14025TIP3    H263567   1.546   5.000   4.166 -3.0979  2.0177  1.3890
14026TIP3   OH263568   0.598   3.120  16.443 -0.0062 -0.0255  0.0838
14026TIP3    H163569   0.633   3.180  16.508  0.7451  0.4030 -0.6966
14026TIP3    H263570   0.536   3.173  16.392 -0.9581 -0.4799  0.7186
14027TIP3   OH263571   0.056   3.630  10.724 -0.0026 -0.2912 -0.3031
14027TIP3    H163572   0.103   3.601  10.646 -1.1546  0.2575 -1.2467
14027TIP3    H263573   0.003   3.704  10.693 -1.5721 -0.9717  0.6493
14028TIP3   OH263574   1.509   6.281   4.443  0.0809 -0.1678 -0.0223
14028TIP3    H163575   1.561   6.345   4.490  0.6326 -0.6869  0.0902
14028TIP3    H263576   1.569   6.208   4.427 -0.5697 -0.7230 -0.0075
14029TIP3   OH263577   0.284   3.892  14.226  0.2153  0.0382  1.1454
14029TIP3    H163578   0.223   3.943  14.279  0.0179  1.2957 -0.2388
14029TIP3    H263579   0.348   3.956  14.194  1.2776 -0.9665  1.1704
14030TIP3   OH263580   0.356   6.411  15.438  0.6134  0.1996  0.1535
14030TIP3    H163581   0.385   6.360  15.514  0.0425  1.0675  0.9725
14030TIP3    H263582   0.369   6.352  15.363  1.2718 -0.6365  0.9033
14031TIP3   OH263583   4.331   3.578  11.675  0.3254  0.0285 -0.3045
14031TIP3    H163584   4.264   3.547  11.736  1.3191 -0.0979  0.7576
14031TIP3    H263585   4.282   3.624  11.607 -1.0304 -2.0259 -0.8031
14032TIP3   OH263586   0.922   1.770  15.625 -0.4185  0.5644 -0.0057
14032TIP3    H163587   0.947   1.806  15.540  0.8224  0.3071  0.2271
14032TIP3    H263588   0.926   1.676  15.613  1.0268  0.5106  0.6533
14033TIP3   OH263589   3.154   2.358   0.158  0.3582  0.4698  0.7276
14033TIP3    H163590   3.196   2.383   0.076 -0.3040  0.3195  0.3448
14033TIP3    H263591   3.108   2.276   0.139  1.1494 -0.1960  1.5486
14034TIP3   OH263592   2.089   3.388   4.828 -0.4773 -0.0837  0.1722
14034TIP3    H163593   2.050   3.330   4.894 -0.0818 -0.5650 -0.0144
14034TIP3    H263594   2.183   3.385   4.847 -0.4390  0.3803  0.0641
14035TIP3   OH263595   0.256   5.482  17.052  0.3366 -0.2786  0.1527
14035TIP3    H163596   0.235   5.477  16.959 -0.5561  0.3742  0.3072
14035TIP3    H263597   0.201   5.553  17.085  4.5390  3.5830  0.0466
14036TIP3   OH263598   6.348   0.194  14.991 -0.1186 -0.2423 -0.3076
14036TIP3    H163599   6.390   0.210  15.076 -0.1186  0.0735 -0.3667
14036TIP3    H263600   6.264   0.154  15.013 -0.5592  0.7747 -0.1162
14037TIP3   OH263601   6.013   2.549   6.027 -0.1526  0.3350  0.3939
14037TIP3    H163602   6.095   2.506   6.052 -0.2001 -0.0561 -0.1042
14037TIP3    H263603   5.981   2.497   5.953  0.2886  1.8073 -0.8781
14038TIP3   OH263604   4.734   4.025  12.311  0.2221  0.0949  0.0490
14038TIP3    H163605   4.649   4.025  12.356 -0.1863 -1.9946 -0.6195
14038TIP3    H263606   4.782   4.098  12.351 -1.2503  0.2578  1.6589
14039TIP3   OH263607   4.375   3.952   4.007 -0.3427 -0.5967 -0.3540
14039TIP3    H163608   4.451   3.963   4.062  0.0231 -2.1696 -0.5003
14039TIP3    H263609   4.300   3.967   4.065  0.0512 -0.2723  0.0741
14040TIP3   OH263610   1.798   4.919   4.087  0.7740  0.0399 -0.5996
14040TIP3    H163611   1.733   4.983   4.060  0.9882  0.5375  0.0436
14040TIP3    H263612   1.830   4.951   4.172 -1.3521 -2.5116  1.3621
14041TIP3   OH263613   5.614   4.632   0.442  0.5298  0.1327 -0.0196
14041TIP3    H163614   5.612   4.721   0.406 -0.6931  0.0488 -0.2066
14041TIP3    H263615   5.662   4.581   0.377  0.5649  0.5030 -0.2862
14042TIP3   OH263616   4.521   5.589  17.097  0.0940  0.0248 -0.3143
14042TIP3    H163617   4.484   5.650  17.033 -0.5135 -0.6885 -0.6516
14042TIP3    H263618   4.450   5.573  17.159 -0.7124 -2.4174 -1.7156
14043TIP3   OH263619   0.359   0.533   2.766  0.1554 -0.6148  0.0467
14043TIP3    H163620   0.280   0.579   2.794  0.3680 -0.0222 -0.3013
14043TIP3    H263621   0.326   0.460   2.712 -0.1778 -0.8260  0.5269
14044TIP3   OH263622   1.677   3.384  16.739  0.1662  0.7086  0.1893
14044TIP3    H163623   1.768   3.357  16.751 -0.5888 -1.7139  1.1812
14044TIP3    H263624   1.657   3.360  16.648 -0.1564 -1.2607  0.7224
14045TIP3   OH263625   3.624   3.540  14.957 -0.1443  0.2818  0.0364
14045TIP3    H163626   3.637   3.471  15.022 -1.3961 -0.5961 -0.6099
14045TIP3    H263627   3.529   3.548  14.949 -0.0266  1.9181 -0.1047
14046TIP3   OH263628   5.260   3.688  14.120 -0.4648 -0.2396  0.1342
14046TIP3    H163629   5.258   3.746  14.044  0.7204  1.5021  1.3493
14046TIP3    H263630   5.180   3.708  14.168 -0.9214 -0.9149 -0.3241
14047TIP3   OH263631   4.469   3.057   2.848 -0.1592 -0.9002  0.5326
14047TIP3    H163632   4.535   3.014   2.902 -0.9035 -2.1839  0.4551
14047TIP3    H263633   4.514   3.133   2.811  1.2856 -1.7798  0.4251
14048TIP3   OH263634   6.666   2.813  14.873  0.0135 -0.5493  0.6118
14048TIP3    H163635   6.582   2.851  14.899 -0.1245 -0.2161 -0.2765
14048TIP3    H263636   6.727   2.840  14.942 -0.3597  0.2091  0.6524
14049TIP3   OH263637   3.912   0.823   0.114 -0.4443 -0.2732 -0.0903
14049TIP3    H163638   3.922   0.918   0.118 -0.7100 -0.2026 -1.0028
14049TIP3    H263639   3.980   0.790   0.173 -1.7113  0.5233  1.9587
14050TIP3   OH263640   4.975   3.144   0.345  0.0811  0.5540  0.0840
14050TIP3    H163641   4.966   3.165   0.438  0.2396 -0.5434  0.3547
14050TIP3    H263642   5.045   3.079   0.341 -0.2511  0.2365 -0.7511
14051TIP3   OH263643   0.612   0.551   4.762  0.0483 -0.2725  0.2308
14051TIP3    H163644   0.673   0.494   4.716  1.5677 -0.2076  2.0742
14051TIP3    H263645   0.610   0.517   4.852 -1.9962  0.2565  0.4405
14052TIP3   OH263646   0.899   5.441   1.682  0.5562  0.0140 -0.0450
14052TIP3    H163647   0.864   5.360   1.645 -0.7106  1.2413 -1.7271
14052TIP3    H263648   0.991   5.441   1.656  0.1913 -0.1838 -1.4216
14053TIP3   OH263649   1.854   1.408   1.762  0.7159 -0.4278 -0.5542
14053TIP3    H163650   1.818   1.496   1.774 -0.2160 -1.0067  1.1595
14053TIP3    H263651   1.948   1.417   1.779  0.6498  0.2560 -0.5406
14054TIP3   OH263652   4.216   2.653   5.664  0.1959 -0.6905  0.6051
14054TIP3    H163653   4.221   2.563   5.697 -0.5365 -0.6943  0.7203
14054TIP3    H263654   4.199   2.706   5.742  1.2964 -0.3615  0.6415
14055TIP3   OH263655   6.136   5.661  13.985 -0.0844 -0.6117 -0.5488
14055TIP3    H163656   6.078   5.647  14.060  1.2583 -0.2875  0.6076
14055TIP3    H263657   6.175   5.575  13.968 -0.4988 -0.7171 -0.9857
14056TIP3   OH263658   3.173   4.304  15.846  0.0068 -0.3652 -0.1832
14056TIP3    H163659   3.214   4.235  15.795  2.0175  0.4581  0.2066
14056TIP3    H263660   3.140   4.260  15.924  1.6494 -0.8637  0.2694
14057TIP3   OH263661   4.878   4.775  12.701  0.4189 -0.7807 -0.2033
14057TIP3    H163662   4.813   4.839  12.671  1.1898  0.8040  1.2937
14057TIP3    H263663   4.944   4.828  12.747  2.0857 -2.4733 -0.5120
14058TIP3   OH263664   3.982   6.349  14.956  0.3404 -0.0786 -0.3964
14058TIP3    H163665   3.930   6.333  14.877 -1.4199 -0.4925  0.7763
14058TIP3    H263666   3.958   6.438  14.982 -0.3233 -0.4940  0.4955
14059TIP3   OH263667   6.126   1.170   5.206 -0.4320  0.5288  0.5109
14059TIP3    H163668   6.145   1.076   5.212  2.8548  0.9451 -1.3860
14059TIP3    H263669   6.168   1.208   5.283 -0.0313  0.6544  0.2308
14060TIP3   OH263670   1.283   1.101   0.784  0.0039  0.4333 -0.3299
14060TIP3    H163671   1.227   1.166   0.826 -1.6997 -0.5957 -0.9234
14060TIP3    H263672   1.224   1.030   0.760  1.7350 -1.1738 -0.0689
14061TIP3   OH263673   2.751   5.995  16.866  0.1305 -0.7835  0.0676
14061TIP3    H163674   2.777   6.086  16.877 -0.1450 -0.8228  1.1749
14061TIP3    H263675   2.757   5.957  16.953 -0.1352 -1.7304 -0.3037
14062TIP3   OH263676   3.807   2.942  11.417  0.2083 -0.5974  0.2392
14062TIP3    H163677   3.744   2.982  11.477 -0.1003  0.7541 -0.9188
14062TIP3    H263678   3.892   2.975  11.444 -0.2194  2.9079 -2.0551
14063TIP3   OH263679   0.713   2.007   3.593 -0.2711  0.0475 -0.1569
14063TIP3    H163680   0.758   1.923   3.586  1.1452  0.6749  0.8550
14063TIP3    H263681   0.634   1.987   3.644 -0.1096 -0.7286 -0.1945
14064TIP3   OH263682   1.614   6.347  14.253  0.5681  0.0275 -0.3974
14064TIP3    H163683   1.589   6.265  14.209 -2.0296  0.4102  0.1969
14064TIP3    H263684   1.624   6.322  14.345  1.5645  0.0789 -0.4787
14065TIP3   OH263685   4.561   1.034  13.620  0.4777 -0.4975  0.8684
14065TIP3    H163686   4.600   0.948  13.605 -1.1205 -0.9778 -1.0055
14065TIP3    H263687   4.468   1.022  13.599  0.3692  1.8772 -0.3688
14066TIP3   OH263688   2.365   0.456   3.677  0.3149  0.0871  0.4930
14066TIP3    H163689   2.360   0.521   3.746  0.0999  0.5695  0.0292
14066TIP3    H263690   2.305   0.386   3.705  1.9461 -0.8245  1.9112
14067TIP3   OH263691   3.140   1.217   0.743  0.1943  0.3953  0.7414
14067TIP3    H163692   3.094   1.281   0.797 -0.6176 -0.5343  1.1861
14067TIP3    H263693   3.071   1.175   0.691  0.5176 -1.0387  1.4312
14068TIP3   OH263694   4.980   0.508  11.703  0.5527 -0.1477  0.0230
14068TIP3    H163695   4.919   0.482  11.634 -1.0266  1.7274  0.6352
14068TIP3    H263696   4.972   0.439  11.769 -0.5524 -0.2009 -0.1388
14069TIP3   OH263697   1.321   1.402  16.063 -0.3209  0.0541  0.0559
14069TIP3    H163698   1.361   1.323  16.098  0.4968  0.5604  0.2782
14069TIP3    H263699   1.239   1.411  16.112 -0.6649 -0.9054 -0.3067
14070TIP3   OH263700   2.237   1.676   4.960 -0.0455  0.1423 -0.1034
14070TIP3    H163701   2.163   1.719   5.003 -1.6686 -0.5206 -2.1178
14070TIP3    H263702   2.242   1.717   4.874  0.4067 -1.4883 -0.8906
14071TIP3   OH263703   3.342   1.727   3.398 -0.4378  0.2016 -0.1531
14071TIP3    H163704   3.356   1.648   3.450 -0.2195 -0.0860 -0.6428
14071TIP3    H263705   3.356   1.799   3.460 -1.7192 -0.1368  0.5762
14072TIP3   OH263706   5.777   5.961  14.113 -0.3186  0.3068  0.4529
14072TIP3    H163707   5.753   5.958  14.021  0.4786 -0.7990  0.2673
14072TIP3    H263708   5.765   5.871  14.144  2.4441 -0.0859  0.6133
14073TIP3   OH263709   1.627   0.637   3.173  0.4819 -0.0631 -0.1144
14073TIP3    H163710   1.710   0.603   3.139 -0.2138 -1.5929 -0.3809
14073TIP3    H263711   1.574   0.559   3.189 -1.6852  0.9383 -1.9221
14074TIP3   OH263712   2.356   0.872   4.653 -0.0974 -0.5840 -0.1131
14074TIP3    H163713   2.311   0.955   4.635  1.5626  0.4962  0.5531
14074TIP3    H263714   2.442   0.882   4.614  0.5316 -1.5551  0.9608
14075TIP3   OH263715   2.233   1.536  14.302  0.0470 -0.0907 -0.0105
14075TIP3    H163716   2.155   1.590  14.314 -0.3539 -0.9607  1.5064
14075TIP3    H263717   2.249   1.497  14.388  1.5248 -0.7742 -0.5675
14076TIP3   OH263718   6.822   0.840   1.735 -0.1170 -0.2623 -0.6240
14076TIP3    H163719   6.911   0.859   1.707 -0.0224  1.6089  0.7434
14076TIP3    H263720   6.806   0.901   1.807 -1.8857 -1.7628  0.3475
14077TIP3   OH263721   2.234   2.407   0.815  0.3213 -0.4086  0.4598
14077TIP3    H163722   2.278   2.338   0.766 -0.5972 -0.8324  0.2021
14077TIP3    H263723   2.295   2.432   0.883  1.0591 -0.7924 -0.0502
14078TIP3   OH263724   0.292   2.486  12.091 -0.2414 -0.4923  0.2499
14078TIP3    H163725   0.382   2.518  12.083 -0.6574  0.3858 -1.3156
14078TIP3    H263726   0.297   2.394  12.065  0.3628 -0.7252  1.1655
14079TIP3   OH263727   2.133   0.651   0.844 -0.7014 -0.4154 -0.0705
14079TIP3    H163728   2.103   0.573   0.891 -1.6019 -0.2350 -0.3262
14079TIP3    H263729   2.228   0.648   0.852 -0.5686 -2.4352 -1.4075
14080TIP3   OH263730   6.729   1.607  15.935 -0.0421 -0.1915  0.1043
14080TIP3    H163731   6.760   1.593  16.025 -0.2542 -3.7347 -0.2264
14080TIP3    H263732   6.635   1.594  15.939 -0.3840  1.8556 -0.3315
14081TIP3   OH263733   3.031   0.712  15.546  0.8847  0.7261 -0.8299
14081TIP3    H163734   3.011   0.623  15.574 -0.4819  1.2116 -0.1566
14081TIP3    H263735   2.984   0.723  15.463  2.9424  0.0915 -2.1387
14082TIP3   OH263736   1.201   4.784  15.737  0.2883  0.9784  0.6651
14082TIP3    H163737   1.274   4.721  15.743 -1.2384 -0.9858 -0.3751
14082TIP3    H263738   1.142   4.758  15.808 -1.4031 -0.2481 -1.1081
14083TIP3   OH263739   6.705   1.733   3.094  0.0487  0.3085 -0.6205
14083TIP3    H163740   6.762   1.665   3.058 -0.1752  0.3554 -1.0647
14083TIP3    H263741   6.647   1.687   3.154  2.3770  0.6253  2.0685
14084TIP3   OH263742   3.300   4.207   2.795  0.2623  0.7030 -0.1498
14084TIP3    H163743   3.240   4.279   2.774 -0.7295  0.2038  0.8386
14084TIP3    H263744   3.378   4.250   2.831 -0.8166  1.2791  1.6283
14085TIP3   OH263745   6.587   0.458   4.434  0.5683 -0.3781 -0.8224
14085TIP3    H163746   6.665   0.404   4.449 -0.1991 -1.8860 -2.0182
14085TIP3    H263747   6.620   0.538   4.394  1.6307 -0.3473  0.0537
14086TIP3   OH263748   4.796   4.371  15.739  0.0475  0.4134  0.4674
14086TIP3    H163749   4.778   4.452  15.692 -1.9582  0.5379  1.3549
14086TIP3    H263750   4.831   4.312  15.673 -1.0831  1.1199 -0.8209
14087TIP3   OH263751   2.685   2.278  11.345 -0.2956 -0.9847 -0.7436
14087TIP3    H163752   2.770   2.276  11.302  0.0455  1.0818 -0.2911
14087TIP3    H263753   2.706   2.285  11.438 -1.0222 -3.6652 -0.2847
14088TIP3   OH263754   1.268   6.674   2.516  0.6424 -0.5340  0.3738
14088TIP3    H163755   1.287   6.607   2.450  1.6928 -0.4592  0.5858
14088TIP3    H263756   1.273   6.627   2.599 -0.9380 -0.6892  0.4235
14089TIP3   OH263757   2.562   2.145  16.461 -0.0707  0.5292  0.5281
14089TIP3    H163758   2.610   2.190  16.530  1.5439  0.9801 -0.8483
14089TIP3    H263759   2.614   2.067  16.442  2.7157  3.1131 -3.9441
14090TIP3   OH263760   2.272   4.215  15.884  0.0533 -0.1282  0.0743
14090TIP3    H163761   2.292   4.144  15.945  1.4313 -0.7381 -1.0241
14090TIP3    H263762   2.180   4.234  15.899  0.6405  0.7899  3.4002
14091TIP3   OH263763   6.345   5.940  17.156  0.0058  0.3451 -0.4132
14091TIP3    H163764   6.288   5.960  17.082 -0.0063 -1.1897 -0.8391
14091TIP3    H263765   6.432   5.929  17.118  0.6861  2.7981  0.2460
14092TIP3   OH263766   6.516   0.842  15.537  0.3793 -0.7649 -0.1097
14092TIP3    H163767   6.458   0.809  15.605 -0.8747  0.6382 -0.4446
14092TIP3    H263768   6.463   0.840  15.457  1.0188 -0.1363 -0.5682
14093TIP3   OH263769   6.032   5.759  15.946 -0.4668  0.0565  0.5324
14093TIP3    H163770   6.063   5.754  15.856 -0.0874  0.0172  0.6654
14093TIP3    H263771   6.027   5.853  15.964 -1.2739  0.0848  0.2235
14094TIP3   OH263772   4.459   3.356  14.450 -0.3138  0.3323  0.4991
14094TIP3    H163773   4.422   3.395  14.371  1.0819  3.4281  1.2396
14094TIP3    H263774   4.523   3.420  14.481  2.0520 -2.5309  2.0086
14095TIP3   OH263775   0.720   6.818   1.294  0.2530 -0.6950  0.7397
14095TIP3    H163776   0.813   6.805   1.310  0.2849  0.5701  1.6883
14095TIP3    H263777   0.696   6.893   1.348 -1.6590 -1.9544  1.7758
14096TIP3   OH263778   6.560   4.676  14.441 -0.5034 -0.4723 -0.4237
14096TIP3    H163779   6.506   4.664  14.363 -2.0329  0.0453  0.5154
14096TIP3    H263780   6.609   4.757  14.424 -1.4156  0.0680 -0.5294
14097TIP3   OH263781   2.152   1.692  11.242 -0.1073  0.6343 -0.0351
14097TIP3    H163782   2.247   1.701  11.239 -0.0156 -0.4186 -2.4453
14097TIP3    H263783   2.136   1.598  11.239 -1.2049  0.8316 -1.9878
14098TIP3   OH263784   3.822   1.675   4.360  0.2811 -0.1142 -0.2699
14098TIP3    H163785   3.749   1.628   4.398 -0.3621  0.2530 -1.0210
14098TIP3    H263786   3.816   1.763   4.398  1.8237 -0.7337  1.5869
14099TIP3   OH263787   5.534   6.245   0.696 -0.1627 -0.3003 -0.2342
14099TIP3    H163788   5.438   6.249   0.705 -0.2580 -1.6014 -0.5300
14099TIP3    H263789   5.549   6.172   0.636  0.9942  0.3382 -0.7396
14100TIP3   OH263790   4.687   3.234   1.945  0.7890 -0.3764 -0.0155
14100TIP3    H163791   4.732   3.152   1.969 -0.1895 -0.3216  2.2341
14100TIP3    H263792   4.606   3.206   1.904 -0.2704 -0.6399  2.1294
14101TIP3   OH263793   6.726   6.075   4.048  0.2040  0.3743  0.3952
14101TIP3    H163794   6.741   6.166   4.075 -0.9930  0.8431 -0.4382
14101TIP3    H263795   6.633   6.071   4.028  0.4034 -0.8207 -0.3986
14102TIP3   OH263796   0.393   5.796  13.391  0.0876 -0.0889 -0.1438
14102TIP3    H163797   0.367   5.738  13.462  0.2418  0.3829  0.3037
14102TIP3    H263798   0.484   5.772  13.372  0.4009  0.4967  0.5508
14103TIP3   OH263799   3.430   5.929  11.743  0.1422  0.1751  0.3333
14103TIP3    H163800   3.503   5.871  11.764  0.4535  0.1876 -0.6556
14103TIP3    H263801   3.353   5.873  11.743  0.5627 -0.4735 -1.5555
14104TIP3   OH263802   1.577   0.933   2.730  0.2249 -0.4180  0.3296
14104TIP3    H163803   1.550   0.913   2.641  1.4161 -2.4732  0.3716
14104TIP3    H263804   1.554   0.855   2.780  0.2890  0.3921  1.6903
14105TIP3   OH263805   6.229   3.508  16.788  0.0262 -0.5881  0.0831
14105TIP3    H163806   6.291   3.441  16.759  1.7009  0.6417  0.6174
14105TIP3    H263807   6.216   3.490  16.881  0.0749 -0.5026  0.1086
14106TIP3   OH263808   6.311   3.560   5.276  0.4985 -0.3784  0.1893
14106TIP3    H163809   6.328   3.522   5.190 -0.3408  1.6781 -0.9537
14106TIP3    H263810   6.220   3.588   5.273  1.3395  2.8820  0.3785
14107TIP3   OH263811   6.110   3.623  14.396 -0.4505 -0.1179 -0.3762
14107TIP3    H163812   6.100   3.577  14.313  2.8330 -1.2805 -0.2394
14107TIP3    H263813   6.189   3.676  14.386 -2.4457  3.4289  0.5069
14108TIP3   OH263814   4.282   2.092   2.799  0.0700 -0.4159  0.4804
14108TIP3    H163815   4.282   1.997   2.786  0.8657 -0.4702  0.8337
14108TIP3    H263816   4.196   2.110   2.837  0.0542 -1.0490  0.7670
14109TIP3   OH263817   4.253   3.472  15.279  0.0501 -0.4909 -0.3868
14109TIP3    H163818   4.241   3.511  15.366  0.6536  0.5021 -0.7341
14109TIP3    H263819   4.177   3.415  15.268 -0.4058 -0.0828  0.4970
14110TIP3   OH263820   4.455   1.036  14.972  0.1208 -0.4389 -0.6673
14110TIP3    H163821   4.434   0.944  14.990 -1.9791 -0.0303 -0.7426
14110TIP3    H263822   4.380   1.084  15.007  2.1318  1.4675  1.2825
14111TIP3   OH263823   2.521   1.457  11.047  0.2367  0.2923  0.3398
14111TIP3    H163824   2.598   1.494  11.090  0.0175  1.0161  0.1325
14111TIP3    H263825   2.496   1.523  10.983 -1.0692  0.4624  0.9959
14112TIP3   OH263826   5.451   3.051   4.411 -0.6547 -1.1227 -0.3103
14112TIP3    H163827   5.416   2.968   4.441 -0.8758 -1.5116 -1.5779
14112TIP3    H263828   5.419   3.115   4.475 -2.1765 -1.7299 -0.4105
14113TIP3   OH263829   5.737   1.416  10.794 -0.2419  0.2780 -0.1214
14113TIP3    H163830   5.752   1.326  10.822  0.6925 -0.0328 -1.5295
14113TIP3    H263831   5.644   1.431  10.812 -0.6998 -1.3533 -0.8802
14114TIP3   OH263832   5.159   1.788  11.734 -0.4746 -0.7377  0.5989
14114TIP3    H163833   5.128   1.727  11.801 -2.2305 -0.1857  0.3387
14114TIP3    H263834   5.105   1.769  11.657 -0.1619  0.2746  0.1034
14115TIP3   OH263835   2.419   2.304  12.613  0.3455 -0.1593 -0.5006
14115TIP3    H163836   2.324   2.301  12.599  0.3241 -1.2137 -0.2224
14115TIP3    H263837   2.436   2.233  12.675  0.9410  1.8059  1.7621
14116TIP3   OH263838   6.541   3.785   4.723  0.1265 -0.5867 -0.2819
14116TIP3    H163839   6.570   3.869   4.758 -0.0970 -0.9778  0.8974
14116TIP3    H263840   6.445   3.789   4.730  0.1020 -0.8136 -0.5019
14117TIP3   OH263841   5.081   2.210  10.297  0.0998  0.5047 -0.3391
14117TIP3    H163842   5.072   2.160  10.216  0.6714 -0.1624  0.0008
14117TIP3    H263843   5.148   2.275  10.277  1.8388 -1.0325  0.2237
14118TIP3   OH263844   3.410   0.997  15.525  0.1227 -0.0171 -0.4871
14118TIP3    H163845   3.440   0.998  15.616  0.2968 -0.1068 -0.5441
14118TIP3    H263846   3.469   1.057  15.480  0.4056 -0.4192 -0.6589
14119TIP3   OH263847   0.001   0.149   1.043 -0.1190  0.1502  0.0831
14119TIP3    H163848   0.002   0.190   0.957 -0.1064  1.8194  0.8532
14119TIP3    H263849   0.041   0.063   1.029  1.0490  0.8963 -1.3249
14120TIP3   OH263850   0.957   2.754   3.902  0.2794  0.1789 -0.3208
14120TIP3    H163851   0.905   2.833   3.887 -0.9526 -0.1684  1.8452
14120TIP3    H263852   1.046   2.780   3.877  0.1642  2.7169  1.5491
14121TIP3   OH263853   0.914   1.341  14.867 -0.0671  0.1256 -0.4523
14121TIP3    H163854   0.908   1.270  14.931  0.4923  1.0535  0.6605
14121TIP3    H263855   0.937   1.298  14.785 -0.7054 -1.0806 -0.0211
14122TIP3   OH263856   1.757   6.075   6.589 -0.1974  0.0750 -0.3182
14122TIP3    H163857   1.780   6.167   6.601  2.0093 -0.2564 -1.4290
14122TIP3    H263858   1.705   6.053   6.666  2.5401  1.2118  2.0322
14123TIP3   OH263859   5.764   0.310   2.532  1.0244  0.0677  0.3938
14123TIP3    H163860   5.832   0.285   2.594  0.1757 -1.1940  0.8604
14123TIP3    H263861   5.775   0.249   2.458  1.2475  0.7495 -0.1502
14124TIP3   OH263862   5.090   3.412   6.049  0.0729  0.4024  0.5132
14124TIP3    H163863   5.106   3.335   5.995 -1.4451  1.4945 -1.6192
14124TIP3    H263864   5.174   3.458   6.050  0.5974 -0.5292  0.6034
14125TIP3   OH263865   1.467   1.322   2.711 -0.1549  0.0844  0.2713
14125TIP3    H163866   1.454   1.397   2.770  0.1362  0.4475 -0.1216
14125TIP3    H263867   1.379   1.288   2.697 -0.2230 -0.0457  0.9631
14126TIP3   OH263868   5.910   0.613   3.008 -0.1467  0.6707  0.3490
14126TIP3    H163869   5.942   0.697   2.975 -1.1829  0.7201 -0.5887
14126TIP3    H263870   5.867   0.573   2.933  0.2058 -0.6506  0.8239
14127TIP3   OH263871   4.652   2.143  11.570  0.4156  0.0811 -0.2993
14127TIP3    H163872   4.685   2.114  11.655  1.4722  2.2322  0.0872
14127TIP3    H263873   4.565   2.103  11.564  0.0893  0.2677  2.0427
14128TIP3   OH263874   6.748   6.596  15.374 -0.4325 -0.1095 -0.3383
14128TIP3    H163875   6.707   6.682  15.374  1.3252  0.8021  0.9820
14128TIP3    H263876   6.840   6.613  15.394 -0.1391 -2.3440  0.5802
14129TIP3   OH263877   4.231   1.563   2.848 -0.2570 -0.5204  0.2086
14129TIP3    H163878   4.277   1.484   2.876 -2.5105 -1.1787  2.4101
14129TIP3    H263879   4.141   1.534   2.833 -0.5635  1.1501 -1.6669
14130TIP3   OH263880   2.769   6.557  11.985  0.6531  0.2863 -0.0005
14130TIP3    H163881   2.819   6.480  12.011 -0.6928 -1.1300 -1.3765
14130TIP3    H263882   2.696   6.560  12.047  0.9089  0.6918  0.2842
14131TIP3   OH263883   6.005   1.819  11.808 -0.0926  0.1733  0.1612
14131TIP3    H163884   6.070   1.749  11.814 -1.4702 -1.1435  0.4293
14131TIP3    H263885   6.019   1.857  11.721  0.3831 -0.7681 -0.1965
14132TIP3   OH263886   1.983   4.732  11.208 -0.5678 -0.1823  0.4955
14132TIP3    H163887   1.969   4.638  11.199 -0.3843 -0.0804 -1.1701
14132TIP3    H263888   1.953   4.753  11.296 -0.8805 -1.7467  0.7826
14133TIP3   OH263889   5.665   2.694   4.843 -0.1726  0.2167  0.0592
14133TIP3    H163890   5.620   2.776   4.825 -0.1293  0.2104 -0.0828
14133TIP3    H263891   5.737   2.692   4.779 -1.3963 -0.9147 -1.3512
14134TIP3   OH263892   0.064   0.855   5.330 -0.2622 -0.2619  0.0999
14134TIP3    H163893   0.057   0.759   5.325  2.1452 -0.4272 -2.5235
14134TIP3    H263894   0.145   0.870   5.379 -0.5132  0.4635  0.3062
14135TIP3   OH263895   4.904   0.023  11.559 -0.1262 -0.2908 -0.2160
14135TIP3    H163896   4.994   0.019  11.527 -0.1073  3.3171 -1.0567
14135TIP3    H263897   4.911   0.000  11.652  1.6343 -0.3005 -0.3150
14136TIP3   OH263898   0.735   6.182   4.248 -0.3549  0.0707  0.2180
14136TIP3    H163899   0.660   6.188   4.307  0.1366 -0.6737  0.9343
14136TIP3    H263900   0.710   6.115   4.185 -1.0899  1.2193 -0.7693
14137TIP3   OH263901   4.673   0.744  14.134  0.1030 -0.4397  0.3317
14137TIP3    H163902   4.600   0.687  14.107  1.5213 -1.7922 -0.8166
14137TIP3    H263903   4.731   0.687  14.184 -0.3395  1.0212  2.6518
14138TIP3   OH263904   5.086   4.373  11.684  0.1516 -0.5415  0.4817
14138TIP3    H163905   5.162   4.372  11.626 -0.7445  3.5944 -1.0781
14138TIP3    H263906   5.119   4.340  11.768  2.6577 -2.3371 -1.0796
14139TIP3   OH263907   3.146   0.095   3.258  0.2916 -0.2204  0.0724
14139TIP3    H163908   3.237   0.114   3.235  0.1743  1.4611  0.8240
14139TIP3    H263909   3.138   0.123   3.350 -0.9163 -0.5477  0.0870
14140TIP3   OH263910   1.864   0.531   1.853  0.0689 -0.1636 -0.2678
14140TIP3    H163911   1.804   0.600   1.882  0.0613 -0.3809  0.2291
14140TIP3    H263912   1.853   0.530   1.758  1.3146  1.6840 -0.4937
14141TIP3   OH263913   3.643   3.499  17.114  0.3088  0.0451  0.2254
14141TIP3    H163914   3.685   3.435  17.173  0.6045 -0.9229 -1.0028
14141TIP3    H263915   3.716   3.551  17.080  0.2068  0.1674  0.1907
14142TIP3   OH263916   0.944   0.677  11.977  0.5748  0.2451  0.2610
14142TIP3    H163917   0.852   0.650  11.981  1.0769 -1.6068  0.2359
14142TIP3    H263918   0.985   0.632  12.051  1.3899  1.3789  0.5114
14143TIP3   OH263919   1.508   0.842  15.539 -0.0629  0.2488 -0.0219
14143TIP3    H163920   1.558   0.819  15.617 -0.1410  1.1978  0.3176
14143TIP3    H263921   1.469   0.759  15.511  2.0771 -0.6376 -0.5970
14144TIP3   OH263922   3.749   3.616   2.058  0.5785  0.4961 -0.4422
14144TIP3    H163923   3.806   3.692   2.057 -0.6608  1.4552 -0.3218
14144TIP3    H263924   3.661   3.651   2.049 -0.2819 -0.6530  2.2155
14145TIP3   OH263925   4.855   2.524   2.277 -0.0991 -0.0017 -0.3090
14145TIP3    H163926   4.847   2.433   2.250  0.3107  0.1946 -1.1174
14145TIP3    H263927   4.822   2.575   2.203 -0.7644  0.5066  0.3149
14146TIP3   OH263928   5.604   6.679   4.003 -0.4807 -0.3860 -0.7475
14146TIP3    H163929   5.546   6.746   3.969 -0.1359 -1.1756 -3.0530
14146TIP3    H263930   5.551   6.599   4.006 -0.5442 -0.3153  0.7879
14147TIP3   OH263931   2.606   2.959   3.962 -0.1142 -0.6415 -0.2933
14147TIP3    H163932   2.531   2.979   3.906  0.6126 -1.2426 -1.5195
14147TIP3    H263933   2.666   2.911   3.905  0.8639 -0.8512  0.8828
14148TIP3   OH263934   0.421   3.571  13.840  0.0775 -0.5621  0.7643
14148TIP3    H163935   0.465   3.486  13.836 -0.5566 -0.9100  0.9749
14148TIP3    H263936   0.335   3.555  13.801  1.0635  0.7526 -2.2578
14149TIP3   OH263937   4.278   1.510   4.323 -0.1891  0.2619  0.4621
14149TIP3    H163938   4.311   1.552   4.243 -0.6992 -1.2422 -0.5747
14149TIP3    H263939   4.334   1.434   4.335 -1.4607 -0.7280  0.2923
14150TIP3   OH263940   2.377   4.885  16.964 -0.2904 -0.0878 -0.1834
14150TIP3    H163941   2.293   4.875  16.920 -0.1852  2.5888 -1.1154
14150TIP3    H263942   2.442   4.882  16.894  0.3864 -1.4480  0.4608
14151TIP3   OH263943   4.737   5.498  10.800  0.6989  0.5758 -0.1729
14151TIP3    H163944   4.738   5.409  10.836 -0.7290  0.0190 -1.3849
14151TIP3    H263945   4.679   5.492  10.724 -2.3259  3.2504  1.6636
14152TIP3   OH263946   0.105   3.018   4.909  0.1495 -0.5726 -0.0894
14152TIP3    H163947   0.061   3.088   4.957 -0.6261 -0.6887 -0.6047
14152TIP3    H263948   0.035   2.955   4.889  1.1783 -2.6281  2.2880
14153TIP3   OH263949   1.817   3.047  11.561 -0.0882  0.5438 -0.0104
14153TIP3    H163950   1.870   2.975  11.524  1.3896  0.8673  1.3771
14153TIP3    H263951   1.739   3.050  11.505  0.8824 -0.6234 -1.5175
14154TIP3   OH263952   6.504   0.248   5.306  0.0798  0.4062 -0.1866
14154TIP3    H163953   6.425   0.196   5.320 -0.2083  1.1908  1.3777
14154TIP3    H263954   6.472   0.335   5.282  0.4184  0.8331  0.8149
14155TIP3   OH263955   0.371   3.839  16.904  0.0684 -0.1341  0.2710
14155TIP3    H163956   0.346   3.755  16.944  0.2646  0.1290  0.9698
14155TIP3    H263957   0.437   3.874  16.964 -0.3960  0.7637  0.2607
14156TIP3   OH263958   2.438   4.338  11.450  0.1940 -0.2457 -0.0925
14156TIP3    H163959   2.521   4.301  11.479  0.1723 -0.5463 -0.4073
14156TIP3    H263960   2.372   4.276  11.480  0.0235  0.3181  0.7249
14157TIP3   OH263961   5.505   0.696   5.916 -0.0518  0.0469  0.0746
14157TIP3    H163962   5.441   0.767   5.917 -1.7267 -1.3971 -0.9855
14157TIP3    H263963   5.495   0.653   6.001 -0.6071 -0.2658 -0.1460
14158TIP3   OH263964   1.330   1.740   0.576  0.7764  0.0382 -0.2004
14158TIP3    H163965   1.316   1.652   0.610  1.3759 -0.2932 -0.7810
14158TIP3    H263966   1.425   1.752   0.580  0.6363  0.9442  0.5689
14159TIP3   OH263967   5.758   5.449  11.551  0.2614 -0.4697  0.4790
14159TIP3    H163968   5.718   5.420  11.469  0.0390 -2.1604  1.1339
14159TIP3    H263969   5.849   5.418  11.546  0.4001 -0.0986  0.6450
14160TIP3   OH263970   4.189   0.461   1.943 -1.0174 -0.2298  0.0700
14160TIP3    H163971   4.100   0.495   1.951 -0.7530  0.5815 -0.3780
14160TIP3    H263972   4.226   0.506   1.867  0.1893  0.3903  0.9862
14161TIP3   OH263973   2.234   2.626   6.000 -0.1254 -0.0780 -0.4942
14161TIP3    H163974   2.257   2.534   5.993 -0.2360 -0.2381  1.0059
14161TIP3    H263975   2.143   2.626   6.029  0.6014  0.4241  2.0226
14162TIP3   OH263976   3.247   5.607   2.720  0.1064 -0.0027  0.2516
14162TIP3    H163977   3.244   5.700   2.746 -0.2540 -0.2394  1.0929
14162TIP3    H263978   3.270   5.561   2.801  0.0362 -0.6766 -0.1102
14163TIP3   OH263979   4.616   3.577   2.269  0.0920 -0.3216 -0.0768
14163TIP3    H163980   4.662   3.501   2.232 -1.2536 -0.7418 -0.9727
14163TIP3    H263981   4.628   3.570   2.363  0.8728 -1.0597 -0.2235
14164TIP3   OH263982   0.556   1.116  16.452 -0.5414 -0.7112 -0.1249
14164TIP3    H163983   0.645   1.109  16.417  0.2641 -0.4238  1.7317
14164TIP3    H263984   0.568   1.115  16.547 -2.5519 -0.8593  0.1645
14165TIP3   OH263985   2.069   3.205  10.989  0.0267 -0.1534  0.1010
14165TIP3    H163986   2.132   3.265  11.028  0.9350 -1.4173  0.6360
14165TIP3    H263987   1.985   3.251  10.995  0.6587  0.9460  0.7266
14166TIP3   OH263988   1.234   5.710  15.869  0.1038  0.5241  0.4309
14166TIP3    H163989   1.158   5.767  15.864  0.3964  0.8305 -1.7420
14166TIP3    H263990   1.309   5.770  15.874  0.3035  0.2765  0.4571
14167TIP3   OH263991   4.000   5.821   4.626 -0.2581  0.4752 -0.0970
14167TIP3    H163992   3.951   5.771   4.692  0.0085 -0.3107 -0.4808
14167TIP3    H263993   3.947   5.813   4.546  1.1757 -1.6645 -0.9228
14168TIP3   OH263994   1.460   2.639  13.222  0.1741 -0.3080 -0.0371
14168TIP3    H163995   1.554   2.655  13.218  0.0124  0.4104 -1.6158
14168TIP3    H263996   1.449   2.549  13.191  0.3345 -0.3825  0.1222
14169TIP3   OH263997   2.435   4.240  15.237 -1.0120 -0.2464  0.2927
14169TIP3    H163998   2.469   4.231  15.148 -2.5481  0.6551 -0.4235
14169TIP3    H263999   2.457   4.329  15.262  2.0551 -1.3233  2.0626
14170TIP3   OH264000   3.355   5.155   1.740 -0.6639  0.5246 -0.1462
14170TIP3    H164001   3.280   5.110   1.701 -0.5740 -0.2260  0.5225
14170TIP3    H264002   3.329   5.169   1.832  0.5661 -1.0719  0.4872
14171TIP3   OH264003   0.405   6.247  15.210 -0.5431 -0.0024  0.1065
14171TIP3    H164004   0.429   6.208  15.126  0.6195 -0.1027  0.4682
14171TIP3    H264005   0.338   6.189  15.245 -2.9586  1.4079 -1.8660
14172TIP3   OH264006   1.534   4.661   6.310  0.6013 -0.6526  0.6808
14172TIP3    H164007   1.518   4.685   6.401 -1.7180  0.8058 -0.0123
14172TIP3    H264008   1.623   4.692   6.292  0.4256  0.7234  1.9770
14173TIP3   OH264009   0.135   1.836   5.101 -0.0628 -0.6231  0.1009
14173TIP3    H164010   0.142   1.784   5.181 -1.3488  0.2092  0.7934
14173TIP3    H264011   0.052   1.883   5.110  0.0681 -0.0328 -1.4460
14174TIP3   OH264012   6.261   4.116   2.094  0.3972  0.0460  0.1772
14174TIP3    H164013   6.352   4.104   2.120  1.2122  1.0308 -2.0142
14174TIP3    H264014   6.265   4.168   2.014 -2.1368  0.6108  0.3377
14175TIP3   OH264015   4.534   3.533   5.115  0.5418  0.2402  0.0769
14175TIP3    H164016   4.444   3.564   5.123 -0.3732 -2.0690 -0.2632
14175TIP3    H264017   4.569   3.535   5.204 -0.4675 -0.4559  0.5065
14176TIP3   OH264018   1.503   2.369  15.425 -0.2349  0.2444 -0.3199
14176TIP3    H164019   1.543   2.387  15.510  0.5298  1.8012 -0.9658
14176TIP3    H264020   1.419   2.328  15.446 -1.3071  3.0243  1.2988
14177TIP3   OH264021   0.675   6.282  15.326 -0.5200  0.2440 -0.6301
14177TIP3    H164022   0.611   6.317  15.264 -0.7028 -1.2757 -1.3452
14177TIP3    H264023   0.697   6.356  15.383 -2.0744  1.0716 -1.0677
14178TIP3   OH264024   2.230   5.455   0.489 -0.0385 -0.3125 -0.2779
14178TIP3    H164025   2.220   5.529   0.548 -0.0209 -2.0068  1.9603
14178TIP3    H264026   2.307   5.408   0.520  1.4867  0.0336 -3.2128
14179TIP3   OH264027   3.389   1.396   2.656  0.2946  0.3854 -0.1118
14179TIP3    H164028   3.410   1.308   2.625 -1.5308 -0.4236  0.8023
14179TIP3    H264029   3.393   1.390   2.751 -3.3084  0.2016  0.1920
14180TIP3   OH264030   4.704   6.149   2.630  0.2169 -0.2133  1.2439
14180TIP3    H164031   4.680   6.058   2.641  0.3138 -0.7018 -1.7019
14180TIP3    H264032   4.643   6.198   2.685 -1.0939 -1.9437  1.3855
14181TIP3   OH264033   5.124   0.215   2.583 -0.2414  0.3708  0.5124
14181TIP3    H164034   5.126   0.309   2.601 -0.0019  0.5257 -0.2831
14181TIP3    H264035   5.201   0.181   2.626  0.1395  0.6827  0.0907
14182TIP3   OH264036   5.506   2.164  15.160  0.3704 -0.2389 -0.2765
14182TIP3    H164037   5.456   2.241  15.187 -0.3552 -0.8813  0.2418
14182TIP3    H264038   5.440   2.097  15.143  1.0642 -1.2382  0.8254
14183TIP3   OH264039   5.860   3.395  11.734 -0.3371  0.2081  0.1351
14183TIP3    H164040   5.780   3.376  11.687  0.0885  0.0664 -0.5482
14183TIP3    H264041   5.918   3.433  11.668 -1.0516  3.7596  1.3222
14184TIP3   OH264042   4.728   0.191  15.766 -0.1534 -0.5782 -0.4489
14184TIP3    H164043   4.676   0.165  15.689 -0.2706  0.8867 -0.9070
14184TIP3    H264044   4.819   0.176  15.740  0.0567  2.5912 -2.1067
14185TIP3   OH264045   3.451   2.541  13.705 -0.1169 -0.2190 -0.3859
14185TIP3    H164046   3.451   2.445  13.694  0.3955 -0.3012  0.2851
14185TIP3    H264047   3.404   2.573  13.628  1.7147 -0.8654 -1.8722
14186TIP3   OH264048   2.933   6.396  16.728 -0.0962 -0.2534 -0.2797
14186TIP3    H164049   2.964   6.380  16.639 -1.0097 -0.2488 -0.6126
14186TIP3    H264050   2.948   6.313  16.773  1.6707  0.1765 -0.0306
14187TIP3   OH264051   0.101   5.364  13.441  0.2268 -0.0857  0.2822
14187TIP3    H164052   0.006   5.368  13.439  0.0847 -1.5435  1.7155
14187TIP3    H264053   0.130   5.443  13.396 -1.6288 -0.5752 -1.9582
14188TIP3   OH264054   4.554   6.165  14.354 -0.2010 -0.4011 -0.5020
14188TIP3    H164055   4.572   6.204  14.269  1.3299  0.0548 -0.0185
14188TIP3    H264056   4.595   6.225  14.417 -1.3326 -0.6972  0.5696
14189TIP3   OH264057   5.248   3.523   3.018  0.0317 -0.2679  0.1855
14189TIP3    H164058   5.327   3.557   3.061  0.1029  0.8679 -0.7999
14189TIP3    H264059   5.201   3.478   3.088  0.9550  0.0962  1.0742
14190TIP3   OH264060   3.282   6.778  15.692  0.3343 -0.2394 -0.2570
14190TIP3    H164061   3.313   6.720  15.761  1.9875  0.8839  0.0129
14190TIP3    H264062   3.293   6.866  15.727  1.4108  0.3775 -1.9754
14191TIP3   OH264063   2.363   6.213   4.217 -0.2763  0.0426  0.1361
14191TIP3    H164064   2.287   6.261   4.183 -1.2998 -0.3751  1.7182
14191TIP3    H264065   2.352   6.125   4.182  1.6764  0.8194 -2.8828
14192TIP3   OH264066   3.200   2.536  15.558  0.3286  0.1307 -0.4387
14192TIP3    H164067   3.129   2.560  15.499 -1.2074  2.0650  1.9847
14192TIP3    H264068   3.187   2.442  15.575  0.5341 -0.3531 -2.6676
14193TIP3   OH264069   0.753   5.287  13.843 -0.4861  0.0047 -0.1041
14193TIP3    H164070   0.808   5.328  13.909  0.7893 -2.8219  0.7833
14193TIP3    H264071   0.688   5.237  13.893 -1.4513  0.2520 -1.0714
14194TIP3   OH264072   1.477   6.117   2.027  0.4335 -0.4890 -0.5447
14194TIP3    H164073   1.543   6.175   2.065  0.7021 -1.6135  0.7814
14194TIP3    H264074   1.524   6.036   2.009 -0.3207 -0.8992 -0.7002
14195TIP3   OH264075   3.652   5.435   6.240 -0.5763  0.6064  0.8608
14195TIP3    H164076   3.686   5.432   6.329 -0.0220 -0.8490  0.6271
14195TIP3    H264077   3.695   5.510   6.200 -0.5200  1.0275  1.6954
14196TIP3   OH264078   4.366   6.659   2.050 -0.2616  0.1347 -0.3361
14196TIP3    H164079   4.396   6.742   2.013  2.1416 -0.8874 -0.8882
14196TIP3    H264080   4.374   6.597   1.977 -0.8123 -0.8197  0.4001
14197TIP3   OH264081   1.036   4.057   0.572  0.1952 -0.8559 -0.1051
14197TIP3    H164082   1.020   3.964   0.557 -0.6800 -0.2311 -4.1858
14197TIP3    H264083   1.130   4.063   0.590  0.1998 -2.4978  0.5898
14198TIP3   OH264084   2.947   3.213   5.712  0.3446 -0.0342 -0.0407
14198TIP3    H164085   2.899   3.184   5.790  0.8036 -0.8404 -0.0595
14198TIP3    H264086   2.893   3.285   5.678 -0.0471  0.1012  0.8122
14199TIP3   OH264087   6.625   2.726   2.359  0.5773  0.5549  0.2261
14199TIP3    H164088   6.663   2.738   2.272 -0.1094 -0.0104 -0.1652
14199TIP3    H264089   6.659   2.642   2.389 -0.8699 -0.3088 -0.4312
14200TIP3   OH264090   5.928   5.387  12.005  0.2342 -0.4522  0.2230
14200TIP3    H164091   5.927   5.344  11.920 -0.0277 -2.0405  1.0004
14200TIP3    H264092   5.884   5.471  11.990  1.1085 -0.2616 -1.4082
14201TIP3   OH264093   2.532   4.257  14.975  0.1300 -0.1152 -0.4270
14201TIP3    H164094   2.501   4.192  14.911  0.3932  0.3692 -1.0575
14201TIP3    H264095   2.532   4.340  14.927 -0.7819  0.4754  0.5370
14202TIP3   OH264096   6.307   2.091   1.502 -0.2485  0.8751  0.1640
14202TIP3    H164097   6.263   2.138   1.431 -0.7920 -1.6607 -1.3147
14202TIP3    H264098   6.381   2.146   1.526 -1.2503  2.7905 -0.9263
14203TIP3   OH264099   1.160   5.606  12.799 -0.2411 -0.2387 -0.7244
14203TIP3    H164100   1.091   5.670  12.815  1.0703  0.7841  1.1809
14203TIP3    H264101   1.119   5.522  12.819 -0.6193  0.4580  1.7182
14204TIP3   OH264102   2.557   4.668   2.152 -0.0496 -0.0471 -0.2679
14204TIP3    H164103   2.581   4.584   2.113  1.8543  0.0185  0.6107
14204TIP3    H264104   2.463   4.662   2.167 -0.0526 -1.8032 -0.7411
14205TIP3   OH264105   0.831   3.430  11.685 -0.1381  0.0961  0.7306
14205TIP3    H164106   0.751   3.429  11.738 -1.4685 -1.5805 -1.1472
14205TIP3    H264107   0.822   3.355  11.627  0.6550  2.4381 -2.6859
14206TIP3   OH264108   0.132   2.131   4.384  0.3022 -0.2033  0.2268
14206TIP3    H164109   0.210   2.173   4.420 -0.2942  1.9417 -0.8260
14206TIP3    H264110   0.163   2.083   4.307  0.8376 -0.9189  0.8720
14207TIP3   OH264111   2.898   6.248   2.163  0.0550 -0.3514  0.3129
14207TIP3    H164112   2.873   6.163   2.127 -0.1943 -0.4832  0.7854
14207TIP3    H264113   2.860   6.249   2.251 -0.6314  0.5596  0.0319
14208TIP3   OH264114   5.089   0.528  16.901 -0.0970  0.3976 -0.6635
14208TIP3    H164115   5.074   0.436  16.924  1.9023 -0.2718 -1.8146
14208TIP3    H264116   5.127   0.567  16.979  0.6783 -0.2111 -0.7337
14209TIP3   OH264117   3.719   1.916   4.474 -0.1401  0.3421  0.3634
14209TIP3    H164118   3.759   1.973   4.540  0.2716 -0.4215  0.7807
14209TIP3    H264119   3.652   1.867   4.521  0.6488 -0.7318  0.3853
14210TIP3   OH264120   5.380   6.102  13.089 -0.1438  0.2865 -0.3669
14210TIP3    H164121   5.380   6.136  13.179  2.5464 -1.4315  0.4084
14210TIP3    H264122   5.334   6.019  13.095 -1.7416  1.0697 -1.0805
14211TIP3   OH264123   3.858   2.457   3.840  0.0264 -0.2080  0.0944
14211TIP3    H164124   3.946   2.485   3.813  0.5028 -1.0696  0.7253
14211TIP3    H264125   3.808   2.538   3.843  0.3987  0.1406 -1.6947
14212TIP3   OH264126   6.717   3.272   1.800  0.1786 -0.2624 -0.1086
14212TIP3    H164127   6.764   3.251   1.720 -0.3954 -0.2233 -0.4586
14212TIP3    H264128   6.722   3.193   1.853 -0.0110 -0.5080 -0.4586
14213TIP3   OH264129   2.001   3.857  13.427  0.0462  0.2216 -0.7943
14213TIP3    H164130   2.039   3.885  13.510 -0.6098  0.5054 -0.5865
14213TIP3    H264131   2.045   3.775  13.407  0.2913  0.2106 -0.2280
14214TIP3   OH264132   6.520   2.454  16.697 -0.3942  0.1508  0.0997
14214TIP3    H164133   6.475   2.370  16.687  0.9546 -0.7463  1.2065
14214TIP3    H264134   6.566   2.466  16.614  0.5484 -0.9561  0.4181
14215TIP3   OH264135   6.504   3.283  12.864  0.5287 -0.5094 -0.1227
14215TIP3    H164136   6.532   3.327  12.784  1.9578 -0.0515  0.6033
14215TIP3    H264137   6.468   3.353  12.919  1.3816 -0.4843  0.4165
14216TIP3   OH264138   1.072   5.997  16.619 -0.4716  0.1516 -0.4434
14216TIP3    H164139   1.112   5.925  16.668 -1.0999 -0.3283 -0.6241
14216TIP3    H264140   1.089   5.976  16.527 -1.5526 -0.3352 -0.5549
14217TIP3   OH264141   1.880   2.621   2.787 -0.1592  0.6357 -0.1490
14217TIP3    H164142   1.825   2.584   2.719 -1.6736  0.9507  0.8463
14217TIP3    H264143   1.869   2.715   2.779 -0.8049  0.6644  0.8501
14218TIP3   OH264144   2.127   0.191   0.873 -0.6528  0.1855  0.2301
14218TIP3    H164145   2.083   0.113   0.907  2.5222 -1.5384  0.7875
14218TIP3    H264146   2.128   0.179   0.778  2.0599 -1.9622  0.4049
14219TIP3   OH264147   4.892   1.486  11.318 -0.3496  0.2152 -0.2402
14219TIP3    H164148   4.920   1.574  11.343 -0.8696 -0.0379  1.3337
14219TIP3    H264149   4.938   1.469  11.236 -2.0210  2.8490 -1.8815
14220TIP3   OH264150   2.529   5.834   2.997 -0.1308 -0.4752  0.6364
14220TIP3    H164151   2.619   5.861   3.014 -1.0384  2.7010  0.9573
14220TIP3    H264152   2.480   5.861   3.075 -1.6647 -0.4108 -0.3058
14221TIP3   OH264153   6.582   0.685   0.009 -0.0628  0.5000  0.3609
14221TIP3    H164154   6.531   0.760   0.040  2.4396  2.2041  0.7121
14221TIP3    H264155   6.555   0.674  -0.082 -0.1525  2.2005  0.1480
14222TIP3   OH264156   2.536   2.071  12.820  0.0173 -0.3157  0.2121
14222TIP3    H164157   2.598   2.043  12.887  0.8772  0.4621 -0.2291
14222TIP3    H264158   2.588   2.126  12.761 -0.4375 -1.8816 -1.7451
14223TIP3   OH264159   5.701   5.076   3.759  0.1106  0.0871 -0.4069
14223TIP3    H164160   5.755   5.126   3.820 -0.7152  0.1198  0.3124
14223TIP3    H264161   5.633   5.136   3.731  0.4048  0.0301 -1.2720
14224TIP3   OH264162   3.558   4.554  10.461 -0.1764 -0.2919 -0.4337
14224TIP3    H164163   3.561   4.560  10.366 -0.4230  1.0378 -0.3724
14224TIP3    H264164   3.467   4.535  10.482  0.1539 -2.1741 -0.5062
14225TIP3   OH264165   2.566   2.557  16.608  0.0256 -0.1179 -0.0529
14225TIP3    H164166   2.491   2.590  16.559 -0.3005 -0.6642  0.0672
14225TIP3    H264167   2.625   2.522  16.540 -0.0493 -0.1329 -0.1100
14226TIP3   OH264168   1.922   1.900   3.098 -0.0999 -0.0520  0.2484
14226TIP3    H164169   1.829   1.908   3.121  0.2870  1.3968  1.4717
14226TIP3    H264170   1.968   1.943   3.170  1.4473  0.6927 -1.1198
14227TIP3   OH264171   5.699   6.780  12.915 -0.1619 -0.5258 -0.3390
14227TIP3    H164172   5.751   6.819  12.845  0.0258 -0.9131 -0.4158
14227TIP3    H264173   5.609   6.805  12.894 -0.1415 -0.8869 -0.8900
14228TIP3   OH264174   5.088   1.947   3.913 -0.3093 -0.6029  0.0439
14228TIP3    H164175   5.060   2.035   3.886 -1.0874 -0.2955  1.6907
14228TIP3    H264176   5.048   1.935   4.000  0.4189 -2.2830  0.1875
14229TIP3   OH264177   1.003   3.738  15.374 -0.1745  0.6529 -0.1248
14229TIP3    H164178   1.046   3.678  15.436  0.6156 -1.3743 -2.4316
14229TIP3    H264179   0.910   3.734  15.396  0.2752  1.5771  2.1366
14230TIP3   OH264180   4.603   5.006   0.895 -0.9017 -0.0625  0.3109
14230TIP3    H164181   4.582   4.914   0.913 -0.2120 -0.0028  1.4974
14230TIP3    H264182   4.535   5.034   0.833 -0.4874 -1.6704 -0.9460
14231TIP3   OH264183   2.869   6.200   3.611  0.2805 -0.2179  0.1522
14231TIP3    H164184   2.842   6.126   3.666  0.9295 -1.0971 -0.6724
14231TIP3    H264185   2.801   6.266   3.626  0.6719 -0.2308  2.3289
14232TIP3   OH264186   5.855   6.796  16.966  0.1684 -0.4094  0.3176
14232TIP3    H164187   5.921   6.851  17.009  0.3556 -0.1167 -0.3320
14232TIP3    H264188   5.785   6.788  17.031  0.7405 -0.5286  0.9253
14233TIP3   OH264189   0.861   5.535  13.519 -0.7310 -0.2073  0.1077
14233TIP3    H164190   0.886   5.598  13.587  0.7321 -0.3225 -0.2958
14233TIP3    H264191   0.911   5.561  13.442 -2.2947 -0.1508 -0.9273
14234TIP3   OH264192   1.731   5.400  15.308  0.0248 -0.3340  0.9004
14234TIP3    H164193   1.706   5.314  15.343 -1.8628  0.1885  0.9504
14234TIP3    H264194   1.648   5.444  15.292  0.9521  1.3373  0.4753
14235TIP3   OH264195   4.818   0.840  11.449  0.2217 -0.1294 -0.5052
14235TIP3    H164196   4.882   0.811  11.514 -0.7091 -0.5716  0.2339
14235TIP3    H264197   4.842   0.793  11.369  1.2626  0.2813 -0.4468
14236TIP3   OH264198   5.507   2.617  15.603  0.2833 -0.1365 -0.3413
14236TIP3    H164199   5.520   2.644  15.512 -2.7325  1.5981 -0.3886
14236TIP3    H264200   5.436   2.553  15.599 -0.5324  0.6500  0.8317
14237TIP3   OH264201   2.801   1.628   3.244 -0.7504  0.2327  0.0162
14237TIP3    H164202   2.790   1.711   3.198  0.8624 -0.9332 -2.7606
14237TIP3    H264203   2.872   1.644   3.306  0.1608  0.7437 -1.1187
14238TIP3   OH264204   4.273   6.112   5.209 -0.2461 -0.4286  0.3407
14238TIP3    H164205   4.299   6.021   5.228  1.6885 -0.5553 -2.3163
14238TIP3    H264206   4.287   6.121   5.115 -2.5094  2.0363  0.1347
14239TIP3   OH264207   6.598   2.134   3.864  0.3447 -0.2883 -0.3845
14239TIP3    H164208   6.667   2.127   3.930 -0.1206  0.9283  0.2680
14239TIP3    H264209   6.642   2.173   3.789  0.3016  0.8738  0.1732
14240TIP3   OH264210   3.008   5.641   1.168  0.3841 -0.4801  0.0115
14240TIP3    H164211   3.058   5.607   1.243 -0.1154 -0.4447  0.3659
14240TIP3    H264212   3.025   5.579   1.098  0.4205 -0.8208  0.3152
14241TIP3   OH264213   2.816   0.435   0.433 -0.3451 -0.0431 -0.0079
14241TIP3    H164214   2.853   0.382   0.504  0.9933  1.4093  0.4285
14241TIP3    H264215   2.893   0.471   0.388 -1.2092  1.2669 -0.4832
14242TIP3   OH264216   1.225   3.787   3.604  1.0124 -0.2447 -0.6189
14242TIP3    H164217   1.163   3.734   3.654  0.1623 -1.3303 -2.6699
14242TIP3    H264218   1.225   3.872   3.648 -2.3595 -0.0078 -0.7468
14243TIP3   OH264219   1.655   0.541   2.191  0.1574 -0.1486 -0.3390
14243TIP3    H164220   1.561   0.538   2.210  0.3197 -1.5846  0.3656
14243TIP3    H264221   1.661   0.591   2.110 -1.1937  0.2365 -0.2278
14244TIP3   OH264222   6.210   2.606   2.937 -0.0400 -0.0024 -0.4940
14244TIP3    H164223   6.176   2.656   2.863 -1.3440  0.7528  0.5592
14244TIP3    H264224   6.296   2.576   2.909  0.3264  1.9132 -1.5899
14245TIP3   OH264225   4.101   6.371   5.293  0.0277  0.1436 -0.0621
14245TIP3    H164226   4.169   6.393   5.230 -0.2539  0.3615 -0.2946
14245TIP3    H264227   4.102   6.275   5.297  1.7687  0.1924  1.5212
14246TIP3   OH264228   2.529   4.307   2.780 -0.3365  1.0283  0.0322
14246TIP3    H164229   2.493   4.333   2.865  0.3901  1.7502  0.1332
14246TIP3    H264230   2.465   4.337   2.716 -0.2120  1.7497  0.2434
14247TIP3   OH264231   5.115   1.067  10.270 -0.4703  1.0964 -0.0809
14247TIP3    H164232   5.070   1.012  10.206 -1.0229  1.7936 -0.3029
14247TIP3    H264233   5.054   1.074  10.343  0.4354 -0.2734  0.8605
14248TIP3   OH264234   2.656   2.548   1.102  0.0717 -0.1323 -0.5831
14248TIP3    H164235   2.725   2.529   1.038  0.8200 -0.1651  0.2151
14248TIP3    H264236   2.699   2.602   1.168 -1.0860  1.2590 -0.8942
14249TIP3   OH264237   0.958   2.183  11.374  0.4666 -0.1531 -0.0406
14249TIP3    H164238   0.967   2.178  11.469 -0.4384 -0.3410  0.0430
14249TIP3    H264239   1.001   2.266  11.350 -1.1244  0.9791  0.8025
14250TIP3   OH264240   1.602   2.288   5.881 -0.4540  0.4274 -0.6981
14250TIP3    H164241   1.527   2.293   5.941 -0.2091 -1.4231 -0.1908
14250TIP3    H264242   1.679   2.298   5.938 -0.2513 -0.3423 -0.8229
14251TIP3   OH264243   4.549   4.215   3.755 -0.2380 -0.1523  0.3344
14251TIP3    H164244   4.461   4.179   3.751 -0.4438  0.2059  1.4964
14251TIP3    H264245   4.554   4.259   3.839  0.3609  1.6192 -0.5763
14252TIP3   OH264246   3.335   3.322  11.094  0.5120  0.1287  0.0989
14252TIP3    H164247   3.339   3.417  11.099  1.7807  0.2037 -1.7016
14252TIP3    H264248   3.268   3.304  11.029 -0.7179 -0.2826  1.4280
14253TIP3   OH264249   4.835   0.939   4.840 -0.1592 -0.0430 -0.0544
14253TIP3    H164250   4.821   0.920   4.747  0.9372 -1.7372  0.0817
14253TIP3    H264251   4.874   1.026   4.841  0.8122 -0.4313 -1.2944
14254TIP3   OH264252   5.360   6.748   0.989 -0.4906 -0.0395 -0.0162
14254TIP3    H164253   5.348   6.754   1.083 -0.9469  0.2450 -0.0898
14254TIP3    H264254   5.440   6.798   0.971  0.4374 -1.3137  0.3868
14255TIP3   OH264255   0.205   1.102  13.357  0.2217 -0.0358 -0.4269
14255TIP3    H164256   0.201   1.196  13.335  0.8267 -0.2188 -1.3901
14255TIP3    H264257   0.265   1.066  13.293  0.7157 -0.9314  0.5161
14256TIP3   OH264258   5.337   2.876  15.591  0.0096 -0.1825 -0.3721
14256TIP3    H164259   5.383   2.930  15.655  1.0979  1.4147 -2.3757
14256TIP3    H264260   5.380   2.791  15.595  0.7236  0.2017  0.2987
14257TIP3   OH264261   2.944   2.522  13.617 -0.0182 -0.3232 -0.1095
14257TIP3    H164262   2.866   2.502  13.566 -1.9033  1.5911  1.7949
14257TIP3    H264263   3.017   2.506  13.557 -1.8352 -2.0938 -2.0063
14258TIP3   OH264264   6.820   2.698  13.497 -0.4127 -0.1433 -0.6686
14258TIP3    H164265   6.905   2.740  13.505 -0.2581 -0.1548 -1.9726
14258TIP3    H264266   6.759   2.769  13.476 -0.1672 -0.4833 -2.7883
14259TIP3   OH264267   5.290   6.182   5.544 -0.2635  0.1525  0.1808
14259TIP3    H164268   5.315   6.124   5.615  0.3072 -1.4404 -1.2697
14259TIP3    H264269   5.202   6.212   5.567 -0.0357 -0.2179  1.6044
14260TIP3   OH264270   6.610   1.911   4.056 -0.6178  0.1115  0.4695
14260TIP3    H164271   6.701   1.886   4.068 -1.6555 -3.3902  2.5934
14260TIP3    H264272   6.560   1.842   4.099 -4.3269  1.7483 -0.7444
14261TIP3   OH264273   3.446   2.462  12.749 -0.1982  0.9479  0.1296
14261TIP3    H164274   3.355   2.468  12.722 -0.5962  1.1250  1.4415
14261TIP3    H264275   3.463   2.369  12.761 -0.3003  0.9342  0.1639
14262TIP3   OH264276   6.612   3.459  16.218  0.1134 -0.2680 -0.3673
14262TIP3    H164277   6.574   3.399  16.153 -0.4380 -0.7734  0.4063
14262TIP3    H264278   6.537   3.504  16.257  0.3825 -0.4608  0.3932
14263TIP3   OH264279   6.266   0.973  11.576 -0.4607  1.0149 -0.2442
14263TIP3    H164280   6.329   1.026  11.625 -0.7232  1.4662 -0.3926
14263TIP3    H264281   6.280   0.884  11.608  0.4456  1.0690 -0.4807
14264TIP3   OH264282   4.829   4.182   2.162  0.2948  0.1709  0.5697
14264TIP3    H164283   4.917   4.204   2.193  0.4641 -1.5691  1.4238
14264TIP3    H264284   4.832   4.088   2.146 -1.2924  0.1628  0.1641
14265TIP3   OH264285   2.336   0.662  12.641  1.1793  0.1263 -0.0326
14265TIP3    H164286   2.277   0.690  12.711  1.6861  0.4778  0.2706
14265TIP3    H264287   2.398   0.603  12.684  2.6986  1.8456  0.3041
14266TIP3   OH264288   4.729   2.485   3.422  0.2734 -0.1944  0.7059
14266TIP3    H164289   4.767   2.406   3.382  0.8912  0.7986 -0.7755
14266TIP3    H264290   4.800   2.522   3.474  0.3475 -0.0293  0.4910
14267TIP3   OH264291   4.170   3.369  10.773  0.2745 -0.8297 -0.3359
14267TIP3    H164292   4.134   3.426  10.704 -1.4540  1.1229  2.0014
14267TIP3    H264293   4.255   3.408  10.795 -0.8396  0.9204  1.1543
14268TIP3   OH264294   3.903   1.160   3.959  0.2263  0.1130  0.1154
14268TIP3    H164295   3.950   1.105   4.022 -1.7425  1.5181  3.0084
14268TIP3    H264296   3.949   1.244   3.961 -1.2306  0.9320  1.6341
14269TIP3   OH264297   1.023   3.107   5.189 -0.0919 -0.5345 -0.1475
14269TIP3    H164298   1.082   3.179   5.165  0.1604 -0.7004 -0.0249
14269TIP3    H264299   1.069   3.060   5.258 -0.3816 -0.6477 -0.0315
14270TIP3   OH264300   5.510   4.945   2.920  0.8650  0.0239  0.0069
14270TIP3    H164301   5.512   5.016   2.985 -1.4398  0.2267 -0.0602
14270TIP3    H264302   5.505   4.865   2.972  0.9026  0.0657  0.0756
14271TIP3   OH264303   1.536   1.468   3.635  0.3781  0.2226 -0.0832
14271TIP3    H164304   1.509   1.390   3.683 -0.1951  0.2939 -0.2731
14271TIP3    H264305   1.469   1.533   3.658 -0.0791  0.1677 -1.2067
14272TIP3   OH264306   5.043   0.548  16.118 -0.2148 -0.3248 -0.5720
14272TIP3    H164307   4.951   0.534  16.140 -0.0619  1.1481  1.2658
14272TIP3    H264308   5.071   0.465  16.079 -1.6647 -1.7469  1.2126
14273TIP3   OH264309   2.051   5.897   0.728 -0.2699  0.0161  0.0635
14273TIP3    H164310   1.972   5.892   0.674  0.3432 -1.6328 -0.7563
14273TIP3    H264311   2.044   5.980   0.774 -0.7375  1.6130 -2.6958
14274TIP3   OH264312   0.760   4.446   3.289  0.1095  0.4774  0.1896
14274TIP3    H164313   0.844   4.473   3.326  0.1701  0.7833 -0.1614
14274TIP3    H264314   0.752   4.497   3.208  0.2883 -0.6322 -0.5640
14275TIP3   OH264315   4.956   4.770   1.732 -0.0978  0.0264  0.1452
14275TIP3    H164316   4.960   4.850   1.680  1.9896  0.5085  0.9546
14275TIP3    H264317   5.016   4.786   1.805 -0.3563 -1.9202  0.8381
14276TIP3   OH264318   0.342   3.662   1.642 -0.2675  0.1630  0.9192
14276TIP3    H164319   0.364   3.745   1.685 -1.2356  0.6862  0.4358
14276TIP3    H264320   0.247   3.665   1.631 -0.0484  0.3912 -1.8402
14277TIP3   OH264321   1.968   6.318   2.280  0.4521  0.1072  0.0915
14277TIP3    H164322   2.037   6.364   2.232  1.1680 -0.3599  0.6574
14277TIP3    H264323   1.947   6.375   2.353 -0.0146  0.4122 -0.2781
14278TIP3   OH264324   6.637   0.568   2.432 -0.6231 -0.1072 -0.3233
14278TIP3    H164325   6.654   0.646   2.380  0.6787  0.5431  1.0003
14278TIP3    H264326   6.720   0.521   2.432  0.0312  0.8314  2.5833
14279TIP3   OH264327   4.073   2.425   4.547 -0.3333 -0.1815  0.2439
14279TIP3    H164328   4.043   2.399   4.460  1.4867  2.0920 -1.1884
14279TIP3    H264329   4.167   2.442   4.535 -0.3211  1.5490  2.3024
14280TIP3   OH264330   6.408   6.719   5.802  0.2434 -0.4138  0.3316
14280TIP3    H164331   6.330   6.720   5.747  1.7014  0.2924 -1.8376
14280TIP3    H264332   6.449   6.635   5.784  0.4299 -0.4331  0.8285
14281TIP3   OH264333   4.459   4.273   0.619 -0.2279 -0.0651 -0.2747
14281TIP3    H164334   4.409   4.321   0.685 -0.0756  1.6598 -1.3481
14281TIP3    H264335   4.393   4.233   0.563 -0.3587 -1.9346  1.1546
14282TIP3   OH264336   0.348   6.242  15.988 -0.0055 -0.6988 -0.0844
14282TIP3    H164337   0.409   6.187  15.940  1.4929 -0.2555  1.2006
14282TIP3    H264338   0.376   6.234  16.080 -0.8530  0.7929  0.3426
14283TIP3   OH264339   1.584   5.867  14.845  0.5812  0.2563 -0.1477
14283TIP3    H164340   1.663   5.836  14.888  1.0939  2.7617  0.9158
14283TIP3    H264341   1.564   5.951  14.888 -1.5389  0.6562 -1.7017
14284TIP3   OH264342   6.776   0.489   6.293 -0.2625 -0.0758  0.2605
14284TIP3    H164343   6.700   0.508   6.347 -0.6692 -0.4768 -0.1641
14284TIP3    H264344   6.776   0.394   6.284 -0.2369 -0.0117 -0.4942
14285TIP3   OH264345   1.581   5.247  15.962 -0.3274  0.9906 -0.4022
14285TIP3    H164346   1.519   5.279  16.027 -0.6991  0.0319 -0.2657
14285TIP3    H264347   1.647   5.316  15.956  0.1638  0.7697  1.6048
14286TIP3   OH264348   2.675   3.258  17.131 -0.1953 -0.4412 -0.4279
14286TIP3    H164349   2.677   3.285  17.039  1.1208 -0.4503 -0.4213
14286TIP3    H264350   2.704   3.336  17.179 -0.6207 -0.5183 -0.0494
14287TIP3   OH264351   6.101   2.048   3.549  0.1364 -0.0432  0.3733
14287TIP3    H164352   6.164   2.037   3.478 -0.1792 -0.7501  0.1979
14287TIP3    H264353   6.019   2.068   3.505  0.1824  0.6803  0.5949
14288TIP3   OH264354   4.969   1.737   3.712  0.7123  0.9420  0.3361
14288TIP3    H164355   4.883   1.755   3.674 -0.2351  1.6842  2.6708
14288TIP3    H264356   4.995   1.819   3.754  1.6955  0.1943  1.2421
14289TIP3   OH264357   0.166   0.670   3.137  0.6936  0.6468 -0.3994
14289TIP3    H164358   0.200   0.694   3.051  1.1543  0.7305 -0.1953
14289TIP3    H264359   0.150   0.754   3.180 -1.3973  0.6733 -1.1017
14290TIP3   OH264360   2.093   3.105   0.118 -0.3061  0.2427  0.2384
14290TIP3    H164361   2.168   3.060   0.078 -0.3590  0.2835  0.0905
14290TIP3    H264362   2.059   3.161   0.048 -2.9534 -2.7014 -1.0940
14291TIP3   OH264363   5.811   2.936  15.155  0.7471  0.1286 -0.0507
14291TIP3    H164364   5.813   2.992  15.077  0.0137 -1.0232 -0.9254
14291TIP3    H264365   5.759   2.860  15.129 -0.2216  0.0949  1.8330
14292TIP3   OH264366   5.423   4.147   3.287  0.0156  0.6688 -0.0962
14292TIP3    H164367   5.361   4.211   3.321 -3.0815  0.2559 -4.2675
14292TIP3    H264368   5.469   4.192   3.217  2.0599 -0.1233  0.6303
14293TIP3   OH264369   4.443   1.381   1.384 -0.1357 -0.0393  0.1938
14293TIP3    H164370   4.436   1.287   1.370 -1.3674  0.3699 -2.3832
14293TIP3    H264371   4.433   1.392   1.479  0.6561 -2.5098  0.6243
14294TIP3   OH264372   4.352   6.395  11.285  1.1044 -0.0150 -0.3324
14294TIP3    H164373   4.275   6.450  11.303  1.0743  0.2794 -1.2581
14294TIP3    H264374   4.318   6.322  11.234  1.4871  0.3654 -1.1667
14295TIP3   OH264375   6.358   0.595  16.641 -0.1778  0.4154 -0.1315
14295TIP3    H164376   6.303   0.590  16.562  0.6906 -2.9532 -0.6963
14295TIP3    H264377   6.342   0.682  16.676 -0.1799  2.3463 -4.3343
14296TIP3   OH264378   5.611   6.284   5.307  0.1675  0.0668  0.1227
14296TIP3    H164379   5.571   6.363   5.343  0.7548  0.9978 -1.1959
14296TIP3    H264380   5.556   6.213   5.339 -2.8910  1.2882 -1.9163
14297TIP3   OH264381   0.030   6.506   5.578  0.2714  0.1642 -0.2264
14297TIP3    H164382  -0.000   6.483   5.490  1.8188  4.0912 -2.0163
14297TIP3    H264383   0.111   6.457   5.590 -0.8214 -1.7180 -0.1558
14298TIP3   OH264384   0.010   4.677   0.292 -0.3657 -0.1791 -0.1652
14298TIP3    H164385   0.089   4.730   0.279 -0.5375 -0.0931 -0.9101
14298TIP3    H264386  -0.050   4.737   0.336  0.3700 -0.6003  1.4618
14299TIP3   OH264387   0.723   1.908  13.739 -0.4636 -0.2039 -0.3236
14299TIP3    H164388   0.789   1.926  13.806 -1.4905 -1.2784  1.0373
14299TIP3    H264389   0.766   1.931  13.657  0.9717  0.8031  0.6562
14300TIP3   OH264390   1.543   5.916   3.887 -0.2784  0.3008  0.3261
14300TIP3    H164391   1.452   5.918   3.856 -0.6871  0.2513  1.4546
14300TIP3    H264392   1.594   5.888   3.811 -1.3724 -1.0441  0.0525
14301TIP3   OH264393   3.475   4.684   0.916  0.9597  0.5425  0.0129
14301TIP3    H164394   3.468   4.779   0.924 -1.0353  0.3139  1.8779
14301TIP3    H264395   3.394   4.658   0.873  0.4539 -0.4502  1.4833
14302TIP3   OH264396   6.447   1.244  11.024 -0.2333 -0.6153 -0.2970
14302TIP3    H164397   6.484   1.188  10.955  1.6101 -0.6786  0.6929
14302TIP3    H264398   6.512   1.313  11.036 -1.1285  0.1132  0.5156
14303TIP3   OH264399   5.100   3.383  16.879  0.9818  0.2174 -0.4644
14303TIP3    H164400   5.093   3.463  16.930  2.0688 -0.1008  0.2235
14303TIP3    H264401   5.133   3.317  16.941 -1.9185 -1.3522 -0.4379
14304TIP3   OH264402   6.735   4.021  15.282  0.3497 -0.0677  0.0000
14304TIP3    H164403   6.747   4.030  15.188  2.0170 -1.4700  0.0249
14304TIP3    H264404   6.643   3.997  15.292 -0.2548  1.6108 -1.1084
14305TIP3   OH264405   5.050   3.661  14.299 -0.0932 -0.3706  0.5177
14305TIP3    H164406   4.995   3.584  14.312 -2.2119  1.3034  2.0575
14305TIP3    H264407   5.086   3.680  14.385 -0.0518  0.6758  0.2868
14306TIP3   OH264408   3.913   4.955  13.735  0.7397 -0.1185 -0.5578
14306TIP3    H164409   3.855   4.953  13.811 -0.2734  1.4697 -1.2341
14306TIP3    H264410   3.925   4.863  13.711 -1.4256 -0.5010 -0.3241
14307TIP3   OH264411   5.788   6.550  15.651  0.7005  0.3916 -0.5394
14307TIP3    H164412   5.734   6.480  15.615  0.3482 -0.0148  0.7087
14307TIP3    H264413   5.768   6.626  15.597 -0.3464 -0.0173 -0.7494
14308TIP3   OH264414   0.455   3.493   2.649  0.0630  0.0450 -0.0894
14308TIP3    H164415   0.454   3.507   2.744  1.6645 -0.4006  0.0142
14308TIP3    H264416   0.547   3.497   2.625 -0.2514 -0.6885 -1.5133
14309TIP3   OH264417   3.898   0.562   0.919 -0.0928  0.3550  0.4113
14309TIP3    H164418   3.863   0.648   0.941  0.1970  0.7878 -0.7912
14309TIP3    H264419   3.831   0.521   0.864 -0.2087 -0.1843  0.9336
14310TIP3   OH264420   6.223   6.080  14.734  0.5995 -0.9469 -0.3788
14310TIP3    H164421   6.196   6.137  14.662 -1.3265 -0.2710  0.8076
14310TIP3    H264422   6.195   5.992  14.708 -2.0231 -0.4142  0.3547
14311TIP3   OH264423   3.934   0.657   4.480 -0.3204  0.1766 -0.2755
14311TIP3    H164424   3.949   0.580   4.534 -1.3115 -0.1335 -0.4145
14311TIP3    H264425   3.838   0.664   4.475 -0.2403  1.0054 -0.8460
14312TIP3   OH264426   4.280   0.152  11.859 -0.3772  0.6141 -0.2797
14312TIP3    H164427   4.336   0.130  11.784  2.7660 -0.5807  2.1899
14312TIP3    H264428   4.271   0.247  11.854 -2.4168  0.4104 -3.4450
14313TIP3   OH264429   3.247   3.923   0.579 -0.4976  0.1412  1.0432
14313TIP3    H164430   3.294   4.004   0.561 -0.3542 -0.1165  0.1800
14313TIP3    H264431   3.169   3.928   0.523 -0.7760 -0.0608  1.4118
14314TIP3   OH264432   0.228   1.608  12.874 -0.5738  0.3189  0.2323
14314TIP3    H164433   0.294   1.584  12.809 -0.3266 -0.1304  0.6437
14314TIP3    H264434   0.196   1.525  12.908  0.3980  0.5352  1.7866
14315TIP3   OH264435   5.335   5.764  12.615 -0.1288 -0.1722 -0.3564
14315TIP3    H164436   5.411   5.792  12.667 -1.1183 -0.9541  1.6116
14315TIP3    H264437   5.364   5.683  12.572  0.6575  0.4139 -0.9846
14316TIP3   OH264438   6.772   4.851  15.858 -0.2790  0.1255 -0.1296
14316TIP3    H164439   6.777   4.888  15.770 -1.2434 -3.8647 -2.1108
14316TIP3    H264440   6.694   4.889  15.896 -0.8101  0.7005 -1.6994
14317TIP3   OH264441   1.071   0.538  16.504 -0.1143  0.4889 -0.0120
14317TIP3    H164442   1.119   0.457  16.520  0.0872  0.0518 -2.4965
14317TIP3    H264443   1.043   0.566  16.591 -0.6441 -2.5174  0.9161
14318TIP3   OH264444   5.873   6.528   5.252  0.3775  0.4950  0.2967
14318TIP3    H164445   5.919   6.555   5.331  0.3740 -1.9203  1.2085
14318TIP3    H264446   5.791   6.576   5.255  0.7745  1.1528  1.2611
14319TIP3   OH264447   3.736   6.122   4.784  0.2542 -0.0639 -0.3148
14319TIP3    H164448   3.659   6.153   4.833  0.7277  0.4928  0.0837
14319TIP3    H264449   3.701   6.053   4.727 -0.4935 -0.0110  0.0609
14320TIP3   OH264450   5.467   0.972  15.474  0.2051  0.1966  0.0839
14320TIP3    H164451   5.388   1.007  15.433 -1.5371 -0.6853  2.4568
14320TIP3    H264452   5.489   0.895  15.421 -1.4713 -0.4425  0.2604
14321TIP3   OH264453   6.541   4.061  14.831 -0.5473 -0.1839 -0.0779
14321TIP3    H164454   6.528   3.978  14.785 -0.7198  0.0430 -0.4432
14321TIP3    H264455   6.499   4.049  14.916 -0.4275 -0.5269 -0.0666
14322TIP3   OH264456   3.421   5.848   6.563  0.0212 -0.6408 -0.5026
14322TIP3    H164457   3.471   5.808   6.492  0.5073 -0.4542 -0.2736
14322TIP3    H264458   3.330   5.828   6.543 -0.1054  1.4848 -2.5181
14323TIP3   OH264459   2.436   2.053  14.153 -0.1318 -0.0204  0.8442
14323TIP3    H164460   2.509   2.078  14.096  1.0468 -0.3656  2.1409
14323TIP3    H264461   2.426   1.959  14.138  0.6826 -0.2601  1.7353
14324TIP3   OH264462   1.258   2.896  15.667  0.6559  0.1751 -0.1709
14324TIP3    H164463   1.196   2.927  15.601  1.2153  0.6169 -0.4977
14324TIP3    H264464   1.228   2.935  15.749  0.9183  0.9859 -0.4531
14325TIP3   OH264465   0.563   3.523  11.247 -0.1633 -0.1791  0.1983
14325TIP3    H164466   0.581   3.435  11.279 -0.8678 -0.8328 -1.0948
14325TIP3    H264467   0.527   3.570  11.322  0.3989 -0.9291  0.9509
14326TIP3   OH264468   0.540   5.965   0.996 -0.4772  0.5597 -1.0202
14326TIP3    H164469   0.475   5.976   1.065  0.9319  1.7393  0.1984
14326TIP3    H264470   0.596   6.043   1.003  2.3979 -1.4039 -0.5062
14327TIP3   OH264471   4.159   0.917  15.765 -0.5925  0.6984  0.0519
14327TIP3    H164472   4.179   0.896  15.856 -0.4932  0.5828  0.0025
14327TIP3    H264473   4.236   0.889  15.716 -0.8688  0.2539 -0.1357
14328TIP3   OH264474   1.547   2.207  11.999  0.0824 -0.6312 -0.1918
14328TIP3    H164475   1.610   2.158  11.946 -0.4116 -1.5037  0.0133
14328TIP3    H264476   1.565   2.179  12.089 -0.0252 -0.2223 -0.0412
14329TIP3   OH264477   6.233   0.255   3.090  0.1756  0.2412  0.0152
14329TIP3    H164478   6.251   0.334   3.039  1.1431  1.3166  1.8936
14329TIP3    H264479   6.181   0.285   3.165  0.2250 -0.9557  0.5692
14330TIP3   OH264480   3.272   5.113  13.265 -0.4865  0.7882  0.0756
14330TIP3    H164481   3.183   5.148  13.255 -0.6854  0.2477 -0.0390
14330TIP3    H264482   3.261   5.018  13.265 -0.3391  0.6338  3.5663
14331TIP3   OH264483   1.487   3.330   5.593  0.3823 -0.0092 -0.3232
14331TIP3    H164484   1.555   3.278   5.551  0.9169  0.5385 -0.1519
14331TIP3    H264485   1.532   3.376   5.664 -0.5374 -1.0668  1.0035
14332TIP3   OH264486   1.269   0.225  13.347 -0.2247 -0.0614  0.4673
14332TIP3    H164487   1.306   0.296  13.399  0.1778  0.0056  0.0949
14332TIP3    H264488   1.178   0.217  13.378 -0.2135  0.4777  0.6492
14333TIP3   OH264489   3.905   0.547   5.734 -0.2547  0.1148  0.1705
14333TIP3    H164490   3.936   0.457   5.722  1.1109  0.4354  0.9892
14333TIP3    H264491   3.874   0.574   5.647 -0.1548 -0.9517 -0.2102
14334TIP3   OH264492   1.343   5.801   4.795 -0.1136  0.1282 -0.4695
14334TIP3    H164493   1.248   5.808   4.796 -0.2915 -1.8680  1.0254
14334TIP3    H264494   1.365   5.753   4.875  2.2836  1.8028 -0.0041
14335TIP3   OH264495   4.263   3.166   3.293  0.1310  0.2403  0.1318
14335TIP3    H164496   4.193   3.158   3.357  1.2734  1.4865  1.6160
14335TIP3    H264497   4.273   3.260   3.279 -0.6829 -0.0044 -2.6302
14336TIP3   OH264498   4.706   4.780   4.638  0.1716  0.3432 -0.1244
14336TIP3    H164499   4.729   4.847   4.703  0.3608 -0.6395  0.8511
14336TIP3    H264500   4.780   4.720   4.639 -0.2079 -0.1380 -0.6515
14337TIP3   OH264501   5.361   3.842  15.949 -0.1577  0.4166 -0.2085
14337TIP3    H164502   5.408   3.921  15.974  2.5480 -0.8717 -0.8107
14337TIP3    H264503   5.391   3.823  15.860 -0.6711 -1.2897 -0.0673
14338TIP3   OH264504   0.113   3.441  11.230 -0.3581 -0.5494  0.7475
14338TIP3    H164505   0.056   3.402  11.164  0.1977 -3.0660  1.6441
14338TIP3    H264506   0.176   3.492  11.179 -1.7024  0.0500 -0.4199
14339TIP3   OH264507   3.859   0.903  11.832  0.0305  0.6117  0.2720
14339TIP3    H164508   3.828   0.841  11.898 -1.0269  1.2348  0.3857
14339TIP3    H264509   3.845   0.989  11.872  0.9431  0.9394 -0.1101
14340TIP3   OH264510   1.944   5.792   3.526  0.7429  0.6341  0.0796
14340TIP3    H164511   1.988   5.877   3.521  1.3093  0.5271  2.2458
14340TIP3    H264512   2.015   5.728   3.531  0.3139  0.0989 -0.4363
14341TIP3   OH264513   6.061   4.036  16.942 -0.1298 -0.2479 -0.1825
14341TIP3    H164514   6.086   3.974  16.873 -0.8023  1.3501 -1.9608
14341TIP3    H264515   5.975   4.069  16.914  0.2866  1.6060  0.5873
14342TIP3   OH264516   1.817   1.286   2.158  0.8359 -0.1167  0.5269
14342TIP3    H164517   1.783   1.371   2.186  0.8943 -0.2518  1.0188
14342TIP3    H264518   1.748   1.248   2.104  1.3998  0.8842 -0.9663
14343TIP3   OH264519   5.269   5.223  11.342 -0.4981  0.0114  0.4661
14343TIP3    H164520   5.252   5.317  11.354  0.6688  0.1865  0.8656
14343TIP3    H264521   5.321   5.219  11.262 -0.4324 -0.2823  0.5264
14344TIP3   OH264522   5.398   6.283   2.259 -0.0978 -0.7069 -0.5955
14344TIP3    H164523   5.389   6.364   2.209  2.1840  0.6158  0.9354
14344TIP3    H264524   5.351   6.301   2.340 -2.1743 -2.1341 -1.4079
14345TIP3   OH264525   5.178   3.173  15.672 -0.5968  0.4105 -0.2131
14345TIP3    H164526   5.257   3.151  15.722 -0.1770 -0.0680 -1.0675
14345TIP3    H264527   5.193   3.263  15.644 -0.8583  0.7002  0.5578
14346TIP3   OH264528   4.925   6.121  16.272 -0.5397  0.2947 -0.3668
14346TIP3    H164529   4.934   6.044  16.216  0.3470 -0.1785  0.4059
14346TIP3    H264530   4.915   6.194  16.212 -2.4988 -0.5289 -1.1180
14347TIP3   OH264531   3.574   5.647   0.290 -0.1924 -0.2247  0.2022
14347TIP3    H164532   3.664   5.636   0.260  0.2977  1.2551  1.0256
14347TIP3    H264533   3.582   5.698   0.371 -1.7300 -0.6752  0.6710
14348TIP3   OH264534   2.926   0.086  11.510  0.2933  0.6270  0.0465
14348TIP3    H164535   2.995   0.114  11.450  0.4986 -0.8181 -0.4277
14348TIP3    H264536   2.894   0.167  11.549 -0.4557  1.7504 -2.6676
14349TIP3   OH264537   3.227   1.749   2.166 -0.0092  0.3366  0.5080
14349TIP3    H164538   3.284   1.752   2.243  0.2675 -1.5812  0.4244
14349TIP3    H264539   3.163   1.819   2.181 -0.0208 -0.0448  2.5175
14350TIP3   OH264540   0.829   1.567  11.280  0.7181 -0.0252  0.2017
14350TIP3    H164541   0.902   1.522  11.324 -0.2799 -1.2703  0.6421
14350TIP3    H264542   0.865   1.593  11.195  0.8967 -3.3196 -0.8870
14351TIP3   OH264543   1.223   1.306   1.120 -0.4128 -0.3026 -0.0140
14351TIP3    H164544   1.191   1.273   1.204  1.0912 -0.6212  0.4686
14351TIP3    H264545   1.195   1.398   1.118 -2.3949 -0.8775 -0.2049
14352TIP3   OH264546   2.082   6.236   6.003  0.3771  0.8439  0.9136
14352TIP3    H164547   2.084   6.140   6.006  0.1486  0.7593 -0.6166
14352TIP3    H264548   2.052   6.262   6.089 -0.7589 -0.5225  0.9631
14353TIP3   OH264549   3.751   2.204  15.646 -0.4751  0.3522 -0.3890
14353TIP3    H164550   3.673   2.259  15.636 -1.5040 -0.9226  0.4007
14353TIP3    H264551   3.735   2.153  15.726 -0.2762 -2.1928 -1.8655
14354TIP3   OH264552   5.552   5.561   2.078  0.0282  0.7597  0.3459
14354TIP3    H164553   5.512   5.644   2.103 -1.1182  0.5912 -0.8265
14354TIP3    H264554   5.540   5.555   1.984  1.8375  0.1389  0.1189
14355TIP3   OH264555   1.070   1.414   4.465 -0.3711  0.6587  0.8494
14355TIP3    H164556   1.067   1.488   4.405 -0.4158  1.2446  1.5472
14355TIP3    H264557   1.089   1.454   4.550  0.4157 -0.2159  1.0997
14356TIP3   OH264558   3.581   6.802   5.196 -0.1725  0.5628 -0.2740
14356TIP3    H164559   3.492   6.837   5.198  0.2622  1.9755 -2.3296
14356TIP3    H264560   3.637   6.877   5.218  0.5630 -0.2072  0.5959
14357TIP3   OH264561   2.890   1.211  13.367  0.1901 -0.3724  0.0179
14357TIP3    H164562   2.956   1.217  13.436  0.1117 -1.5595  0.2237
14357TIP3    H264563   2.824   1.151  13.402 -1.7178  1.8132  0.3644
14358TIP3   OH264564   6.633   2.348  15.799  0.0043 -0.5167 -0.0740
14358TIP3    H164565   6.563   2.282  15.796  0.8026 -1.4732  1.1897
14358TIP3    H264566   6.682   2.328  15.879  1.8376  0.0016 -1.0011
14359TIP3   OH264567   0.467   6.361   4.188 -0.1095 -0.1617  0.5092
14359TIP3    H164568   0.384   6.371   4.234  0.1762  0.0679  0.9899
14359TIP3    H264569   0.475   6.267   4.172 -0.3536 -0.2097  0.6660
14360TIP3   OH264570   6.660   0.737  15.863  0.1681  0.3834 -0.1826
14360TIP3    H164571   6.722   0.723  15.792 -0.4534  0.7893 -0.8199
14360TIP3    H264572   6.610   0.655  15.868  0.7263  0.0593  0.3256
14361TIP3   OH264573   3.075   3.423  15.001 -0.0282 -0.7488  0.1101
14361TIP3    H164574   3.053   3.516  14.997 -0.4744 -0.7196  2.1077
14361TIP3    H264575   3.165   3.417  14.969 -0.5129  0.1111 -1.5377
14362TIP3   OH264576   4.953   5.888  12.888  0.2658  0.3758  0.3195
14362TIP3    H164577   4.906   5.898  12.970  0.3912 -0.6997  0.5316
14362TIP3    H264578   4.904   5.941  12.825 -0.1566  0.7469  0.9547
14363TIP3   OH264579   1.603   5.655  11.537  0.0327 -0.0732 -0.2973
14363TIP3    H164580   1.600   5.700  11.622 -1.4316  0.6680 -0.7082
14363TIP3    H264581   1.663   5.707  11.485 -1.5157  1.4067 -0.7110
14364TIP3   OH264582   1.949   6.336   5.761  0.1720 -0.1263  0.3620
14364TIP3    H164583   1.986   6.416   5.725 -0.4645 -1.1020 -2.7811
14364TIP3    H264584   2.020   6.298   5.813  0.6721  2.1065  1.4253
14365TIP3   OH264585   1.773   2.783   0.549 -0.0306  0.8723 -0.2558
14365TIP3    H164586   1.718   2.718   0.505 -0.5367  1.6505 -0.8035
14365TIP3    H264587   1.758   2.767   0.642  1.2117 -0.9344 -0.3100
14366TIP3   OH264588   3.253   1.970   1.854 -0.0406  0.0116 -0.1655
14366TIP3    H164589   3.184   2.027   1.887  0.3412 -0.7533  2.1300
14366TIP3    H264590   3.272   2.004   1.766 -4.3986 -0.7305 -1.6297
14367TIP3   OH264591   3.156   5.445  13.747  0.2819  0.0704  0.2932
14367TIP3    H164592   3.235   5.456  13.695  2.4097 -0.6961  3.1075
14367TIP3    H264593   3.167   5.505  13.821 -0.8362 -1.3821  1.7209
14368TIP3   OH264594   5.362   3.574  16.684 -0.4726  0.2850 -0.3649
14368TIP3    H164595   5.452   3.592  16.657 -0.9887  2.4989 -0.8255
14368TIP3    H264596   5.361   3.591  16.778 -0.0290 -1.5824  0.0139
14369TIP3   OH264597   0.905   5.221  14.427  0.3652 -0.2580 -0.2453
14369TIP3    H164598   0.909   5.176  14.511  0.0920 -0.5007 -0.3623
14369TIP3    H264599   0.933   5.311  14.446  0.2436 -0.2982  0.1134
14370TIP3   OH264600   2.611   2.996   3.613  0.3008 -0.4899 -0.0302
14370TIP3    H164601   2.626   2.945   3.533  0.9499 -1.7005  0.8308
14370TIP3    H264602   2.683   2.972   3.670 -0.2112  0.2899  0.9649
14371TIP3   OH264603   6.436   3.274  13.508  0.3818 -0.3595 -0.4302
14371TIP3    H164604   6.472   3.273  13.419  0.6403  1.8884 -0.4306
14371TIP3    H264605   6.507   3.243  13.563  1.3512  1.1743 -0.7410
14372TIP3   OH264606   0.176   0.906  12.399 -0.8619 -0.3219 -0.0166
14372TIP3    H164607   0.238   0.955  12.345  1.1991 -0.0852  2.3700
14372TIP3    H264608   0.125   0.972  12.444  0.1396 -0.3653  1.2372
14373TIP3   OH264609   5.490   1.395  11.003 -0.7814  0.1857  0.2235
14373TIP3    H164610   5.438   1.447  10.942 -0.5438 -0.0057 -0.1475
14373TIP3    H264611   5.429   1.370  11.072 -0.9095  0.8998  0.3681
14374TIP3   OH264612   1.743   0.491  13.185 -0.4304  0.2994  0.2508
14374TIP3    H164613   1.818   0.546  13.208  0.6133 -0.6808 -0.6625
14374TIP3    H264614   1.679   0.552  13.149  0.0562  1.1192  0.7363
14375TIP3   OH264615   5.378   4.965  16.174 -0.3107 -0.1155  0.2640
14375TIP3    H164616   5.387   4.995  16.265 -1.7409  0.0048  0.3790
14375TIP3    H264617   5.284   4.966  16.157 -0.0377  0.5635 -1.4612
14376TIP3   OH264618   0.560   6.448  16.234  0.4451 -0.6854  0.1896
14376TIP3    H164619   0.492   6.390  16.268  0.6095 -1.2242 -0.3832
14376TIP3    H264620   0.621   6.390  16.189  0.5519 -0.0605 -0.4969
14377TIP3   OH264621   6.091   1.672  15.976  0.1357 -0.2134  0.1353
14377TIP3    H164622   6.039   1.609  15.926  1.0790 -0.6889 -0.2666
14377TIP3    H264623   6.047   1.677  16.061 -0.3117 -0.9362 -0.0484
14378TIP3   OH264624   3.956   1.978  14.762 -0.3318  0.4792 -0.8571
14378TIP3    H164625   3.880   1.944  14.715 -0.6043 -0.7339  0.3845
14378TIP3    H264626   3.951   2.073  14.751 -1.9056  0.4070 -1.0049
14379TIP3   OH264627   4.445   2.713   1.885 -0.3800  0.0827 -0.6749
14379TIP3    H164628   4.455   2.626   1.924  0.8902 -0.3151 -1.8126
14379TIP3    H264629   4.473   2.702   1.794  0.8863  1.9245 -0.5520
14380TIP3   OH264630   0.954   1.167  12.673  0.1878 -0.5641 -0.1195
14380TIP3    H164631   0.890   1.238  12.678 -1.2276 -1.4115 -3.3694
14380TIP3    H264632   0.965   1.138  12.764 -0.9466  2.2214  1.0206
14381TIP3   OH264633   4.676   0.254  11.982 -0.1660 -0.4711  0.5623
14381TIP3    H164634   4.737   0.323  11.957 -0.3294 -0.8884 -1.1259
14381TIP3    H264635   4.589   0.294  11.974 -0.2577 -0.8215 -0.3564
14382TIP3   OH264636   4.526   4.664  13.085  0.2954 -0.5527 -1.0833
14382TIP3    H164637   4.601   4.705  13.127 -1.4641  0.8650  0.8145
14382TIP3    H264638   4.527   4.574  13.117  2.7905 -1.5086 -3.4124
14383TIP3   OH264639   0.658   6.627   2.026 -0.3028  0.4990 -0.0620
14383TIP3    H164640   0.633   6.576   2.103 -1.3902  0.7417 -0.2377
14383TIP3    H264641   0.742   6.589   1.998 -0.2829 -0.0966  0.7724
14384TIP3   OH264642   4.719   1.245   4.771 -0.0565 -0.1960  0.1499
14384TIP3    H164643   4.809   1.234   4.801  1.1101  0.9004 -2.5750
14384TIP3    H264644   4.686   1.319   4.820  0.2595 -1.0046  1.6435
14385TIP3   OH264645   1.783   1.541   5.787 -0.1997  0.1115  0.4242
14385TIP3    H164646   1.703   1.563   5.740  0.1064 -0.4223 -0.3876
14385TIP3    H264647   1.776   1.447   5.804  1.2729 -0.5037 -1.8194
14386TIP3   OH264648   6.017   2.550  10.666 -0.2491  1.5692 -0.0308
14386TIP3    H164649   6.081   2.480  10.678  0.1719  2.0911  0.8467
14386TIP3    H264650   6.064   2.630  10.690 -0.9341  2.0736 -0.3353
14387TIP3   OH264651   0.556   1.760   0.171 -0.1700  0.3249  0.0160
14387TIP3    H164652   0.547   1.667   0.192 -1.4500  0.2913 -0.5731
14387TIP3    H264653   0.546   1.805   0.255 -0.3498 -0.0436  0.1933
14388TIP3   OH264654   5.806   1.330   4.898  0.2823 -0.3490  0.3533
14388TIP3    H164655   5.840   1.269   4.964 -0.6127 -3.2698 -1.6773
14388TIP3    H264656   5.712   1.311   4.895  0.0011  1.0640 -0.4937
14389TIP3   OH264657   0.278   6.714  16.945 -0.2766 -0.0649  0.5939
14389TIP3    H164658   0.368   6.711  16.911  0.0311 -1.0745  1.4627
14389TIP3    H264659   0.267   6.804  16.976 -0.0451  0.4440 -0.7602
14390TIP3   OH264660   2.417   2.148   4.768  0.0114 -0.0078  0.2023
14390TIP3    H164661   2.485   2.216   4.771  0.9051 -0.8029 -0.8836
14390TIP3    H264662   2.340   2.193   4.732  0.9414  0.2067 -1.6641
14391TIP3   OH264663   0.237   5.557  13.138  0.2685 -0.1873  0.2226
14391TIP3    H164664   0.313   5.499  13.124 -0.0520 -0.9770  1.6121
14391TIP3    H264665   0.161   5.500  13.125 -0.0533 -0.0161  1.2916
14392TIP3   OH264666   4.428   4.510   5.571  0.3959  0.1929  0.0691
14392TIP3    H164667   4.400   4.445   5.635  0.6114 -1.1068 -1.0962
14392TIP3    H264668   4.522   4.494   5.560  0.7213  1.5408  0.6589
14393TIP3   OH264669   2.229   2.783  13.386 -0.5303  0.3254 -0.0657
14393TIP3    H164670   2.141   2.785  13.348 -1.0652  0.3844  1.1456
14393TIP3    H264671   2.268   2.703  13.349 -1.9855 -1.0788  1.2483
14394TIP3   OH264672   5.534   3.198  11.375  0.5973  0.3633 -0.0253
14394TIP3    H164673   5.452   3.158  11.403  0.2871  1.5293  0.8204
14394TIP3    H264674   5.556   3.153  11.294 -0.2853 -0.7462  0.3314
14395TIP3   OH264675   0.127   3.338  15.277  0.1745 -0.2127  0.3721
14395TIP3    H164676   0.147   3.292  15.359 -0.8950  0.5607  1.0969
14395TIP3    H264677   0.077   3.414  15.304 -1.5093 -0.7160 -1.1194
14396TIP3   OH264678   6.542   5.589  16.369  0.7595 -0.0590  0.2505
14396TIP3    H164679   6.484   5.552  16.436 -0.3376 -0.3205 -0.8043
14396TIP3    H264680   6.482   5.617  16.299  1.9403 -0.7268 -1.0626
14397TIP3   OH264681   0.069   3.022   5.504  0.1332  0.0437  0.2727
14397TIP3    H164682  -0.021   3.016   5.473 -0.4558  1.7421  1.5051
14397TIP3    H264683   0.066   3.084   5.577  2.5126  1.2683 -0.5432
14398TIP3   OH264684   0.543   5.434  13.185 -1.0032 -0.3376  0.1488
14398TIP3    H164685   0.633   5.449  13.156 -1.1833  0.1918 -0.1503
14398TIP3    H264686   0.519   5.514  13.233 -2.1186  0.5947 -1.8234
14399TIP3   OH264687   4.163   0.925  16.057 -0.6272 -0.6096  0.2006
14399TIP3    H164688   4.236   0.907  16.117 -0.0061 -0.1649 -0.3964
14399TIP3    H264689   4.154   1.021  16.059  1.0424 -0.2889 -2.2119
14400TIP3   OH264690   2.390   3.996   1.153 -0.6638  0.0041 -0.7400
14400TIP3    H164691   2.463   4.033   1.102  0.8783  0.4436  1.6036
14400TIP3    H264692   2.315   4.052   1.132  0.7548  2.3435  0.0075
14401TIP3   OH264693   0.917   5.867  11.087 -0.4718 -0.1752  0.3205
14401TIP3    H164694   0.861   5.793  11.064  1.2858 -1.1377 -1.1738
14401TIP3    H264695   0.987   5.865  11.021  0.7184  1.6095  1.4465
14402TIP3   OH264696   5.688   1.416   3.185  0.3887  0.2682 -0.1494
14402TIP3    H164697   5.775   1.426   3.146  1.3695 -2.8748  0.8917
14402TIP3    H264698   5.657   1.331   3.154 -2.7113  1.5684 -1.0305
14403TIP3   OH264699   0.844   5.007  11.993 -0.0967 -0.3016  0.4012
14403TIP3    H164700   0.918   4.956  11.958  1.3853  1.4907  0.7519
14403TIP3    H264701   0.870   5.098  11.979 -1.7361  0.3938  1.6346
14404TIP3   OH264702   0.661   1.793  15.488 -0.5126  0.4471 -0.1812
14404TIP3    H164703   0.692   1.811  15.577  0.2357  1.4554 -0.6318
14404TIP3    H264704   0.567   1.778  15.498 -0.3519  0.0601  0.8419
14405TIP3   OH264705   0.614   3.541   4.929  0.1884 -0.1138 -0.2337
14405TIP3    H164706   0.653   3.523   5.014  1.0057 -1.0659 -0.7956
14405TIP3    H264707   0.686   3.575   4.875 -0.1772 -0.0941 -0.7202
14406TIP3   OH264708   4.123   0.768   1.979  0.2909 -0.2861  0.2188
14406TIP3    H164709   4.056   0.757   2.048  0.5500 -2.2033  0.2191
14406TIP3    H264710   4.075   0.805   1.905 -0.6412 -1.0400  0.4293
14407TIP3   OH264711   2.894   1.194  13.723  0.1409 -0.2888  0.2878
14407TIP3    H164712   2.822   1.175  13.662  1.2572  1.0624 -1.5545
14407TIP3    H264713   2.851   1.204  13.808 -1.4831 -2.2203 -0.2283
14408TIP3   OH264714   5.807   6.805   4.585  0.4214 -0.0256 -0.3938
14408TIP3    H164715   5.724   6.774   4.548 -0.5815  1.1733  0.7773
14408TIP3    H264716   5.798   6.900   4.587  1.5529  0.0773  0.3746
14409TIP3   OH264717   3.582   3.438  13.791  0.3636  0.0695  0.3239
14409TIP3    H164718   3.659   3.415  13.843  0.4142  0.0829  0.2555
14409TIP3    H264719   3.510   3.390  13.831  0.7401 -1.4864 -0.7948
14410TIP3   OH264720   3.250   0.452   5.328  0.4175 -0.3201  0.0644
14410TIP3    H164721   3.295   0.526   5.287  0.7407  0.0409  1.0516
14410TIP3    H264722   3.281   0.452   5.419  2.5314 -3.2456 -0.4906
14411TIP3   OH264723   2.902   4.690  13.494  0.2482 -0.1346 -0.1610
14411TIP3    H164724   2.874   4.734  13.414 -0.6524 -1.9418 -0.8770
14411TIP3    H264725   2.822   4.655  13.532  0.7966 -0.1678  1.0037
14412TIP3   OH264726   1.824   2.586  15.885  0.3172 -0.5108  0.3326
14412TIP3    H164727   1.836   2.492  15.901  0.3786 -0.5008  0.3451
14412TIP3    H264728   1.913   2.621  15.880  0.2910 -0.4003  0.6398
14413TIP3   OH264729   1.808   3.829  15.714  0.1811 -0.1658  0.4553
14413TIP3    H164730   1.853   3.811  15.632  0.5368  2.1877  0.0619
14413TIP3    H264731   1.877   3.825  15.780 -0.2523 -2.9118  0.8393
14414TIP3   OH264732   4.900   1.898   2.229  0.3626 -0.8186  0.6107
14414TIP3    H164733   4.925   1.954   2.303 -0.4937  1.1677 -0.5204
14414TIP3    H264734   4.943   1.939   2.153 -0.7136 -1.3897 -0.3312
14415TIP3   OH264735   5.842   3.250   5.187 -0.5856 -0.3252  0.3323
14415TIP3    H164736   5.929   3.276   5.158 -0.1069  2.8486  3.9172
14415TIP3    H264737   5.854   3.217   5.276 -3.0235  0.0768  0.8882
14416TIP3   OH264738   3.599   2.600  13.404 -0.0434 -0.6734 -0.5870
14416TIP3    H164739   3.588   2.512  13.440  0.7841 -1.0478 -1.2048
14416TIP3    H264740   3.694   2.610  13.395 -0.1893 -0.2963 -1.9207
14417TIP3   OH264741   3.691   5.018   5.942 -0.5712  0.3924 -0.7628
14417TIP3    H164742   3.754   5.088   5.960 -1.3816  1.0210 -0.3143
14417TIP3    H264743   3.666   4.985   6.028  0.5938 -1.1927 -0.9995
14418TIP3   OH264744   4.256   2.450  10.733 -0.3834  0.0679  0.4312
14418TIP3    H164745   4.176   2.481  10.775 -0.2342  1.2425 -0.1050
14418TIP3    H264746   4.239   2.459  10.639 -0.5419 -2.0758  0.1929
14419TIP3   OH264747   5.458   3.567  13.816 -0.4854  0.3995  0.2172
14419TIP3    H164748   5.520   3.633  13.847  0.1506  0.5376 -1.2596
14419TIP3    H264749   5.488   3.486  13.857 -0.5350  0.8149  1.0833
14420TIP3   OH264750   5.932   5.675  11.567 -0.1480  0.3928 -0.6661
14420TIP3    H164751   5.934   5.649  11.659 -0.1617  2.0071 -0.1650
14420TIP3    H264752   5.911   5.595  11.519 -0.7087 -0.3646  0.7876
14421TIP3   OH264753   6.483   6.665   3.375  0.3225  0.7113  0.3928
14421TIP3    H164754   6.412   6.609   3.344  0.4152  1.3091 -1.0043
14421TIP3    H264755   6.527   6.614   3.443  0.4687 -0.9581 -0.8972
14422TIP3   OH264756   1.807   5.010  12.967  0.1333 -0.0679  0.5468
14422TIP3    H164757   1.749   5.053  13.029  0.3571  0.9558  0.0557
14422TIP3    H264758   1.889   4.999  13.015  0.9523  2.4745 -0.1142
14423TIP3   OH264759   0.337   2.485  13.231 -0.1442  0.2042  0.4675
14423TIP3    H164760   0.291   2.402  13.221 -0.2198  0.2031  0.8230
14423TIP3    H264761   0.405   2.482  13.164 -1.0401  0.4760 -0.4788
14424TIP3   OH264762   6.837   5.130  14.342  0.2408 -0.2147  0.1799
14424TIP3    H164763   6.789   5.048  14.356 -0.3790  0.1397  0.1530
14424TIP3    H264764   6.846   5.168  14.430 -0.7080  0.3690  0.0368
14425TIP3   OH264765   0.554   5.454  11.805 -0.2557 -0.4127 -0.0013
14425TIP3    H164766   0.581   5.541  11.833 -1.2965 -0.0422 -0.0942
14425TIP3    H264767   0.505   5.419  11.879 -0.1476 -0.7720 -0.0992
14426TIP3   OH264768   3.343   3.664  14.503 -0.2022 -0.1698  0.0423
14426TIP3    H164769   3.329   3.586  14.556  0.0675  0.1120  0.5294
14426TIP3    H264770   3.303   3.643  14.418 -0.9604 -0.4761  0.4705
14427TIP3   OH264771   4.087   1.211  15.965 -0.1181 -0.8459 -0.3602
14427TIP3    H164772   4.061   1.192  16.055  2.9644  0.7060  1.0177
14427TIP3    H264773   4.177   1.243  15.973  0.1189 -0.2493 -3.9815
14428TIP3   OH264774   1.313   3.167  15.505  0.0948 -0.6125 -0.3770
14428TIP3    H164775   1.235   3.113  15.518 -0.4584 -0.1945 -1.7281
14428TIP3    H264776   1.312   3.228  15.578 -0.8190 -0.6667 -0.3308
14429TIP3   OH264777   1.397   2.924  14.524 -0.4635  0.0199 -0.2343
14429TIP3    H164778   1.475   2.895  14.572 -1.5331 -0.4645  1.3129
14429TIP3    H264779   1.430   2.985  14.459  1.0216  1.3975  1.6880
14430TIP3   OH264780   1.408   3.507  15.829 -0.5501  0.1005 -0.2365
14430TIP3    H164781   1.404   3.543  15.918  1.5932 -0.8642  0.2936
14430TIP3    H264782   1.448   3.576  15.777  0.7120 -0.3203  0.1429
14431TIP3   OH264783   6.168   0.919   4.319 -0.2236 -0.3563  0.0255
14431TIP3    H164784   6.246   0.922   4.376  0.2216 -0.6260 -0.5591
14431TIP3    H264785   6.159   0.826   4.297  1.7822  0.0878 -3.2493
14432TIP3   OH264786   4.322   6.191  16.703  0.2065  0.4381  0.4203
14432TIP3    H164787   4.411   6.224  16.714  0.3234 -0.0264  0.9395
14432TIP3    H264788   4.281   6.202  16.789 -1.0129  2.7928 -0.3622
14433TIP3   OH264789   4.150   4.788  12.390  0.0605 -0.2684  0.2291
14433TIP3    H164790   4.233   4.752  12.358  0.7342  0.8359  0.6685
14433TIP3    H264791   4.140   4.870  12.341 -1.0554 -0.6665 -0.2160
14434TIP3   OH264792   4.109   1.653  16.900  0.0009  0.2868 -0.3102
14434TIP3    H164793   4.106   1.745  16.924  0.8186  0.3106 -0.2430
14434TIP3    H264794   4.119   1.607  16.984  0.7374  0.2235 -0.4226
14435TIP3   OH264795   5.251   4.564   2.427 -0.0165  0.4611 -0.2766
14435TIP3    H164796   5.332   4.537   2.471 -0.3336 -0.2369 -0.1030
14435TIP3    H264797   5.184   4.505   2.462 -0.3512  0.1341 -1.4201
14436TIP3   OH264798   4.780   2.393   4.993  0.7046  0.1878  0.2190
14436TIP3    H164799   4.784   2.440   4.910  2.1017  0.3163  0.3323
14436TIP3    H264800   4.851   2.430   5.045  2.0188 -2.1485  0.2223
14437TIP3   OH264801   6.265   3.303   1.172 -1.1634  0.0286  0.2899
14437TIP3    H164802   6.216   3.252   1.108  1.7495  0.0177 -2.1252
14437TIP3    H264803   6.265   3.392   1.137  2.1241 -0.3504 -0.9578
14438TIP3   OH264804   5.385   4.614   4.528  0.0741 -0.5404  0.0710
14438TIP3    H164805   5.437   4.534   4.529  1.6279  0.3954  2.1454
14438TIP3    H264806   5.331   4.609   4.607  0.6822  0.7016  0.6061
14439TIP3   OH264807   6.033   6.371  15.538  0.2867 -1.0736 -0.1062
14439TIP3    H164808   6.116   6.368  15.490  0.4184 -0.0704  0.0297
14439TIP3    H264809   6.015   6.465  15.548 -0.9070 -1.2702 -0.2063
14440TIP3   OH264810   5.781   4.113   5.648 -0.2878 -0.0444  0.5386
14440TIP3    H164811   5.718   4.101   5.719 -1.3415  1.6189 -0.0650
14440TIP3    H264812   5.854   4.056   5.672  0.0339  1.4638  3.6842
14441TIP3   OH264813   3.398   2.506  12.240 -0.6291 -0.7056  0.0920
14441TIP3    H164814   3.470   2.528  12.299 -1.3260 -0.7845  0.9896
14441TIP3    H264815   3.321   2.545  12.280 -1.6705 -3.3802  0.9588
14442TIP3   OH264816   2.813   5.233  13.331  0.2720 -1.0474 -0.1253
14442TIP3    H164817   2.729   5.188  13.328 -0.0658 -0.4112 -0.3944
14442TIP3    H264818   2.794   5.323  13.302  0.8857 -0.6578  0.6360
14443TIP3   OH264819   5.667   1.767   0.439 -0.0187 -0.1397  0.0222
14443TIP3    H164820   5.758   1.750   0.463 -0.3637 -0.6599  1.0436
14443TIP3    H264821   5.650   1.711   0.363 -0.2721 -2.2000  1.5217
14444TIP3   OH264822   2.495   0.013  11.699  0.1418  0.4219  0.0321
14444TIP3    H164823   2.508  -0.058  11.636 -1.0878  0.6149 -0.4646
14444TIP3    H264824   2.460  -0.029  11.777 -1.2064  0.5275 -0.4864
14445TIP3   OH264825   3.212   3.157   4.502  0.1207  0.5450  0.0196
14445TIP3    H164826   3.158   3.125   4.574 -1.0745 -0.9169 -1.4395
14445TIP3    H264827   3.153   3.210   4.449  1.0542  1.8325  0.2150
14446TIP3   OH264828   2.641   1.586   0.607  0.8716 -0.6223  0.2797
14446TIP3    H164829   2.719   1.577   0.552  1.3150 -2.1559  1.0879
14446TIP3    H264830   2.579   1.522   0.571  0.1750  0.2030 -0.0207
14447TIP3   OH264831   1.074   0.630   0.643  0.5372  0.2261  0.3836
14447TIP3    H164832   1.117   0.673   0.569 -0.4163  0.0805 -0.2854
14447TIP3    H264833   1.144   0.584   0.688  1.1192  0.1648 -0.5508
14448TIP3   OH264834   1.503   4.672   0.517 -0.4810  0.4722 -1.0150
14448TIP3    H164835   1.425   4.617   0.516 -1.4557  1.7633 -0.0364
14448TIP3    H264836   1.515   4.695   0.609  0.5686  0.9659 -1.2589
14449TIP3   OH264837   3.478   0.568   3.213 -0.2443  0.1722  0.6382
14449TIP3    H164838   3.461   0.498   3.151  1.3689  0.7163 -0.4757
14449TIP3    H264839   3.573   0.571   3.222  0.0048  3.7297 -1.2371
14450TIP3   OH264840   4.591   3.885  13.878 -0.4542 -0.5324 -0.2446
14450TIP3    H164841   4.586   3.792  13.855 -2.9424 -1.0210  1.7453
14450TIP3    H264842   4.618   3.885  13.970 -0.6465  0.6886 -0.1717
14451TIP3   OH264843   3.507   2.220  15.214  0.0756  0.1089 -0.5364
14451TIP3    H164844   3.503   2.168  15.134  2.3232  0.0705 -0.6776
14451TIP3    H264845   3.578   2.182  15.265  0.0613  1.4187  0.5345
14452TIP3   OH264846   0.025   1.085  11.400  0.0788 -0.0600 -0.4042
14452TIP3    H164847   0.037   0.998  11.362  0.1821  0.2801 -1.1639
14452TIP3    H264848   0.017   1.144  11.325  0.3702  0.6374  0.0967
14453TIP3   OH264849   1.751   6.238   4.169  0.2743  0.5093  0.2200
14453TIP3    H164850   1.738   6.151   4.132  2.5966  0.0889  0.2781
14453TIP3    H264851   1.728   6.228   4.262 -0.8295  0.3535 -0.0515
14454TIP3   OH264852   4.233   4.949  14.648 -0.3202  0.3222  0.1002
14454TIP3    H164853   4.227   4.938  14.553  2.0879 -1.6444  0.0947
14454TIP3    H264854   4.265   5.039  14.659  0.2143  0.2932 -1.0308
14455TIP3   OH264855   5.443   6.773  12.506 -0.1641 -0.1105  0.3301
14455TIP3    H164856   5.448   6.692  12.456 -1.8596 -0.3720  0.5039
14455TIP3    H264857   5.349   6.788  12.517 -0.0185  2.9654 -1.4577
14456TIP3   OH264858   4.538   0.423  14.336  0.0165  0.2856  0.3588
14456TIP3    H164859   4.509   0.489  14.273  0.6220  1.6593  1.4676
14456TIP3    H264860   4.513   0.339  14.296 -1.2185  1.1884 -0.8682
14457TIP3   OH264861   0.958   2.178  17.152 -0.1309 -0.0252  0.0146
14457TIP3    H164862   0.997   2.090  17.145 -1.5885 -0.6723 -0.4242
14457TIP3    H264863   0.880   2.165  17.206  0.4692  1.3249  1.2598
14458TIP3   OH264864   3.648   0.865  16.779  0.2244  0.4276 -0.5368
14458TIP3    H164865   3.555   0.870  16.800  0.7023  1.8968  1.4905
14458TIP3    H264866   3.690   0.839  16.861  1.6300 -0.3334 -1.4497
14459TIP3   OH264867   4.348   1.230   2.476  0.2145  0.2958 -0.2094
14459TIP3    H164868   4.425   1.287   2.467  0.5775 -0.2611 -0.6980
14459TIP3    H264869   4.384   1.146   2.504 -0.3867  0.4818  1.2087
14460TIP3   OH264870   5.796   6.090   4.666  0.0732  0.2850  0.1672
14460TIP3    H164871   5.819   6.183   4.676  1.7109  0.1697 -1.7353
14460TIP3    H264872   5.881   6.045   4.664 -0.7251 -1.4816  2.4547
14461TIP3   OH264873   3.834   6.379   3.598 -0.0381 -0.1688 -0.5751
14461TIP3    H164874   3.746   6.411   3.620  0.3216  1.2766 -1.1069
14461TIP3    H264875   3.882   6.458   3.573  1.8226 -0.7638  0.9570
14462TIP3   OH264876   6.076   4.057   1.289 -0.4254 -0.3446 -0.1940
14462TIP3    H164877   6.100   4.064   1.381 -0.7288  0.1885 -0.1527
14462TIP3    H264878   6.000   3.998   1.288  0.1574 -1.1130 -0.2083
14463TIP3   OH264879   3.392   3.985  13.433  0.0327 -0.1654  0.2528
14463TIP3    H164880   3.433   4.066  13.462  0.7351 -1.1559  2.2773
14463TIP3    H264881   3.298   4.001  13.442  0.1077  0.7852 -0.5063
14464TIP3   OH264882   5.520   5.138  12.070  0.0051  0.2547  0.4923
14464TIP3    H164883   5.500   5.230  12.053  0.4097  0.0414 -1.3720
14464TIP3    H264884   5.441   5.103  12.111  0.3733  1.7422  2.6028
14465TIP3   OH264885   6.704   1.209   5.831 -0.0242  0.1441  0.6652
14465TIP3    H164886   6.653   1.172   5.903 -0.4581  0.5795  0.5892
14465TIP3    H264887   6.702   1.304   5.846 -1.3162  0.3736 -0.6661
14466TIP3   OH264888   2.568   4.635   2.727  0.2334 -0.2972  0.4730
14466TIP3    H164889   2.610   4.705   2.776 -1.0196  1.7050 -1.0929
14466TIP3    H264890   2.497   4.604   2.784  0.9259 -0.4492  1.2607
14467TIP3   OH264891   2.898   2.621   3.951  0.3969 -0.6305 -0.3008
14467TIP3    H164892   2.925   2.712   3.936  1.2948 -0.9442 -0.6341
14467TIP3    H264893   2.920   2.604   4.042 -1.6512  0.1075  0.3874
14468TIP3   OH264894   0.476   6.247   4.963  0.2637  0.2960 -0.1058
14468TIP3    H164895   0.444   6.290   4.884 -4.0884 -2.6070 -0.2507
14468TIP3    H264896   0.498   6.158   4.934  1.5610  0.0497  1.4905
14469TIP3   OH264897   2.024   4.027  10.910 -0.4164 -0.1837 -0.0379
14469TIP3    H164898   2.001   3.943  10.870  0.9351  0.7841 -3.1694
14469TIP3    H264899   1.940   4.070  10.928 -1.0977 -1.4815 -0.0293
14470TIP3   OH264900   5.946   6.229  10.567 -0.1787 -0.3181 -0.1335
14470TIP3    H164901   6.014   6.162  10.556 -1.0722 -1.2398 -0.1630
14470TIP3    H264902   5.896   6.200  10.643 -0.2683  0.6002  0.1665
14471TIP3   OH264903   0.489   0.817   1.410  0.4133 -0.1038  0.0454
14471TIP3    H164904   0.417   0.847   1.354  0.1057 -1.1113 -0.1220
14471TIP3    H264905   0.449   0.752   1.467  0.6549  1.1297  1.7007
14472TIP3   OH264906   4.827   3.563  11.773  0.1518 -0.7026 -0.2406
14472TIP3    H164907   4.847   3.613  11.853  2.9888  0.4598 -1.5296
14472TIP3    H264908   4.735   3.583  11.755  0.1551  1.0928  1.3592
14473TIP3   OH264909   5.213   4.050   3.900  0.2370 -0.2651 -0.2280
14473TIP3    H164910   5.165   3.967   3.910 -0.2888  0.1016  0.3996
14473TIP3    H264911   5.242   4.050   3.809 -0.4182 -0.7872 -0.4488
14474TIP3   OH264912   4.976   0.205  12.235 -0.4474  0.4374  0.1212
14474TIP3    H164913   5.069   0.205  12.210 -0.1532  1.6668  1.0838
14474TIP3    H264914   4.935   0.142  12.176  1.5971 -2.9840  2.0184
14475TIP3   OH264915   5.089   4.071   1.160 -0.5009  0.1865 -0.1946
14475TIP3    H164916   5.133   4.156   1.157  0.9309 -0.5256 -0.2350
14475TIP3    H264917   5.074   4.049   1.069 -3.0745  1.4287 -0.1719
14476TIP3   OH264918   1.833   6.835   4.476 -0.4416 -0.1527 -0.1923
14476TIP3    H164919   1.758   6.893   4.459  0.2914  0.8956  0.0671
14476TIP3    H264920   1.905   6.895   4.495  0.9150 -1.0749 -2.1376
14477TIP3   OH264921   0.633   4.294   0.792 -0.4015 -0.0620  0.7953
14477TIP3    H164922   0.604   4.205   0.770  0.7169  0.1034 -1.7732
14477TIP3    H264923   0.728   4.293   0.775 -0.3070  1.4982  1.1188
14478TIP3   OH264924   3.341   2.243  15.849  0.3129 -0.3883  0.2081
14478TIP3    H164925   3.384   2.307  15.793  1.7689 -0.4994  1.1695
14478TIP3    H264926   3.255   2.281  15.868  0.0033 -0.0959 -1.6087
14479TIP3   OH264927   6.534   0.432  12.496  0.1585 -0.0332  0.1582
14479TIP3    H164928   6.521   0.398  12.407 -1.8385 -0.5503  0.6003
14479TIP3    H264929   6.446   0.438  12.532  0.5388  3.9990  0.7836
14480TIP3   OH264930   0.191   5.576  15.995 -0.3673  0.1324 -0.7419
14480TIP3    H164931   0.260   5.637  15.969 -0.2646  0.0796 -0.5934
14480TIP3    H264932   0.109   5.620  15.971 -0.2524 -0.6258 -2.7589
14481TIP3   OH264933   4.162   3.708  13.427  0.3920 -0.2943 -0.5341
14481TIP3    H164934   4.110   3.692  13.348  0.7293 -0.3308 -0.7484
14481TIP3    H264935   4.186   3.621  13.458  0.2550 -0.2802 -0.3860
14482TIP3   OH264936   0.481   3.384   1.882  0.7937  0.3871  0.4469
14482TIP3    H164937   0.510   3.465   1.923  1.7363 -0.5315  1.6936
14482TIP3    H264938   0.557   3.351   1.836 -0.1600  1.2120 -1.8449
14483TIP3   OH264939   5.467   6.332  16.098  0.5760 -0.3232  0.5509
14483TIP3    H164940   5.472   6.424  16.069  0.7424 -0.7177 -0.7548
14483TIP3    H264941   5.417   6.288  16.029 -1.0518 -0.8923  2.0473
14484TIP3   OH264942   4.403   1.715  11.834  0.5205  0.3336 -0.9301
14484TIP3    H164943   4.374   1.630  11.800 -1.3137  0.9708 -1.0564
14484TIP3    H264944   4.418   1.698  11.928 -1.4969  0.2294 -0.5937
14485TIP3   OH264945   2.271   3.525   3.914  0.4541  0.4365 -0.3670
14485TIP3    H164946   2.336   3.478   3.862  0.3033 -0.7072  0.4468
14485TIP3    H264947   2.323   3.574   3.977  0.5519 -0.2419  0.0899
14486TIP3   OH264948   5.914   2.384  11.412 -0.0689  0.0348 -0.1343
14486TIP3    H164949   5.993   2.412  11.367  0.6569 -2.8805 -0.9190
14486TIP3    H264950   5.856   2.460  11.409  1.9252  1.6020 -1.3314
14487TIP3   OH264951   6.470   2.792  12.284 -0.4583  0.0877  0.2670
14487TIP3    H164952   6.385   2.806  12.241 -0.3300  1.7205  0.4968
14487TIP3    H264953   6.535   2.812  12.216 -0.2605  2.0383  0.9891
14488TIP3   OH264954   1.900   0.560  16.561 -0.1694  0.1334  0.5953
14488TIP3    H164955   1.814   0.589  16.532  0.2168  0.9314  0.2067
14488TIP3    H264956   1.932   0.633  16.615 -0.3080 -0.7436  1.9112
14489TIP3   OH264957   1.975   2.446   0.702  0.0257  0.2481  0.3261
14489TIP3    H164958   2.017   2.526   0.669  0.3329  0.2567  0.7191
14489TIP3    H264959   2.040   2.409   0.762  1.2073 -1.9695 -2.1451
14490TIP3   OH264960   0.194   1.023   2.112  0.4897 -0.2750 -0.3953
14490TIP3    H164961   0.275   1.037   2.162  0.2968  0.6500 -0.3228
14490TIP3    H264962   0.158   0.941   2.147  0.9197 -0.2048  0.2278
14491TIP3   OH264963   4.163   6.816  12.984 -0.0928  0.3658  0.5491
14491TIP3    H164964   4.254   6.790  12.971 -0.6214 -2.2286  1.3898
14491TIP3    H264965   4.163   6.911  12.977  2.2860  0.2971 -1.6875
14492TIP3   OH264966   5.751   2.244   0.775 -0.0304 -0.2435  0.1004
14492TIP3    H164967   5.705   2.312   0.823  0.0879 -0.4410  0.4919
14492TIP3    H264968   5.683   2.202   0.722 -0.1632 -0.0438  0.1130
14493TIP3   OH264969   2.496   0.013   5.509 -0.0387  0.7613  0.1932
14493TIP3    H164970   2.448   0.008   5.591  0.8172 -0.0690  0.6546
14493TIP3    H264971   2.429   0.002   5.441 -0.3486 -1.8991  0.8487
14494TIP3   OH264972   1.464   1.867  16.063 -0.2943  0.3210  0.0048
14494TIP3    H164973   1.458   1.864  16.158 -0.6270  2.7115  0.1151
14494TIP3    H264974   1.556   1.847  16.044 -0.3885 -0.9455  0.7369
14495TIP3   OH264975   5.775   0.189   4.929  0.1829  0.2703  0.6399
14495TIP3    H164976   5.712   0.169   4.998 -1.9601  1.3097 -0.9110
14495TIP3    H264977   5.751   0.277   4.900  2.5657  0.8277  0.1711
14496TIP3   OH264978   3.741   4.515  14.287 -0.1753  0.0258 -0.4762
14496TIP3    H164979   3.785   4.597  14.311  0.0939 -0.0248 -0.7893
14496TIP3    H264980   3.690   4.537  14.209 -0.0209 -0.1300 -0.6209
14497TIP3   OH264981   3.399   3.171   0.674 -0.9351  0.5584 -0.0047
14497TIP3    H164982   3.308   3.169   0.646 -0.9948  0.8338  0.1630
14497TIP3    H264983   3.431   3.257   0.648 -0.6026  0.3158 -0.4246
14498TIP3   OH264984   2.682   5.622   6.014 -0.2857  0.2077 -0.2639
14498TIP3    H164985   2.777   5.636   6.013 -0.2625  0.0866  0.0378
14498TIP3    H264986   2.654   5.643   5.925  0.1213 -0.3959 -0.5452
14499TIP3   OH264987   5.244   5.661   1.940  0.6152 -0.3297 -0.1149
14499TIP3    H164988   5.326   5.629   1.904  1.4197 -0.4242  1.6721
14499TIP3    H264989   5.245   5.755   1.922  0.8819 -0.4058 -0.5096
14500TIP3   OH264990   5.896   5.922  13.438 -0.1816 -0.3792 -0.2941
14500TIP3    H164991   5.931   5.839  13.471  1.2944 -0.5812 -2.1618
14500TIP3    H264992   5.903   5.914  13.343 -1.2000  1.4199 -0.5646
14501TIP3   OH264993   3.141   3.793   1.094  0.1905  0.4641  0.4552
14501TIP3    H164994   3.114   3.883   1.075  0.3946  0.1518 -1.4535
14501TIP3    H264995   3.237   3.797   1.097  0.3178 -0.0024 -1.6214
14502TIP3   OH264996   2.693   1.765  11.549  0.4291  0.1183 -0.9914
14502TIP3    H164997   2.715   1.825  11.478 -0.8810 -0.8757 -2.2748
14502TIP3    H264998   2.704   1.677  11.511 -2.6360 -0.4550 -0.8133
14503TIP3   OH264999   0.746   3.196   2.426 -0.0039 -0.7641  1.0925
14503TIP3    H165000   0.683   3.221   2.359  1.9074 -1.2730 -1.0075
14503TIP3    H265001   0.742   3.266   2.491 -1.2319  0.2374 -0.0176
14504TIP3   OH265002   6.522   5.893  12.331 -0.0617 -0.0242  0.0656
14504TIP3    H165003   6.479   5.877  12.415  2.4254 -0.4459  1.3378
14504TIP3    H265004   6.566   5.811  12.310 -2.0273 -0.5203 -2.6159
14505TIP3   OH265005   4.136   1.509   1.392 -0.0348  0.1487 -0.6045
14505TIP3    H165006   4.110   1.583   1.338 -0.9937 -0.3061 -0.8016
14505TIP3    H265007   4.175   1.548   1.470  0.9863  0.8206 -1.4249
14506TIP3   OH265008   3.886   6.368   2.213 -0.9873 -0.0597  0.2027
14506TIP3    H165009   3.888   6.275   2.236 -1.7841 -0.1771 -0.1654
14506TIP3    H265010   3.978   6.393   2.204 -0.6086 -0.1710  2.8261
14507TIP3   OH265011   2.973   6.184  16.907  0.1645 -0.2862  0.8019
14507TIP3    H165012   3.019   6.185  16.991  0.4975  1.1150  0.6360
14507TIP3    H265013   3.032   6.138  16.848  0.1469 -0.8540  1.2216
14508TIP3   OH265014   4.895   6.374  13.619 -0.3460 -0.4528  0.4563
14508TIP3    H165015   4.833   6.415  13.679 -0.8087 -0.4546 -0.0158
14508TIP3    H265016   4.956   6.328  13.677 -0.3039  0.2112  0.9572
14509TIP3   OH265017   0.544   6.105  11.561 -0.0974 -0.0115 -0.2740
14509TIP3    H165018   0.476   6.117  11.495  0.7371  0.7781 -1.0146
14509TIP3    H265019   0.496   6.081  11.640 -1.3035  1.1449 -0.6187
14510TIP3   OH265020   0.104   2.876  11.332 -0.3346 -0.3436 -0.2369
14510TIP3    H165021   0.161   2.866  11.255 -1.0587 -1.5639 -0.6401
14510TIP3    H265022   0.035   2.936  11.303  0.7499  1.1942  0.2743
14511TIP3   OH265023   3.349   3.713   5.127  0.4258 -0.4603 -0.0558
14511TIP3    H165024   3.281   3.698   5.193 -1.1910  0.1283 -1.5084
14511TIP3    H265025   3.430   3.726   5.178 -0.4597 -1.5506  1.7051
14512TIP3   OH265026   5.601   0.748   2.960  0.2215  0.0507 -0.5239
14512TIP3    H165027   5.564   0.815   2.903 -1.0353 -0.7469 -0.6687
14512TIP3    H265028   5.668   0.705   2.907  1.2371  1.3272 -0.3412
14513TIP3   OH265029   2.837   0.556  12.881  0.5581 -0.5373  0.5409
14513TIP3    H165030   2.765   0.605  12.840  0.7986 -0.8477 -0.2751
14513TIP3    H265031   2.802   0.468  12.892  1.0995 -0.9369 -0.7176
14514TIP3   OH265032   6.050   6.316  13.790  0.9436 -0.3602  0.2875
14514TIP3    H165033   6.008   6.310  13.704 -2.4069  2.0373  1.5264
14514TIP3    H265034   6.030   6.232  13.832 -0.9291 -0.0705  0.0676
14515TIP3   OH265035   3.476   4.317   0.043  0.6175 -0.3567  0.4400
14515TIP3    H165036   3.387   4.288   0.061  0.3200  0.0529 -0.3018
14515TIP3    H265037   3.469   4.364  -0.041  1.9107 -2.2102 -0.7838
14516TIP3   OH265038   5.746   4.565  12.335  0.3991 -0.2945  0.7601
14516TIP3    H165039   5.713   4.556  12.425  0.7780  0.1753  0.9500
14516TIP3    H265040   5.827   4.615  12.345  0.5928 -0.4938  0.1824
14517TIP3   OH265041   6.324   5.150  13.521  0.4656  0.5327 -0.0683
14517TIP3    H165042   6.289   5.071  13.479 -0.4570  0.3997  0.9136
14517TIP3    H265043   6.414   5.156  13.489  0.3493 -0.5623 -0.6541
14518TIP3   OH265044   5.181   0.081   3.184  0.1378 -0.0250  0.1747
14518TIP3    H165045   5.110   0.072   3.248  0.9069  0.8686  1.1873
14518TIP3    H265046   5.136   0.096   3.100 -0.8799  0.4082  0.7786
14519TIP3   OH265047   2.307   5.710   6.339  0.1081 -0.0126 -0.3308
14519TIP3    H165048   2.312   5.744   6.250 -1.3919 -0.2663 -0.5451
14519TIP3    H265049   2.391   5.733   6.379  0.4978  0.7816 -1.5623
14520TIP3   OH265050   2.029   1.220  13.690  0.0417  0.0246 -0.5191
14520TIP3    H165051   1.980   1.173  13.623  1.9083 -1.7914 -0.7094
14520TIP3    H265052   2.001   1.181  13.773 -0.5770  0.6622 -0.4237
14521TIP3   OH265053   4.570   0.857   6.603 -0.2579 -0.0180 -0.3852
14521TIP3    H165054   4.495   0.890   6.653  0.7659  0.9411  0.5820
14521TIP3    H265055   4.536   0.841   6.515 -1.7910 -0.4304  0.2613
14522TIP3   OH265056   0.322   1.692   0.433  0.7059  0.1817  0.1226
14522TIP3    H165057   0.257   1.758   0.456  1.1989  0.2359  1.4683
14522TIP3    H265058   0.279   1.638   0.367 -0.2100  1.0152  0.0110
14523TIP3   OH265059   0.263   3.856   2.026 -0.0827 -0.3299  0.1735
14523TIP3    H165060   0.357   3.845   2.039 -0.0135  0.6439  0.5440
14523TIP3    H265061   0.226   3.772   2.052  0.7858 -1.2674 -1.3859
14524TIP3   OH265062   2.844   2.779   6.088  0.2292 -0.1788 -0.2696
14524TIP3    H165063   2.909   2.836   6.130 -0.6456  1.1708 -0.6700
14524TIP3    H265064   2.767   2.784   6.145 -0.9678  1.6658 -1.9187
14525TIP3   OH265065   6.354   2.525  12.063  0.2310 -0.4259 -0.6262
14525TIP3    H165066   6.344   2.515  11.969 -0.9155 -0.9636 -0.4654
14525TIP3    H265067   6.358   2.619  12.078  0.1933 -0.3352 -1.1837
14526TIP3   OH265068   3.263   1.196   5.594 -0.3115 -0.3229  0.0390
14526TIP3    H165069   3.250   1.289   5.609  1.3360  0.3022 -2.0148
14526TIP3    H265070   3.302   1.164   5.676  3.5009  1.8464 -0.6763
14527TIP3   OH265071   1.177   6.363  13.352  0.3820  0.1185 -0.3015
14527TIP3    H165072   1.215   6.445  13.382  0.4416 -0.1755  0.4670
14527TIP3    H265073   1.252   6.305  13.339  0.5434  0.8306 -3.0422
14528TIP3   OH265074   6.629   1.014   1.201  0.3635  0.5220  0.6302
14528TIP3    H165075   6.698   1.066   1.161  0.0509 -1.2015 -2.5356
14528TIP3    H265076   6.675   0.945   1.248  1.0162 -1.2991 -2.4007
14529TIP3   OH265077   0.659   4.519  16.833  0.4422 -0.0506 -0.0019
14529TIP3    H165078   0.576   4.523  16.881 -1.0007 -0.9901 -2.2535
14529TIP3    H265079   0.725   4.540  16.898 -1.4205 -0.7903  2.2629
14530TIP3   OH265080   5.703   0.411   1.931  0.1611  0.4253 -0.0124
14530TIP3    H165081   5.796   0.431   1.943  0.0483  1.3707 -0.6042
14530TIP3    H265082   5.659   0.461   1.999  0.0664  0.1044  0.1653
14531TIP3   OH265083   6.215   1.950  10.245  0.7437 -0.3354 -0.4020
14531TIP3    H165084   6.307   1.953  10.273  0.7500  0.0001 -0.4539
14531TIP3    H265085   6.218   1.911  10.157  0.5700 -3.0529  0.6882
14532TIP3   OH265086   5.902   3.974  11.135 -0.1011  0.3822 -0.1713
14532TIP3    H165087   5.933   3.906  11.195  0.3944  1.9225  1.3787
14532TIP3    H265088   5.817   4.000  11.170 -1.1733 -0.6590 -1.8208
14533TIP3   OH265089   0.729   2.770  14.439 -0.0054  0.2996 -0.3865
14533TIP3    H165090   0.638   2.744  14.438  0.0939 -0.0329 -1.3246
14533TIP3    H265091   0.778   2.688  14.441  0.2982  0.4619  1.6138
14534TIP3   OH265092   5.561   0.234   2.916  0.3106  0.3997 -0.1338
14534TIP3    H165093   5.577   0.141   2.928  0.1763 -0.0794 -3.0041
14534TIP3    H265094   5.613   0.276   2.985  2.1421 -1.6812 -0.1282
14535TIP3   OH265095   4.451   0.431  16.886 -0.4760  0.3794 -0.0521
14535TIP3    H165096   4.382   0.413  16.822  1.7782  2.3736 -3.3334
14535TIP3    H265097   4.440   0.524  16.908  0.4530  0.4118  0.3166
14536TIP3   OH265098   2.254   2.723  12.021  0.0182  0.1390  0.0167
14536TIP3    H165099   2.343   2.686  12.019 -0.2262 -0.4483 -0.2907
14536TIP3    H265100   2.265   2.810  12.059  0.6120 -0.2470  0.7626
14537TIP3   OH265101   4.150   2.278   3.611 -0.2544  0.0722  0.1181
14537TIP3    H165102   4.140   2.192   3.652  0.7458  0.3432  0.9563
14537TIP3    H265103   4.125   2.263   3.519  0.0713 -1.1623  0.2057
14538TIP3   OH265104   5.858   5.089   5.190  0.0906  0.1484  0.3409
14538TIP3    H165105   5.812   5.035   5.126 -0.0318  1.1351 -0.4336
14538TIP3    H265106   5.918   5.028   5.234 -1.8506 -1.1544  1.3272
14539TIP3   OH265107   3.257   4.953  15.172 -0.6958 -0.2519  0.1431
14539TIP3    H165108   3.299   5.025  15.221 -2.4264  0.2627  0.9295
14539TIP3    H265109   3.166   4.981  15.162 -0.6120 -0.7547 -2.6526
14540TIP3   OH265110   3.230   3.101   1.671  0.5158  0.2616  0.6321
14540TIP3    H165111   3.303   3.161   1.687  0.8172  0.1934 -0.4249
14540TIP3    H265112   3.214   3.108   1.577 -0.4926 -0.1276  0.7642
14541TIP3   OH265113   1.286   4.325  16.738 -0.1821 -0.1910  0.3859
14541TIP3    H165114   1.278   4.378  16.817  0.5113  0.9995 -0.3116
14541TIP3    H265115   1.321   4.241  16.769  1.7074  0.8182  1.1788
14542TIP3   OH265116   3.248   2.072  16.123  0.2704 -0.2134  0.6390
14542TIP3    H165117   3.263   2.128  16.047  1.0437 -0.4755  0.5888
14542TIP3    H265118   3.334   2.038  16.145 -0.1588 -1.2381  0.7841
14543TIP3   OH265119   3.645   2.465  15.468 -0.6140 -0.0646  0.1933
14543TIP3    H165120   3.592   2.387  15.453 -0.7812 -0.0553  0.6943
14543TIP3    H265121   3.713   2.462  15.402 -2.3455  0.9252 -1.7525
14544TIP3   OH265122   1.932   0.517  14.197 -0.2678  0.2778 -0.1195
14544TIP3    H165123   2.005   0.542  14.253 -0.6445 -0.1601  0.5863
14544TIP3    H265124   1.857   0.566  14.232  0.0266  2.1801 -1.9932
14545TIP3   OH265125   0.323   4.554   1.936 -0.2328  0.0326 -0.0140
14545TIP3    H165126   0.247   4.541   1.993  0.2947 -0.9782  0.4817
14545TIP3    H265127   0.295   4.523   1.850 -1.2999  2.2929 -0.5627
14546TIP3   OH265128   6.041   6.104  11.549  0.2094 -0.0723 -0.5739
14546TIP3    H165129   6.113   6.166  11.562 -0.6391  0.6179  1.1411
14546TIP3    H265130   5.963   6.153  11.573 -0.5055 -1.7435  0.6473
14547TIP3   OH265131   4.152   5.237   0.999 -0.7615  0.1955 -0.1078
14547TIP3    H165132   4.161   5.185   1.079 -0.1436 -2.0291 -1.5218
14547TIP3    H265133   4.062   5.270   1.003 -0.8365 -0.1005  1.3595
14548TIP3   OH265134   6.022   6.440  11.440  0.1670  0.4002  0.9464
14548TIP3    H165135   5.945   6.397  11.403  0.1051  0.4941  0.9660
14548TIP3    H265136   6.077   6.369  11.472  0.3819  0.2962  0.3571
14549TIP3   OH265137   4.001   3.185   0.777  0.1444 -0.1391 -0.2532
14549TIP3    H165138   4.058   3.229   0.714  0.4059  1.3972  0.9875
14549TIP3    H265139   4.055   3.116   0.814  0.3580 -0.3179 -0.8758
14550TIP3   OH265140   4.099   2.845   3.933  0.0717  0.1159  0.2819
14550TIP3    H165141   4.071   2.822   4.022 -0.1260  0.3941  0.2907
14550TIP3    H265142   4.193   2.829   3.934 -0.0078 -0.3805  0.3867
14551TIP3   OH265143   6.622   1.177  12.632 -0.1594  0.2044 -0.2680
14551TIP3    H165144   6.614   1.224  12.549 -3.9439  0.0458 -0.1878
14551TIP3    H265145   6.574   1.095  12.618  0.0227 -0.3011  1.7551
14552TIP3   OH265146   6.046   4.944  12.750  0.0183  0.1514 -0.5958
14552TIP3    H165147   5.957   4.967  12.724 -0.4800 -0.8552  0.1320
14552TIP3    H265148   6.097   4.951  12.670 -1.0313 -0.7819 -1.3870
14553TIP3   OH265149   3.842   4.770   5.262  0.4654  0.3517 -0.3535
14553TIP3    H165150   3.917   4.830   5.265  0.3231  0.5026  0.7499
14553TIP3    H265151   3.766   4.828   5.251  0.4755  0.2301 -1.0781
14554TIP3   OH265152   2.090   5.939   6.007  0.0992 -0.0933 -0.2262
14554TIP3    H165153   2.057   5.951   6.096  2.2089  0.5491  0.5417
14554TIP3    H265154   2.146   5.861   6.012  1.8236  1.0650 -0.4335
14555TIP3   OH265155   3.864   4.777  11.300  0.0492  0.6863 -0.4994
14555TIP3    H165156   3.841   4.707  11.361 -0.5858  0.3764 -1.0731
14555TIP3    H265157   3.839   4.743  11.214  0.8369  1.1550 -0.9221
14556TIP3   OH265158   3.349   2.711  13.493 -0.7758  1.0946  0.0890
14556TIP3    H165159   3.441   2.690  13.478 -1.1382 -0.1460 -0.5079
14556TIP3    H265160   3.323   2.762  13.416 -0.7213  0.9926  0.0030
14557TIP3   OH265161   0.006   2.014  16.597 -0.5624  0.2643  0.3554
14557TIP3    H165162   0.050   2.005  16.512 -0.2278 -0.2175  0.5754
14557TIP3    H265163  -0.034   2.101  16.594 -0.2348  0.4011 -0.1485
14558TIP3   OH265164   2.338   2.181  13.540  0.0700  0.2253 -0.1690
14558TIP3    H165165   2.315   2.134  13.459  0.7674  1.0523 -0.8612
14558TIP3    H265166   2.392   2.119  13.589 -3.0672 -1.5970  1.2877
14559TIP3   OH265167   2.064   4.906  11.569  1.3342 -0.2812 -0.1155
14559TIP3    H165168   1.985   4.934  11.522  2.0934  1.7300 -0.2945
14559TIP3    H265169   2.120   4.983  11.570  1.8712 -0.5693  3.0516
14560TIP3   OH265170   5.394   2.660   3.562 -0.2666 -0.9516  0.0953
14560TIP3    H165171   5.331   2.678   3.492 -0.6869  0.0890  0.7243
14560TIP3    H265172   5.387   2.736   3.620 -0.5426 -2.1965  1.7264
14561TIP3   OH265173   4.294   6.802   0.396  0.1229  0.3483 -0.1569
14561TIP3    H165174   4.227   6.789   0.330 -1.1796  1.3689  0.9049
14561TIP3    H265175   4.259   6.762   0.476 -0.8550  3.6788  1.3002
14562TIP3   OH265176   6.435   1.409  13.457  0.0063 -0.1280  1.1637
14562TIP3    H165177   6.460   1.485  13.404 -1.4420  0.1247  0.8035
14562TIP3    H265178   6.435   1.336  13.395 -0.0634 -0.1468  1.1868
14563TIP3   OH265179   3.809   1.016   2.388 -0.1432 -0.1995 -0.6088
14563TIP3    H165180   3.830   1.026   2.481  0.3396 -2.9111 -0.3421
14563TIP3    H265181   3.723   0.974   2.387  0.5349 -1.6389 -1.2926
14564TIP3   OH265182   5.923   1.008  14.147  0.3671  0.2013 -0.1830
14564TIP3    H165183   5.845   0.955  14.165  0.4860 -0.3827 -1.3044
14564TIP3    H265184   5.931   1.065  14.224 -0.9303  0.0030  0.1329
14565TIP3   OH265185   3.088   3.150  12.961  0.0762 -0.0666  0.0987
14565TIP3    H165186   3.055   3.060  12.963 -1.2134  0.3688 -0.1862
14565TIP3    H265187   3.108   3.166  12.869  1.6459 -0.4920  0.3381
14566TIP3   OH265188   0.513   0.360  13.428 -0.0772 -0.3830  0.5284
14566TIP3    H165189   0.477   0.282  13.385 -1.2409  0.7903 -0.7087
14566TIP3    H265190   0.469   0.363  13.513 -2.1699  0.3867 -0.5042
14567TIP3   OH265191   4.073   2.237   3.884 -0.0432 -0.1361  0.0694
14567TIP3    H165192   4.097   2.257   3.794 -2.7667 -1.4071 -1.0447
14567TIP3    H265193   4.128   2.163   3.908  0.7995  0.2980 -0.4659
14568TIP3   OH265194   3.150   1.630   4.392  0.1068  0.0392 -0.2981
14568TIP3    H165195   3.060   1.655   4.370 -0.6910 -2.2803  0.0591
14568TIP3    H265196   3.158   1.648   4.485 -0.7878 -1.8092  0.1715
14569TIP3   OH265197   3.710   5.891   4.630 -0.3523  0.2026  0.8384
14569TIP3    H165198   3.741   5.818   4.685 -1.1439 -0.2004  0.7704
14569TIP3    H265199   3.705   5.854   4.542  1.2064  0.9364  0.4144
14570TIP3   OH265200   5.425   1.577   5.451  0.3734 -0.1525  0.3144
14570TIP3    H165201   5.355   1.557   5.389 -0.7157  1.5864  0.9222
14570TIP3    H265202   5.442   1.494   5.495 -0.8445 -0.7553 -0.3046
14571TIP3   OH265203   5.827   3.259   0.115  0.7024 -0.3984 -0.3390
14571TIP3    H165204   5.837   3.247   0.021 -2.3838 -2.6623 -0.5407
14571TIP3    H265205   5.769   3.335   0.123  2.6134  1.1050 -0.0772
14572TIP3   OH265206   0.576   6.225   1.679  0.2133  0.4208  0.1764
14572TIP3    H165207   0.616   6.287   1.619  0.0382  0.6279  0.2736
14572TIP3    H265208   0.547   6.278   1.753  1.2253  0.0530  0.8573
14573TIP3   OH265209   6.622   3.488  14.966 -0.1330  0.3358  0.4438
14573TIP3    H165210   6.592   3.520  14.881  1.1857  2.2045  0.6049
14573TIP3    H265211   6.681   3.415  14.945 -2.8017 -1.8796  0.0316
14574TIP3   OH265212   3.845   3.581   0.187  0.2647 -0.0238  0.1402
14574TIP3    H165213   3.774   3.531   0.227  0.9157 -0.2329  1.0497
14574TIP3    H265214   3.892   3.517   0.132  0.4538 -0.1671  0.4651
14575TIP3   OH265215   5.543   4.252   5.523  0.0278 -0.7074  0.2363
14575TIP3    H165216   5.635   4.226   5.529  0.4994  0.5960 -0.8991
14575TIP3    H265217   5.517   4.229   5.434  0.3684  2.2027 -0.7068
14576TIP3   OH265218   2.951   5.211   3.461 -0.2767 -0.2929  0.1169
14576TIP3    H165219   3.035   5.209   3.506 -0.9401  0.7380  1.4713
14576TIP3    H265220   2.899   5.143   3.505 -0.9969  0.8557  1.1056
14577TIP3   OH265221   6.396   3.524   4.610  0.0437  0.4103  0.9000
14577TIP3    H165222   6.356   3.600   4.652 -0.4937  0.1303  0.9050
14577TIP3    H265223   6.468   3.499   4.668  0.4094  1.0890  0.7481
14578TIP3   OH265224   1.537   5.143   0.817 -0.7656 -0.2946 -0.0903
14578TIP3    H165225   1.458   5.118   0.767 -0.6581 -0.5957 -0.1071
14578TIP3    H265226   1.607   5.139   0.752 -0.6688 -0.4287  0.0242
14579TIP3   OH265227   0.530   1.501  12.974  0.0028 -0.4559 -0.5716
14579TIP3    H165228   0.612   1.459  13.001  0.1636 -0.8987 -1.7076
14579TIP3    H265229   0.462   1.439  12.999  0.0027 -0.0967  0.3561
14580TIP3   OH265230   4.882   2.914  11.355  0.3881  0.3561  0.4224
14580TIP3    H165231   4.842   2.990  11.398 -2.6373 -1.1536  0.6050
14580TIP3    H265232   4.943   2.879  11.420  1.3182  2.1701  0.5953
14581TIP3   OH265233   2.480   2.449  16.206 -0.3620 -0.6363  0.1377
14581TIP3    H165234   2.397   2.486  16.234 -0.3862 -0.8271  0.3175
14581TIP3    H265235   2.467   2.354  16.209 -0.5144 -0.6636 -0.9503
14582TIP3   OH265236   6.140   5.639   1.604  0.6441 -0.0025  0.2367
14582TIP3    H165237   6.125   5.583   1.680  1.7013  0.9119  1.1496
14582TIP3    H265238   6.059   5.690   1.596  0.3473 -0.4298  0.4495
14583TIP3   OH265239   0.113   5.680   6.103 -0.0206 -0.0882  0.6171
14583TIP3    H165240   0.064   5.677   6.186  0.2345  0.5463  0.7939
14583TIP3    H265241   0.070   5.748   6.052  1.7411  1.8336  1.4908
14584TIP3   OH265242   5.889   0.759   1.118  1.1765 -0.1719 -0.0424
14584TIP3    H165243   5.947   0.822   1.161  0.6264  0.9687 -0.9202
14584TIP3    H265244   5.928   0.674   1.137  1.0640  0.2846  2.5257
14585TIP3   OH265245   3.262   5.017   5.657 -0.4796  0.1177  0.5211
14585TIP3    H165246   3.191   5.081   5.666 -0.7771 -0.2948  1.1805
14585TIP3    H265247   3.341   5.071   5.644 -0.3813  0.7560  3.1673
14586TIP3   OH265248   5.598   5.527   4.826 -0.3275  0.4895 -0.1688
14586TIP3    H165249   5.684   5.566   4.816 -0.0387  0.2040  1.0057
14586TIP3    H265250   5.582   5.481   4.744  2.1785 -2.3892  0.7667
14587TIP3   OH265251   5.243   5.917   1.848  0.1928 -0.4011  0.2325
14587TIP3    H165252   5.188   5.963   1.911  1.4142  1.3810  0.0436
14587TIP3    H265253   5.289   5.986   1.801  1.8575 -1.8112 -0.3005
14588TIP3   OH265254   5.058   1.355   0.054  0.5181  0.3205 -0.6898
14588TIP3    H165255   5.048   1.267   0.017  0.5352  0.0330 -0.0156
14588TIP3    H265256   5.044   1.414  -0.020  0.9278 -0.2596 -1.2412
14589TIP3   OH265257   2.140   1.585  10.754 -0.2617  0.5103 -0.2781
14589TIP3    H165258   2.092   1.504  10.770 -1.1810  1.1347  0.2778
14589TIP3    H265259   2.223   1.558  10.716 -0.6891 -0.6638 -0.3985
14590TIP3   OH265260   4.649   2.677  15.396  0.0295 -0.0256  0.2926
14590TIP3    H165261   4.583   2.676  15.465 -0.0365 -0.2979  0.2307
14590TIP3    H265262   4.719   2.731  15.430  0.0270 -0.2117  0.6009
14591TIP3   OH265263   0.778   4.689   3.483 -0.1816  0.1274  0.1428
14591TIP3    H165264   0.722   4.732   3.547  0.1360 -1.0186  1.2261
14591TIP3    H265265   0.717   4.643   3.424 -0.4286 -0.9084  1.1653
14592TIP3   OH265266   1.441   2.572  15.953  0.4762  0.2545 -0.2895
14592TIP3    H165267   1.496   2.634  16.000  0.3832 -0.0170  0.1812
14592TIP3    H265268   1.416   2.507  16.019  0.9126 -0.5185 -0.8756
14593TIP3   OH265269   5.129   0.402   3.255  0.3136 -0.0334 -0.5417
14593TIP3    H165270   5.209   0.374   3.210  0.1540  0.7354 -1.3339
14593TIP3    H265271   5.158   0.434   3.340  1.1404  2.0737 -1.5446
14594TIP3   OH265272   2.854   0.218   2.366  0.0467  0.1449  0.2520
14594TIP3    H165273   2.784   0.154   2.365 -1.3846  1.6593 -0.1426
14594TIP3    H265274   2.810   0.303   2.363  1.8948  1.1508 -0.3147
14595TIP3   OH265275   6.071   1.202  10.843  0.2587 -0.6216  0.2568
14595TIP3    H165276   6.005   1.218  10.776 -0.4562 -2.0155  0.6054
14595TIP3    H265277   6.152   1.235  10.804 -0.5666  0.9277 -0.2564
14596TIP3   OH265278   1.101   5.808  12.595  0.1800  0.3408  0.0859
14596TIP3    H165279   1.152   5.747  12.648  1.2186  0.8021 -0.3539
14596TIP3    H265280   1.161   5.880  12.577 -0.7874  1.1340 -0.0421
14597TIP3   OH265281   5.064   3.004  12.572  0.2726 -0.1226 -0.5745
14597TIP3    H165282   5.006   3.069  12.533  2.0312  0.7639 -1.8796
14597TIP3    H265283   5.070   2.935  12.506  0.7650 -0.1536 -0.5022
14598TIP3   OH265284   3.497   2.900  16.666  0.2686  0.2189 -0.3029
14598TIP3    H165285   3.545   2.939  16.593  0.6377 -0.9554 -0.7030
14598TIP3    H265286   3.413   2.874  16.629  0.1904  0.2292 -0.1384
14599TIP3   OH265287   1.614   6.361  13.675 -0.0889  0.0797  0.3376
14599TIP3    H165288   1.682   6.425  13.653 -1.6613  1.1076 -1.9591
14599TIP3    H265289   1.546   6.412  13.719 -1.1797  0.0154 -1.1643
14600TIP3   OH265290   2.107   3.533  15.678  0.4735  0.1508 -0.2063
14600TIP3    H165291   2.177   3.581  15.722 -1.5737  0.8300  2.5656
14600TIP3    H265292   2.152   3.460  15.635  2.8454 -0.1180  2.3899
14601TIP3   OH265293   3.742   0.049   4.709 -0.1529 -0.3485  0.1178
14601TIP3    H165294   3.652   0.029   4.736  0.0983 -0.2762  1.0576
14601TIP3    H265295   3.739   0.140   4.681  0.0010  0.2789  2.0085
14602TIP3   OH265296   5.070   1.466  12.196  0.7007  0.2743  0.1427
14602TIP3    H165297   4.985   1.509  12.185  0.3674 -0.3477  0.2715
14602TIP3    H265298   5.063   1.422  12.281  1.1814  0.2766  0.1855
14603TIP3   OH265299   2.100   0.153   1.407 -0.2243 -0.5907 -0.0832
14603TIP3    H165300   2.171   0.176   1.348 -1.3345  0.0903 -1.1825
14603TIP3    H265301   2.139   0.160   1.495  1.0368 -0.1791 -0.6515
14604TIP3   OH265302   6.498   5.575   3.588 -0.5206  0.1303 -0.0317
14604TIP3    H165303   6.500   5.651   3.646 -0.7823 -0.9791  1.4849
14604TIP3    H265304   6.406   5.548   3.587 -0.4094 -0.2436 -0.4358
14605TIP3   OH265305   0.892   5.959   6.242  0.0254 -0.0846  0.1605
14605TIP3    H165306   0.927   6.017   6.310 -0.2629 -0.0270  0.2584
14605TIP3    H265307   0.963   5.951   6.178  0.7602 -1.0939  1.0578
14606TIP3   OH265308   3.807   0.708  13.498 -0.2910 -0.1542  0.3429
14606TIP3    H165309   3.717   0.706  13.530 -0.3922 -2.4900  0.1032
14606TIP3    H265310   3.803   0.664  13.413  0.9543  0.5227 -0.0973
14607TIP3   OH265311   1.168   1.708  11.905  0.1811  0.3718 -0.3736
14607TIP3    H165312   1.109   1.653  11.852  0.9889  0.3152 -1.2472
14607TIP3    H265313   1.234   1.647  11.937  0.6620  0.6899 -0.7332
14608TIP3   OH265314   3.552   2.459  16.628  0.5232  0.4265 -0.0972
14608TIP3    H165315   3.571   2.504  16.545  1.4996  0.2725  0.0250
14608TIP3    H265316   3.457   2.457  16.633  0.4289 -0.1054 -1.5193
14609TIP3   OH265317   3.459   4.083  11.006  0.5841 -0.5196  0.4021
14609TIP3    H165318   3.448   4.073  11.101  0.6845  1.6479  0.7069
14609TIP3    H265319   3.551   4.062  10.990  0.8100  0.0286  0.9500
14610TIP3   OH265320   6.611   6.830  15.343  0.2021 -0.3469  0.0641
14610TIP3    H165321   6.606   6.814  15.249  0.0389 -1.2770  0.2198
14610TIP3    H265322   6.521   6.845  15.370  0.0117 -1.9119  0.3643
14611TIP3   OH265323   3.630   6.231  15.655 -0.1453  0.2789 -0.0835
14611TIP3    H165324   3.540   6.198  15.659 -0.6708  1.7488  0.9744
14611TIP3    H265325   3.652   6.251  15.746  1.4883 -0.6104 -0.2466
14612TIP3   OH265326   0.443   3.952  16.011  0.0250  0.3785  0.5230
14612TIP3    H165327   0.420   3.900  16.089 -2.8474  2.2076  1.0234
14612TIP3    H265328   0.361   3.992  15.984  0.8666 -0.2280 -3.6040
14613TIP3   OH265329   5.718   4.393   1.455 -0.2649 -0.4345 -0.1850
14613TIP3    H165330   5.738   4.391   1.362  0.6427 -0.2665 -0.0080
14613TIP3    H265331   5.655   4.465   1.465 -1.4752 -1.3810 -0.8506
14614TIP3   OH265332   3.585   2.975   3.747 -0.1947  0.2286 -0.4266
14614TIP3    H165333   3.539   2.892   3.744  0.5237 -0.1629 -2.2657
14614TIP3    H265334   3.535   3.029   3.808 -1.0106 -1.3467  0.3373
14615TIP3   OH265335   6.216   6.272   5.605 -0.2609  0.4999 -0.2578
14615TIP3    H165336   6.255   6.184   5.598  0.9444  1.1414 -4.2697
14615TIP3    H265337   6.240   6.301   5.693 -1.2185 -3.2931  1.5029
14616TIP3   OH265338   2.702   1.591   2.019 -0.7180  0.4508 -0.2678
14616TIP3    H165339   2.641   1.635   1.959 -0.6211  0.2746 -0.4954
14616TIP3    H265340   2.680   1.627   2.105 -0.9921  0.5576 -0.3795
14617TIP3   OH265341   0.887   2.494  16.366  0.3544  0.3832  0.0048
14617TIP3    H165342   0.925   2.424  16.419  1.2918  0.6226 -0.3376
14617TIP3    H265343   0.849   2.555  16.430  0.4981  0.1203  0.3436
14618TIP3   OH265344   5.133   0.484  16.642 -0.3404 -0.4447  0.0314
14618TIP3    H165345   5.102   0.394  16.633  0.1911 -0.7603  1.1947
14618TIP3    H265346   5.124   0.504  16.735  0.1316  0.4902 -0.1111
14619TIP3   OH265347   0.279   3.242  16.624  0.0373 -0.1240 -0.2466
14619TIP3    H165348   0.252   3.154  16.648  1.0910 -0.0096  1.5192
14619TIP3    H265349   0.284   3.289  16.707 -0.6380  1.6628 -1.1603
14620TIP3   OH265350   1.914   6.825  11.412 -0.1237 -0.2870 -0.4205
14620TIP3    H165351   1.897   6.877  11.333 -2.8304  0.4554  0.5773
14620TIP3    H265352   1.889   6.736  11.387  2.0291 -0.7172 -1.3025
14621TIP3   OH265353   6.487   0.881   5.197  0.4493 -0.0302 -0.6613
14621TIP3    H165354   6.532   0.950   5.247 -0.2028 -0.2122  0.2004
14621TIP3    H265355   6.522   0.800   5.233 -1.3814 -0.2063  0.8526
14622TIP3   OH265356   6.524   3.426  15.203 -0.3404  0.2355 -0.1454
14622TIP3    H165357   6.540   3.473  15.121 -0.7116  0.3628 -0.1467
14622TIP3    H265358   6.493   3.340  15.176  0.5620 -0.1072 -0.1462
14623TIP3   OH265359   5.574   1.779  15.191 -0.3010  0.3222 -0.9911
14623TIP3    H165360   5.643   1.776  15.124  0.3813  3.6804 -0.6259
14623TIP3    H265361   5.495   1.753  15.145  0.8438 -1.8659 -1.8788
14624TIP3   OH265362   2.310   4.548  15.229 -0.1304 -0.1938 -0.2346
14624TIP3    H165363   2.332   4.595  15.149  0.2477  1.4927  0.8277
14624TIP3    H265364   2.394   4.521  15.266 -0.3091 -1.0714 -0.4333
14625TIP3   OH265365   2.982   4.596  17.075  0.3633  0.2277 -0.2875
14625TIP3    H165366   2.997   4.504  17.050  1.9497  0.2692  0.4164
14625TIP3    H265367   2.986   4.596  17.171  3.1785  1.3970 -0.2924
14626TIP3   OH265368   3.097   4.887  16.190  0.0151  0.0114  0.0301
14626TIP3    H165369   3.099   4.881  16.094  0.2566  0.2078  0.0233
14626TIP3    H265370   3.122   4.800  16.221  0.0636 -0.0141 -0.0829
14627TIP3   OH265371   6.415   5.951   2.329  0.2392  0.1543 -0.1963
14627TIP3    H165372   6.385   5.931   2.241  0.3766  0.8447 -0.4058
14627TIP3    H265373   6.347   5.915   2.386 -0.4739  0.7906 -0.6263
14628TIP3   OH265374   5.586   3.477  14.620  0.0519 -0.3391  0.1661
14628TIP3    H165375   5.627   3.449  14.702 -0.3836  0.6848  0.7523
14628TIP3    H265376   5.657   3.519  14.571  0.3926 -1.2486 -0.1438
14629TIP3   OH265377   5.182   0.685  14.979  0.4833  0.0602  0.2147
14629TIP3    H165378   5.270   0.717  14.995  1.0671 -1.3884  0.0778
14629TIP3    H265379   5.173   0.609  15.037 -1.3826  1.2919  1.6531
14630TIP3   OH265380   5.615   5.344   2.723  0.0549 -0.5764  0.4023
14630TIP3    H165381   5.695   5.358   2.671  0.2183 -2.3711  0.0944
14630TIP3    H265382   5.544   5.355   2.660  0.1986 -1.4388  0.0632
14631TIP3   OH265383   6.672   5.444   2.275  0.0318  0.3956 -0.0420
14631TIP3    H165384   6.601   5.495   2.312  0.3124  0.0027  1.0575
14631TIP3    H265385   6.655   5.354   2.303  1.8933  0.5367  1.7791
14632TIP3   OH265386   0.029   6.205   4.714 -0.0229  0.2723  0.2059
14632TIP3    H165387   0.003   6.178   4.626  0.2926  1.2052 -0.1904
14632TIP3    H265388  -0.054   6.222   4.760 -0.1745  0.8287 -0.2603
14633TIP3   OH265389   5.306   5.276  14.397 -0.0094 -1.1077  0.3566
14633TIP3    H165390   5.263   5.235  14.472 -0.8043 -1.5639 -0.3331
14633TIP3    H265391   5.379   5.217  14.376 -0.0226 -1.1858  0.5257
14634TIP3   OH265392   0.857   4.370  13.927  0.2205  1.2197 -0.2955
14634TIP3    H165393   0.932   4.413  13.885  0.3555  1.3178  0.0407
14634TIP3    H265394   0.877   4.277  13.922 -0.3617  1.1517 -1.5731
14635TIP3   OH265395   4.292   0.894  13.195  0.2318 -0.2096 -0.3682
14635TIP3    H165396   4.210   0.911  13.149  0.0160  1.9905  0.6987
14635TIP3    H265397   4.354   0.871  13.126 -1.3348 -2.5058 -1.1532
14636TIP3   OH265398   1.221   3.334   5.191 -0.3595  0.1612  0.0805
14636TIP3    H165399   1.166   3.412   5.195 -2.7234 -1.4214  1.9478
14636TIP3    H265400   1.255   3.325   5.280  0.3488 -0.6144 -0.2569
14637TIP3   OH265401   0.777   5.230  11.023 -0.1055 -0.1949  0.4294
14637TIP3    H165402   0.828   5.220  11.104  0.7201 -1.7905 -0.2393
14637TIP3    H265403   0.834   5.278  10.964 -0.8194  1.2227  0.8587
14638TIP3   OH265404   0.557   1.044   0.277  0.8655  0.4822 -0.0261
14638TIP3    H165405   0.566   0.949   0.282  1.4564  0.5812  1.1450
14638TIP3    H265406   0.483   1.064   0.334 -0.0688  0.6310 -1.2542
14639TIP3   OH265407   4.308   1.309   0.188  0.0201 -0.1277  0.0269
14639TIP3    H165408   4.360   1.389   0.184 -0.3693  0.1432  0.4175
14639TIP3    H265409   4.240   1.327   0.252  0.0493 -0.8409  0.2672
14640TIP3   OH265410   1.438   3.683   2.371  0.4294 -0.1311  0.0260
14640TIP3    H165411   1.400   3.602   2.336 -1.0720  1.0595 -1.2558
14640TIP3    H265412   1.508   3.705   2.310 -1.1272  1.0740 -1.4305
14641TIP3   OH265413   4.250   4.018   1.408 -0.2164 -0.1669 -0.1886
14641TIP3    H165414   4.315   4.072   1.454  0.7046 -0.7532 -0.7753
14641TIP3    H265415   4.256   3.933   1.450 -0.5460 -0.2503 -0.3083
14642TIP3   OH265416   3.178   3.491   5.304 -0.3172  0.0411  0.1862
14642TIP3    H165417   3.213   3.506   5.392  1.0579 -0.3877 -0.2587
14642TIP3    H265418   3.086   3.518   5.309 -0.1627  0.3486  1.6532
14643TIP3   OH265419   1.566   3.438  15.348  0.1682  0.4396 -0.0707
14643TIP3    H165420   1.623   3.409  15.277 -0.8730 -0.6147 -0.4993
14643TIP3    H265421   1.624   3.446  15.424  0.6323 -2.2310 -0.0729
14644TIP3   OH265422   4.136   1.130  14.503  0.0426 -0.1614 -0.0682
14644TIP3    H165423   4.058   1.116  14.450 -0.6407  3.2793 -0.2388
14644TIP3    H265424   4.104   1.132  14.593  0.3707 -1.1168  0.0780
14645TIP3   OH265425   1.050   6.764   4.059  0.7768 -0.0462 -0.3721
14645TIP3    H165426   1.095   6.792   3.979  0.8168 -1.9762 -1.0747
14645TIP3    H265427   1.029   6.672   4.044 -1.7655  0.2856  0.7053
14646TIP3   OH265428   4.258   4.738   1.945  0.4088 -0.3235 -0.2101
14646TIP3    H165429   4.186   4.681   1.972 -0.1538  0.0453 -0.9128
14646TIP3    H265430   4.272   4.719   1.853  0.4477  0.4198 -0.3677
14647TIP3   OH265431   0.295   5.911   2.218 -0.0364  0.2707  0.4389
14647TIP3    H165432   0.282   5.831   2.270  1.8189  1.2640  2.6294
14647TIP3    H265433   0.356   5.884   2.149 -0.1497 -0.4200  0.5960
14648TIP3   OH265434   5.892   3.460   5.606  0.1534  0.3021 -0.1313
14648TIP3    H165435   5.870   3.553   5.600 -0.0177  0.3025  0.4626
14648TIP3    H265436   5.816   3.415   5.569 -1.4389  0.2493  2.9590
14649TIP3   OH265437   0.449   0.228  11.339  0.2632  0.0981 -0.0230
14649TIP3    H165438   0.467   0.321  11.323  0.6939 -0.0115 -0.1833
14649TIP3    H265439   0.488   0.211  11.425  0.6242 -0.0527 -0.2138
14650TIP3   OH265440   0.601   1.608  16.740  0.4505 -0.6011 -1.0374
14650TIP3    H165441   0.620   1.661  16.817  2.7293 -0.1438 -1.8161
14650TIP3    H265442   0.530   1.655  16.696 -1.0874 -1.0345  0.8730
14651TIP3   OH265443   5.192   0.924  12.122 -0.1433 -0.2053 -0.2887
14651TIP3    H165444   5.125   0.992  12.126 -0.2868 -0.3953  1.1787
14651TIP3    H265445   5.146   0.844  12.147  0.3678 -0.5566 -0.4667
14652TIP3   OH265446   0.036   0.192   0.753 -0.2284  0.5506  0.2653
14652TIP3    H165447  -0.024   0.246   0.701 -0.8687  0.3651  0.7918
14652TIP3    H265448   0.025   0.104   0.719  0.8943  0.7407 -0.6640
14653TIP3   OH265449   6.221   1.094   3.493 -0.0190  0.0411 -0.1614
14653TIP3    H165450   6.239   1.063   3.582  1.9536  1.8708  0.1664
14653TIP3    H265451   6.260   1.028   3.436 -1.1326 -1.0521  0.2784
14654TIP3   OH265452   6.774   5.420  15.069  0.3798  0.6971 -0.1887
14654TIP3    H165453   6.701   5.412  15.131 -0.6693  1.3129 -1.2921
14654TIP3    H265454   6.731   5.435  14.984  1.7955  0.7446 -0.9216
14655TIP3   OH265455   3.076   2.176   4.571 -0.0124 -0.0482  0.0870
14655TIP3    H165456   2.982   2.160   4.582  0.5586 -3.6140  0.7148
14655TIP3    H265457   3.091   2.165   4.477 -0.0337 -0.8016  0.1681
14656TIP3   OH265458   1.480   4.396   2.681  0.0506 -0.0096  0.3779
14656TIP3    H165459   1.436   4.379   2.764  0.5850 -1.0621  0.4597
14656TIP3    H265460   1.566   4.431   2.707 -0.1603  0.6285  0.2406
14657TIP3   OH265461   4.868   2.168  15.980 -0.3781  0.2671  0.0197
14657TIP3    H165462   4.845   2.214  15.899  3.4661 -0.0432 -1.4704
14657TIP3    H265463   4.944   2.115  15.957 -0.2770 -1.3685  3.4369
14658TIP3   OH265464   3.049   4.662   3.922 -0.3343 -0.1136  0.2079
14658TIP3    H165465   3.141   4.673   3.948 -0.0011 -2.3385  0.1507
14658TIP3    H265466   3.044   4.706   3.837  0.6508  0.1616  0.2727
14659TIP3   OH265467   5.578   1.559   4.784  0.3791 -0.4461  0.2872
14659TIP3    H165468   5.562   1.634   4.726  0.3873 -0.0988  0.7303
14659TIP3    H265469   5.642   1.591   4.848 -1.6285  0.0814  2.1620
14660TIP3   OH265470   4.836   6.720   2.944 -0.1074  0.3958 -0.5542
14660TIP3    H165471   4.927   6.724   2.914  1.1911 -0.5116  2.7603
14660TIP3    H265472   4.825   6.798   2.999 -0.3622 -0.8674  1.2760
14661TIP3   OH265473   3.851   2.235   2.350  0.3728  0.1220  0.0896
14661TIP3    H165474   3.930   2.236   2.403  0.6418 -1.0005 -0.2797
14661TIP3    H265475   3.824   2.327   2.345  1.1934  0.4124  0.8850
14662TIP3   OH265476   2.748   4.180   5.440 -0.0724 -0.1839  0.7169
14662TIP3    H165477   2.669   4.191   5.493  0.4330 -1.2993  1.7536
14662TIP3    H265478   2.787   4.268   5.435 -0.5023  0.0610  1.6127
14663TIP3   OH265479   6.639   6.698  13.330  0.5733 -0.2453  0.3918
14663TIP3    H165480   6.640   6.767  13.264 -2.4348 -0.1012  0.3525
14663TIP3    H265481   6.663   6.619  13.282  1.6104  0.3547 -0.1077
14664TIP3   OH265482   0.230   3.365   5.073 -0.3903  0.1726  0.4620
14664TIP3    H165483   0.238   3.355   4.978  1.8102  0.6926  0.5393
14664TIP3    H265484   0.301   3.312   5.108 -0.3037  1.1089  1.7580
14665TIP3   OH265485   2.471   6.216   1.676  0.1229 -0.2245  0.5246
14665TIP3    H165486   2.560   6.199   1.646  0.5719  1.0973  1.0069
14665TIP3    H265487   2.483   6.269   1.755 -1.1030  0.3821  0.3173
14666TIP3   OH265488   2.812   1.303  13.965  0.8664 -0.5452  0.4455
14666TIP3    H165489   2.723   1.278  13.989  0.8426  0.6510  1.7223
14666TIP3    H265490   2.865   1.281  14.042  1.6267 -0.8920 -0.1567
14667TIP3   OH265491   6.345   3.669   3.560 -0.3437 -0.1565 -0.1214
14667TIP3    H165492   6.275   3.727   3.528 -1.1004 -1.0192 -0.0820
14667TIP3    H265493   6.393   3.646   3.481 -0.3403  0.1309 -0.2067
14668TIP3   OH265494   3.822   6.702   5.641  0.2694 -0.4245  0.6178
14668TIP3    H165495   3.728   6.698   5.622  0.8115 -4.7907 -2.7857
14668TIP3    H265496   3.827   6.687   5.736 -2.4510  0.2338  0.9487
14669TIP3   OH265497   5.624   5.857   4.761  0.2281  0.4921 -0.4763
14669TIP3    H165498   5.533   5.849   4.789  0.5675 -2.2449  0.0909
14669TIP3    H265499   5.620   5.851   4.665 -0.0936 -2.2124 -0.3762
14670TIP3   OH265500   2.378   3.442   1.833 -0.6399  0.5831 -0.2238
14670TIP3    H165501   2.428   3.523   1.847  0.8190 -0.3472  0.2947
14670TIP3    H265502   2.382   3.427   1.739 -1.2526  1.3013 -0.3729
14671TIP3   OH265503   2.344   4.963  13.245  0.2340 -0.6257  0.0951
14671TIP3    H165504   2.399   4.888  13.267 -0.6186 -1.1734  0.4147
14671TIP3    H265505   2.304   4.941  13.161  0.0081 -0.5140  0.1724
14672TIP3   OH265506   4.870   1.781  11.317 -0.3118 -0.4258  0.0210
14672TIP3    H165507   4.776   1.791  11.302 -0.4710 -0.6292  0.8011
14672TIP3    H265508   4.908   1.865  11.294 -0.3344 -1.0571 -2.6880
14673TIP3   OH265509   6.312   3.820  14.436  0.4343 -0.4719 -0.5699
14673TIP3    H165510   6.251   3.859  14.498 -0.6575 -0.3194 -1.6992
14673TIP3    H265511   6.371   3.767  14.491  0.6705  1.0916  0.7622
14674TIP3   OH265512   2.573   4.659  13.985 -0.5401 -0.2047  0.0881
14674TIP3    H165513   2.600   4.714  13.911 -0.7927  0.1593  0.2689
14674TIP3    H265514   2.653   4.645  14.035 -0.1248 -1.3356 -0.8183
14675TIP3   OH265515   1.672   3.693   2.141 -0.3247  0.1874 -0.6458
14675TIP3    H165516   1.634   3.609   2.115 -0.7115 -0.0960  0.7521
14675TIP3    H265517   1.734   3.671   2.210 -0.8751  1.1090  0.1638
14676TIP3   OH265518   0.545   2.874   0.826 -0.8597  0.1706  0.0738
14676TIP3    H165519   0.500   2.957   0.812  0.4706  0.8088 -0.5767
14676TIP3    H265520   0.482   2.820   0.875 -1.1129  2.1568  2.0714
14677TIP3   OH265521   6.094   2.664   1.471 -0.0364  0.0188  0.0817
14677TIP3    H165522   6.119   2.578   1.436  0.3507 -0.3327  1.1866
14677TIP3    H265523   6.045   2.645   1.551 -1.5491  0.7902 -0.6139
14678TIP3   OH265524   4.730   5.090  13.655 -0.3351  0.6466 -0.3141
14678TIP3    H165525   4.636   5.103  13.667 -0.0930  1.0320  1.3253
14678TIP3    H265526   4.770   5.121  13.736  1.1131 -0.6796 -0.4656
14679TIP3   OH265527   3.022   0.986  16.102  0.0978 -0.3784 -0.0771
14679TIP3    H165528   2.950   1.015  16.047 -0.0574 -0.9109 -0.1583
14679TIP3    H265529   3.100   1.019  16.058 -0.0672 -0.1863 -0.2269
14680TIP3   OH265530   4.324   3.935   4.827  0.4609  0.2259 -0.3789
14680TIP3    H165531   4.343   4.027   4.807  0.4006  0.0776 -1.1499
14680TIP3    H265532   4.408   3.890   4.817  0.3484  0.0834 -0.6842
14681TIP3   OH265533   2.961   4.231  12.943 -0.1330  0.0262  0.5135
14681TIP3    H165534   2.941   4.155  12.888  1.6632 -0.9169  1.0972
14681TIP3    H265535   2.956   4.197  13.033  1.6115  0.3151  0.7555
14682TIP3   OH265536   2.135   4.908  10.585 -0.1585  0.7006 -0.3732
14682TIP3    H165537   2.093   4.846  10.526 -1.2126  1.5643 -0.5577
14682TIP3    H265538   2.206   4.947  10.534  0.7753 -0.6266 -0.1218
14683TIP3   OH265539   6.477   3.448  12.326  0.7187  0.0786 -0.3494
14683TIP3    H165540   6.434   3.511  12.383  0.0970 -0.1102 -0.6003
14683TIP3    H265541   6.468   3.485  12.238 -0.3912 -0.7458 -0.6057
14684TIP3   OH265542   1.187   4.886   0.981 -0.5091 -0.1545  0.1706
14684TIP3    H165543   1.126   4.947   1.023 -0.3535  1.2772 -1.5661
14684TIP3    H265544   1.274   4.921   1.000 -0.3944 -0.1323 -0.3682
14685TIP3   OH265545   5.493   3.648   0.112 -0.3448  0.5933 -0.5768
14685TIP3    H165546   5.481   3.708   0.039  0.7227  0.8913 -0.5366
14685TIP3    H265547   5.571   3.597   0.089  0.3992  1.1425  0.6285
14686TIP3   OH265548   6.628   0.326   4.173  0.0831  0.4142 -0.0586
14686TIP3    H165549   6.644   0.403   4.228  1.6876  0.1069 -0.0433
14686TIP3    H265550   6.642   0.358   4.083 -0.7724  0.4876 -0.1767
14687TIP3   OH265551   5.881   1.572  12.050  0.5254  0.4224  0.1984
14687TIP3    H165552   5.855   1.650  12.100 -0.3821  0.3598 -0.1517
14687TIP3    H265553   5.840   1.585  11.964 -0.0125 -0.6465  0.2838
14688TIP3   OH265554   3.567   4.262  11.565  0.1577 -0.3816 -0.5653
14688TIP3    H165555   3.530   4.321  11.500  0.8370  0.2977 -0.3426
14688TIP3    H265556   3.532   4.292  11.649  1.3788  0.4376 -0.3193
14689TIP3   OH265557   5.383   6.663   0.199  0.2069 -0.0713 -0.1794
14689TIP3    H165558   5.306   6.688   0.250  0.6429  2.0041 -0.4605
14689TIP3    H265559   5.387   6.727   0.129  1.4855 -0.9184 -0.9185
14690TIP3   OH265560   0.159   6.151  12.581  0.3957  0.0796 -0.1421
14690TIP3    H165561   0.216   6.183  12.511  0.5380 -0.0191 -0.0708
14690TIP3    H265562   0.120   6.071  12.546  0.2444  0.1848 -0.2176
14691TIP3   OH265563   4.320   4.769  10.935 -0.0176 -0.0188 -1.0144
14691TIP3    H165564   4.284   4.841  10.883 -1.4125 -1.8117 -2.6681
14691TIP3    H265565   4.250   4.704  10.938  1.3619 -1.5396  0.0027
14692TIP3   OH265566   5.709   4.123   3.174 -0.2695  0.2780  0.1962
14692TIP3    H165567   5.762   4.043   3.172 -0.7659 -0.0717  0.6092
14692TIP3    H265568   5.676   4.132   3.085  1.6300  1.3091 -0.4518
14693TIP3   OH265569   2.837   6.652   1.778  0.9304  0.1586  0.4655
14693TIP3    H165570   2.930   6.634   1.792  1.0047  0.8190  0.8348
14693TIP3    H265571   2.808   6.582   1.719  1.7177  0.0865  0.1491
14694TIP3   OH265572   6.629   6.298   4.203  0.0122 -0.5555  0.0286
14694TIP3    H165573   6.551   6.352   4.218 -0.3527 -0.5135 -1.7409
14694TIP3    H265574   6.677   6.345   4.135  0.9306 -1.2362  0.1972
14695TIP3   OH265575   1.184   5.352  17.030  0.3261  0.2961  0.0460
14695TIP3    H165576   1.229   5.392  17.105  0.2019  0.0372  0.2614
14695TIP3    H265577   1.145   5.272  17.065  0.5090  0.0231 -0.3593
14696TIP3   OH265578   4.647   4.091  12.895 -0.7860 -0.4667  0.3185
14696TIP3    H165579   4.726   4.114  12.845  0.2850  1.1087  2.6003
14696TIP3    H265580   4.606   4.174  12.914 -1.5054 -1.0828  1.5253
14697TIP3   OH265581   1.734   2.481  11.443  0.1656  0.0281  0.3926
14697TIP3    H165582   1.749   2.572  11.415  0.4696  0.3411  1.5266
14697TIP3    H265583   1.771   2.477  11.531  0.5451 -1.3229  0.1894
14698TIP3   OH265584   6.284   2.929  11.490  0.0021  0.7508  0.2581
14698TIP3    H165585   6.338   3.006  11.508  1.6532 -0.7762  2.4269
14698TIP3    H265586   6.347   2.859  11.474 -1.4153  0.2419 -4.5142
14699TIP3   OH265587   6.636   0.625  11.507  0.2431 -0.0653 -0.4858
14699TIP3    H165588   6.702   0.624  11.438  1.3819  1.7355  0.4879
14699TIP3    H265589   6.648   0.710  11.550 -1.9482 -0.1795  0.4744
14700TIP3   OH265590   1.079   1.529  15.630 -0.2005  0.0208  0.2577
14700TIP3    H165591   1.121   1.543  15.715 -2.1498  0.2667  1.2137
14700TIP3    H265592   1.147   1.551  15.567  0.2869  3.2241  1.7105
14701TIP3   OH265593   5.110   4.895  12.462  0.4311 -0.2251  0.3508
14701TIP3    H165594   5.081   4.876  12.552  1.0119  0.7402  0.7558
14701TIP3    H265595   5.164   4.973  12.471  1.2717 -0.6634 -0.7173
14702TIP3   OH265596   1.432   2.369   3.741 -0.3462 -0.2621  0.7774
14702TIP3    H165597   1.457   2.288   3.697 -2.7739 -0.5646 -0.2238
14702TIP3    H265598   1.485   2.437   3.699  0.1001 -1.0484  0.0422
14703TIP3   OH265599   4.638   0.149  16.432  0.1154 -0.1943 -0.1906
14703TIP3    H165600   4.583   0.207  16.484 -1.3121 -2.0796  0.5286
14703TIP3    H265601   4.603   0.061  16.449  2.8232 -1.4129 -0.3822
14704TIP3   OH265602   2.386   1.725  13.171 -0.4456  0.1844  0.0204
14704TIP3    H165603   2.434   1.692  13.247 -1.0980  1.2575  0.9305
14704TIP3    H265604   2.297   1.692  13.183 -0.7730  1.1180  0.2222
14705TIP3   OH265605   4.883   4.282   0.019 -0.3354 -0.4930  0.4964
14705TIP3    H165606   4.862   4.190   0.003 -2.5548  0.0910 -0.2251
14705TIP3    H265607   4.979   4.285   0.016 -0.2412 -2.5691 -0.6635
14706TIP3   OH265608   3.534   2.349  13.473 -0.0687 -0.3944 -0.3254
14706TIP3    H165609   3.471   2.334  13.402 -0.0340 -0.2423 -0.3887
14706TIP3    H265610   3.595   2.275  13.466  0.0076 -0.3120 -0.5353
14707TIP3   OH265611   1.485   3.701  14.757  0.3704 -0.1858  0.4196
14707TIP3    H165612   1.436   3.637  14.706  1.4234 -1.2017  0.6334
14707TIP3    H265613   1.476   3.783  14.709  0.8241 -0.9851 -1.0636
14708TIP3   OH265614   0.900   2.277   3.333  0.1316 -0.9104 -0.1288
14708TIP3    H165615   0.939   2.355   3.373  1.8424 -0.3813 -2.5573
14708TIP3    H265616   0.806   2.284   3.353  0.2935  1.5319  0.1236
14709TIP3   OH265617   0.347   6.450   3.314  0.3017  0.3668 -0.6782
14709TIP3    H165618   0.334   6.514   3.243  0.7521  1.8426  0.5104
14709TIP3    H265619   0.364   6.504   3.391 -3.3772 -0.9860  1.3473
14710TIP3   OH265620   5.059   4.802  16.883  0.0844  0.7872  0.5851
14710TIP3    H165621   5.093   4.878  16.836  1.6084 -1.4639 -2.3607
14710TIP3    H265622   4.968   4.796  16.855  0.5486  0.3890 -0.9507
14711TIP3   OH265623   4.489   0.927  11.189 -0.2222  0.2200  0.4890
14711TIP3    H165624   4.540   0.958  11.115  0.0570  0.5656  0.8219
14711TIP3    H265625   4.398   0.940  11.162 -0.1158  1.1178  0.5288
14712TIP3   OH265626   1.427   5.472  11.819  0.3754 -0.7443  0.7004
14712TIP3    H165627   1.519   5.449  11.832  1.0551  1.5932  0.3033
14712TIP3    H265628   1.403   5.428  11.737  2.0019  0.9114 -0.7334
14713TIP3   OH265629   4.208   3.214   1.454 -0.1084  0.5584  0.4559
14713TIP3    H165630   4.296   3.250   1.466 -0.2402  0.8708  0.4754
14713TIP3    H265631   4.151   3.290   1.450 -0.2710  0.3930 -0.5167
14714TIP3   OH265632   5.567   6.813   4.760 -0.5703  0.4942  0.0692
14714TIP3    H165633   5.662   6.801   4.763 -0.6393 -0.5323 -0.9415
14714TIP3    H265634   5.537   6.791   4.848  0.0046 -0.5364  0.0297
14715TIP3   OH265635   6.451   3.460   2.310  0.3790 -0.6050 -0.0558
14715TIP3    H165636   6.456   3.395   2.239 -1.0654 -0.4266 -0.3488
14715TIP3    H265637   6.426   3.410   2.387  1.3329 -0.6972  0.2145
14716TIP3   OH265638   0.375   5.764   0.296  0.3608  0.3787  0.0722
14716TIP3    H165639   0.430   5.812   0.358 -0.0118 -0.1131  0.8119
14716TIP3    H265640   0.355   5.682   0.341  0.1450 -0.0285 -0.7478
14717TIP3   OH265641   5.587   4.548   1.213 -0.1399 -0.1937  0.4793
14717TIP3    H165642   5.602   4.625   1.269 -0.0516 -0.7332  1.2141
14717TIP3    H265643   5.601   4.580   1.124  0.6626  0.4648  0.8265
14718TIP3   OH265644   4.486   2.310  10.516  0.5644  0.2959 -0.0880
14718TIP3    H165645   4.422   2.241  10.498  0.6510  0.2622 -0.2716
14718TIP3    H265646   4.478   2.370  10.442  0.0516  0.8117  0.3877
14719TIP3   OH265647   3.755   1.525  11.321 -0.2231 -0.1235 -0.1200
14719TIP3    H165648   3.690   1.595  11.329  1.0368  1.1209 -0.4015
14719TIP3    H265649   3.711   1.448  11.357 -2.3219  0.3466 -1.4916
14720TIP3   OH265650   6.724   5.606   5.398 -0.6277  0.4230  0.5047
14720TIP3    H165651   6.752   5.695   5.373  1.7675  0.1724  2.0095
14720TIP3    H265652   6.776   5.548   5.343 -0.7610 -0.0708  0.8904
14721TIP3   OH265653   3.306   0.988  14.219  0.2807 -0.1322  0.5773
14721TIP3    H165654   3.222   1.010  14.178  1.2474 -0.5820 -1.7825
14721TIP3    H265655   3.330   1.067  14.267 -0.9371  0.4283  0.3058
14722TIP3   OH265656   4.935   4.956  13.218  0.1393 -0.4096 -0.3156
14722TIP3    H165657   4.918   5.047  13.241 -1.4401 -0.9230  0.7669
14722TIP3    H265658   5.025   4.940  13.248 -0.3297  0.1982  1.6056
14723TIP3   OH265659   3.975   6.434  11.706  0.6051  0.3440 -0.1111
14723TIP3    H165660   3.951   6.405  11.794  0.7661  1.3661  0.2815
14723TIP3    H265661   3.934   6.370  11.647  2.8606 -2.1068  0.7575
14724TIP3   OH265662   3.312   1.969   3.205 -0.1949  0.4238  0.5093
14724TIP3    H165663   3.316   1.892   3.262 -0.1755 -0.0482 -0.1111
14724TIP3    H265664   3.248   1.945   3.138 -0.2882  1.0066  0.3891
14725TIP3   OH265665   1.034   3.548  12.389  0.2157 -0.0398 -0.1389
14725TIP3    H165666   1.024   3.467  12.439  0.2265 -0.1573 -0.3259
14725TIP3    H265667   0.945   3.571  12.362  0.1186  0.3926  0.5040
14726TIP3   OH265668   2.478   5.065   3.971  0.0456 -0.6810  0.1818
14726TIP3    H165669   2.491   5.159   3.980  0.7244 -0.7638  0.0909
14726TIP3    H265670   2.388   5.057   3.939 -0.8611 -0.1827  2.4537
14727TIP3   OH265671   1.438   1.982   2.381  0.3943  0.4211 -0.2602
14727TIP3    H165672   1.394   1.904   2.416 -0.1294  0.4935 -0.7382
14727TIP3    H265673   1.367   2.035   2.344  0.9817 -0.0553 -2.1964
14728TIP3   OH265674   1.760   4.764  12.065  0.0192 -0.4619 -0.3430
14728TIP3    H165675   1.766   4.717  11.981 -1.8528 -0.8925 -0.2847
14728TIP3    H265676   1.682   4.728  12.106  1.1423 -0.5621  1.8076
14729TIP3   OH265677   1.832   3.595   5.168 -0.4655 -0.0366  0.0586
14729TIP3    H165678   1.776   3.565   5.096 -1.6851 -0.8757  1.3097
14729TIP3    H265679   1.804   3.686   5.183  0.4827  0.4761 -1.1459
14730TIP3   OH265680   2.817   1.685  16.933  0.3114 -0.4843  0.0976
14730TIP3    H165681   2.822   1.744  16.857  2.9079  1.0094  1.3178
14730TIP3    H265682   2.806   1.744  17.008  2.5969 -1.5274  1.3202
14731TIP3   OH265683   5.098   2.762   3.202 -0.5618 -0.0012 -0.1349
14731TIP3    H165684   5.105   2.800   3.290  2.1270  2.0545 -1.0874
14731TIP3    H265685   5.105   2.837   3.143  0.8575 -1.6053 -2.1373
14732TIP3   OH265686   3.254   3.878   4.512 -0.1551  0.2498 -0.2931
14732TIP3    H165687   3.222   3.804   4.564 -0.9976  0.2450 -0.8041
14732TIP3    H265688   3.341   3.850   4.482 -0.7465 -0.8359 -1.0555
14733TIP3   OH265689   1.568   3.941   2.164 -0.2358  0.0277  0.3991
14733TIP3    H165690   1.478   3.938   2.196 -0.0508 -0.0575  0.9174
14733TIP3    H265691   1.591   3.849   2.150 -1.3216  0.1289 -2.8850
14734TIP3   OH265692   2.222   5.364  12.858 -0.6919  0.2427 -0.6040
14734TIP3    H165693   2.194   5.410  12.937 -0.7548  3.8118 -2.5090
14734TIP3    H265694   2.142   5.323  12.825 -0.8186 -0.6446  0.7298
14735TIP3   OH265695   0.542   1.613  11.387  0.4134  0.3508  0.3759
14735TIP3    H165696   0.617   1.645  11.438 -0.4188  0.8451  1.3316
14735TIP3    H265697   0.471   1.609  11.451 -0.8933  1.7611 -0.9143
14736TIP3   OH265698   2.515   2.656  13.906 -0.2871  0.6542 -0.4658
14736TIP3    H165699   2.441   2.716  13.912 -1.3323 -0.4053 -2.1405
14736TIP3    H265700   2.511   2.622  13.817  2.5483  0.9699 -0.8161
14737TIP3   OH265701   3.542   6.191  14.936 -0.0365 -0.8698  0.4340
14737TIP3    H165702   3.499   6.152  15.012  1.5812 -0.3967  1.6338
14737TIP3    H265703   3.505   6.145  14.861 -1.5021 -1.5036  1.5075
14738TIP3   OH265704   1.732   4.936  16.642 -0.4507  0.0253 -0.0180
14738TIP3    H165705   1.807   4.879  16.623 -1.3984 -1.2254 -0.1099
14738TIP3    H265706   1.732   4.998  16.569 -1.1495 -1.7276 -1.6223
14739TIP3   OH265707   6.755   4.516  13.586 -0.3393 -0.2777  0.2026
14739TIP3    H165708   6.811   4.492  13.660 -1.3650 -0.9813  0.7876
14739TIP3    H265709   6.815   4.527  13.512  0.6455 -0.1128  1.0145
14740TIP3   OH265710   6.122   1.863  11.127 -0.4107 -0.0988  0.0550
14740TIP3    H165711   6.035   1.901  11.125 -0.7057 -0.4453  2.8312
14740TIP3    H265712   6.140   1.849  11.220  3.3742  1.7290 -0.2070
14741TIP3   OH265713   2.477   2.454   5.512  0.1595  0.1868 -0.0357
14741TIP3    H165714   2.403   2.461   5.452  0.3967 -0.8516 -0.4699
14741TIP3    H265715   2.453   2.509   5.587 -0.2033  1.3950 -1.0051
14742TIP3   OH265716   4.801   2.678  14.635 -0.1345 -0.2271 -0.3400
14742TIP3    H165717   4.749   2.701  14.711  2.5831  0.2971  1.4789
14742TIP3    H265718   4.780   2.586  14.619  0.0013 -0.6760  1.7640
14743TIP3   OH265719   6.757   1.818  15.297  0.1491  0.2832 -0.1002
14743TIP3    H165720   6.693   1.752  15.270  0.8506 -0.2404 -0.5280
14743TIP3    H265721   6.709   1.874  15.358 -0.0523 -1.6001  1.6044
14744TIP3   OH265722   3.137   4.467  12.277  0.7942  0.2351 -0.4250
14744TIP3    H165723   3.210   4.425  12.231  1.0177  0.9517 -0.7335
14744TIP3    H265724   3.137   4.558  12.246  0.8275  0.6912  0.8393
14745TIP3   OH265725   3.689   3.473  12.111  0.0385  0.0135 -0.5874
14745TIP3    H165726   3.757   3.412  12.082 -0.8711 -1.4404  0.2269
14745TIP3    H265727   3.737   3.540  12.159  0.9905 -0.4938 -0.8049
14746TIP3   OH265728   2.697   3.287   5.450  0.1978  0.2946 -0.0923
14746TIP3    H165729   2.603   3.278   5.437  0.0591  0.1163  1.0077
14746TIP3    H265730   2.721   3.215   5.508  0.7446  1.2544  0.9060
14747TIP3   OH265731   4.141   5.032  14.953 -0.0611 -0.6529 -0.2024
14747TIP3    H165732   4.136   5.039  14.858  1.5616  1.6004 -0.2000
14747TIP3    H265733   4.228   4.996  14.970  0.2198  0.2784  0.4270
14748TIP3   OH265734   2.869   5.017   0.872  0.4090 -0.2232  0.0336
14748TIP3    H165735   2.810   4.945   0.852 -0.8012  0.7019  0.0946
14748TIP3    H265736   2.914   4.991   0.953 -1.0077 -0.3520  0.8116
14749TIP3   OH265737   1.400   4.277   0.058 -0.0625  0.6673  0.5083
14749TIP3    H165738   1.426   4.365   0.033 -0.6119  0.6131 -0.2746
14749TIP3    H265739   1.445   4.220  -0.003 -0.1758  0.4375  0.6367
14750TIP3   OH265740   4.032   5.417  11.372 -0.0133  0.4009  0.4791
14750TIP3    H165741   4.116   5.464  11.376  0.8421 -0.9159 -0.8287
14750TIP3    H265742   4.056   5.330  11.340 -1.7642 -0.3695  1.1923
14751TIP3   OH265743   1.927   5.500  11.486 -0.9266  0.3143  0.5235
14751TIP3    H165744   1.956   5.582  11.445  1.4029 -0.2690  0.8580
14751TIP3    H265745   1.907   5.442  11.413  1.6868 -0.2055  0.1310
14752TIP3   OH265746   0.789   3.404   2.060 -0.4276 -0.2719 -0.5183
14752TIP3    H165747   0.804   3.312   2.041 -2.3189 -0.5642 -0.7687
14752TIP3    H265748   0.863   3.429   2.116 -0.8909 -2.4792  1.2227
14753TIP3   OH265749   1.017   4.468   6.477  0.0970 -0.1944 -0.2926
14753TIP3    H165750   1.046   4.543   6.529 -1.0807  0.1734 -0.1340
14753TIP3    H265751   0.941   4.434   6.524 -0.4866 -0.3575 -1.3223
14754TIP3   OH265752   3.588   1.574   0.868  0.0977  0.4276  0.4467
14754TIP3    H165753   3.644   1.507   0.829  0.1510  0.3165  0.7143
14754TIP3    H265754   3.643   1.653   0.873 -0.2117  0.7236 -0.6170
14755TIP3   OH265755   2.624   6.196  12.018  0.2831 -0.1467  0.5341
14755TIP3    H165756   2.542   6.204  12.068  0.6217 -2.8241  1.6763
14755TIP3    H265757   2.693   6.194  12.085  1.2885  1.3378 -0.3766
14756TIP3   OH265758   3.324   1.783   1.437 -0.3184  0.0061  0.2666
14756TIP3    H165759   3.294   1.799   1.348  0.9900  1.6348  0.0729
14756TIP3    H265760   3.272   1.843   1.491 -2.6532 -2.4539  0.9789
14757TIP3   OH265761   4.612   2.513   4.215 -0.1765 -0.7084 -0.0948
14757TIP3    H165762   4.549   2.584   4.199 -0.5349 -1.2913 -1.3851
14757TIP3    H265763   4.683   2.531   4.154 -0.3990 -1.5971 -0.6347
14758TIP3   OH265764   5.233   3.827   3.335  0.1272  0.4574  0.1754
14758TIP3    H165765   5.264   3.828   3.426 -0.7657  0.7004  0.4790
14758TIP3    H265766   5.313   3.814   3.284  0.3512 -3.4583  1.1407
14759TIP3   OH265767   6.470   4.834  16.411  0.3160  0.0628 -0.0433
14759TIP3    H165768   6.479   4.929  16.409  2.0820 -0.0218  1.4969
14759TIP3    H265769   6.535   4.801  16.349 -0.9579 -0.1508 -1.3127
14760TIP3   OH265770   1.113   6.730  14.919 -0.2449  0.3396  0.3062
14760TIP3    H165771   1.117   6.778  15.001  0.6979  1.2478 -0.2395
14760TIP3    H265772   1.182   6.664  14.927  2.4048  2.7249 -1.0781
14761TIP3   OH265773   4.945   3.144   2.232 -0.2348 -0.5943  0.4259
14761TIP3    H165774   4.867   3.088   2.223  0.1320 -1.0015 -0.2813
14761TIP3    H265775   5.015   3.093   2.192  0.1999  0.1903  0.1841
14762TIP3   OH265776   3.817   3.117   0.524  0.2264 -0.1078 -0.0908
14762TIP3    H165777   3.872   3.160   0.459  0.1223 -1.3126 -1.0061
14762TIP3    H265778   3.878   3.067   0.578  0.0665 -1.6367 -1.2540
14763TIP3   OH265779   4.389   3.509  13.024 -0.0977  0.4940 -0.3000
14763TIP3    H165780   4.310   3.470  13.060  0.7450 -0.3482  0.6947
14763TIP3    H265781   4.368   3.525  12.932 -2.2395  2.5360  0.4465
14764TIP3   OH265782   6.158   5.026   1.432 -0.0096 -0.1285  0.2736
14764TIP3    H165783   6.094   5.092   1.459  0.5752  1.2754 -1.6122
14764TIP3    H265784   6.139   5.010   1.339  0.2036 -2.2779  0.5361
14765TIP3   OH265785   2.484   6.781  11.435 -0.1543  0.2871  0.5975
14765TIP3    H165786   2.565   6.802  11.389 -1.2968  1.2383 -1.0907
14765TIP3    H265787   2.416   6.828  11.387 -1.9413 -1.7727  0.9420
14766TIP3   OH265788   2.528   2.499  12.448 -0.0980 -0.0137 -0.2644
14766TIP3    H165789   2.492   2.415  12.476  1.7333 -0.7789 -0.0742
14766TIP3    H265790   2.462   2.535  12.389 -0.6054 -1.9084 -0.9112
14767TIP3   OH265791   3.401   3.488  10.407  0.1774 -0.1313 -0.0002
14767TIP3    H165792   3.487   3.453  10.381 -0.3599 -0.1813 -1.8504
14767TIP3    H265793   3.417   3.581  10.420  0.4225 -0.0361 -0.8883
14768TIP3   OH265794   1.722   1.633  14.827 -0.1216  0.0795 -0.0723
14768TIP3    H165795   1.668   1.557  14.849 -0.3138  0.0681 -0.5705
14768TIP3    H265796   1.669   1.709  14.851 -1.2351  0.1309 -2.3797
14769TIP3   OH265797   1.082   2.296   6.078 -0.1037  0.3505 -0.2323
14769TIP3    H165798   1.044   2.256   6.156 -1.1258 -1.9226 -1.7893
14769TIP3    H265799   1.119   2.378   6.109 -0.1585 -0.6198  2.6919
14770TIP3   OH265800   5.901   3.607  12.925 -0.1069  0.0295 -0.3613
14770TIP3    H165801   5.849   3.573  12.852  0.3920 -2.1199  0.1896
14770TIP3    H265802   5.840   3.663  12.974 -1.0333 -0.1025 -1.3188
14771TIP3   OH265803   2.258   2.767   1.444 -0.4763  0.5613 -0.0836
14771TIP3    H165804   2.324   2.784   1.377 -1.0906  0.4246 -0.7286
14771TIP3    H265805   2.235   2.854   1.477 -0.3785  0.6493 -0.2448
14772TIP3   OH265806   0.930   3.769   3.474 -0.5018 -0.1317  0.1764
14772TIP3    H165807   0.969   3.852   3.500  0.5629 -0.8423  0.9023
14772TIP3    H265808   0.877   3.743   3.550 -2.6269  0.9104 -0.8572
14773TIP3   OH265809   5.549   4.608   0.943 -0.4398 -0.3307  0.8226
14773TIP3    H165810   5.490   4.535   0.928  1.4946 -1.6528 -0.8081
14773TIP3    H265811   5.600   4.615   0.863  0.1286  2.2045  1.3047
14774TIP3   OH265812   6.584   4.407  16.356  0.1403  0.0909  1.1305
14774TIP3    H165813   6.627   4.383  16.438  0.7081 -1.3827  0.4533
14774TIP3    H265814   6.655   4.433  16.298  0.2246 -2.3390  0.0058
14775TIP3   OH265815   5.218   4.322   5.849 -0.4596 -0.3466  0.2272
14775TIP3    H165816   5.220   4.309   5.944 -0.6839 -0.5057  0.2115
14775TIP3    H265817   5.129   4.297   5.823 -0.2077 -0.9312 -0.1094
14776TIP3   OH265818   2.951   0.930  11.006 -0.2897 -0.2578 -0.1989
14776TIP3    H165819   2.920   0.956  11.093  0.2148 -0.4732  0.0502
14776TIP3    H265820   2.931   0.836  11.001  0.3643 -0.4110 -0.0123
14777TIP3   OH265821   5.477   5.607  13.803  0.6497  0.0751  0.8300
14777TIP3    H165822   5.458   5.521  13.764  2.0302 -0.3297  0.9858
14777TIP3    H265823   5.407   5.621  13.866  0.4701 -1.0009  0.8892
14778TIP3   OH265824   5.819   2.575   2.071 -0.2451  0.2580 -0.4627
14778TIP3    H165825   5.857   2.553   2.156 -2.0447  1.5905  0.7627
14778TIP3    H265826   5.866   2.654   2.043  0.3296 -0.1659 -0.7032
14779TIP3   OH265827   2.864   1.727  13.477  0.3776 -0.1861 -0.3357
14779TIP3    H165828   2.895   1.815  13.459  1.5398 -0.4939  0.0722
14779TIP3    H265829   2.833   1.730  13.568 -0.0324 -0.0861 -0.4762
14780TIP3   OH265830   0.572   5.954   1.649  0.3130  0.2901 -0.2648
14780TIP3    H165831   0.584   6.048   1.665  0.4206 -0.1577  2.9819
14780TIP3    H265832   0.654   5.914   1.679 -1.0667 -1.0689  1.9942
14781TIP3   OH265833   2.527   4.772  10.966  0.4981  0.6660 -0.0696
14781TIP3    H165834   2.467   4.718  11.017  0.7993 -1.0586 -1.4450
14781TIP3    H265835   2.488   4.775  10.879  1.8250  0.4483 -0.6955
14782TIP3   OH265836   2.220   1.302   1.988  0.2107 -0.3887  0.1688
14782TIP3    H165837   2.189   1.336   1.904 -1.1414  0.4938  0.9633
14782TIP3    H265838   2.194   1.369   2.051 -0.1061 -1.6850  1.4700
14783TIP3   OH265839   2.293   3.582   5.095  0.0742 -0.2280 -0.1933
14783TIP3    H165840   2.324   3.585   5.186 -0.0732  0.1477 -0.1559
14783TIP3    H265841   2.319   3.666   5.058 -0.4996 -0.0994 -0.2983
14784TIP3   OH265842   0.154   5.081   6.148 -0.0095  0.0503  0.5427
14784TIP3    H165843   0.076   5.122   6.109 -1.2816 -1.3492  1.4849
14784TIP3    H265844   0.147   5.102   6.241  0.7462 -0.1171  0.6384
14785TIP3   OH265845   1.911   2.735   5.685 -0.4368  0.5109  0.3387
14785TIP3    H165846   1.929   2.806   5.747 -0.2716  1.3646 -0.6457
14785TIP3    H265847   1.992   2.727   5.635 -0.4214 -0.4590  0.5126
14786TIP3   OH265848   4.257   1.850   2.239  0.2923 -0.3638  0.2165
14786TIP3    H165849   4.290   1.831   2.327 -1.1481 -1.5218  0.5529
14786TIP3    H265850   4.169   1.885   2.253  0.4707  0.5196 -0.7375
14787TIP3   OH265851   5.583   5.240  13.324  0.1900 -0.3341 -0.0243
14787TIP3    H165852   5.497   5.282  13.330  0.8351  1.0048  0.1947
14787TIP3    H265853   5.571   5.155  13.367 -0.7242  0.3294  1.0968
14788TIP3   OH265854   6.151   6.266   4.519  0.2603  0.4989 -0.4136
14788TIP3    H165855   6.063   6.300   4.499  0.2693 -0.3894 -2.1277
14788TIP3    H265856   6.137   6.175   4.543  0.7453  0.2069 -1.2015
14789TIP3   OH265857   4.636   2.798  14.816  0.3411 -0.3420 -0.5510
14789TIP3    H165858   4.657   2.874  14.761  1.0961 -1.6984 -2.2365
14789TIP3    H265859   4.547   2.773  14.789  0.4432 -0.5893 -0.6620
14790TIP3   OH265860   0.171   3.263   4.807  0.0455 -0.2919 -0.6799
14790TIP3    H165861   0.262   3.293   4.795  0.6175 -0.2393  2.7490
14790TIP3    H265862   0.178   3.169   4.821 -0.3151 -0.1959  0.2249
14791TIP3   OH265863   4.587   3.767  10.743  0.1866  0.8863 -0.3043
14791TIP3    H165864   4.602   3.767  10.649  2.2297 -0.7706 -0.0338
14791TIP3    H265865   4.559   3.857  10.762  0.4293  1.4535 -2.3630
14792TIP3   OH265866   0.398   1.028  12.288  0.7609  0.6441 -0.0622
14792TIP3    H165867   0.469   1.046  12.350 -0.1614  0.5664  1.0521
14792TIP3    H265868   0.419   1.082  12.212  1.1669  1.9068  0.8931
14793TIP3   OH265869   3.908   5.631   1.911 -0.3705  0.1954 -0.2072
14793TIP3    H165870   3.870   5.719   1.902  0.4038  0.9454  2.8052
14793TIP3    H265871   3.994   5.637   1.869 -0.8680  0.4211 -1.2338
14794TIP3   OH265872   0.747   0.093  15.617  0.4066 -0.0846 -0.2116
14794TIP3    H165873   0.705   0.068  15.535  0.5547  1.0112 -0.6361
14794TIP3    H265874   0.840   0.083  15.601  0.4208 -0.1828 -0.0711
14795TIP3   OH265875   1.483   5.394  12.963  0.0972  0.2687 -0.1953
14795TIP3    H165876   1.448   5.351  12.885  1.5912 -2.0219  0.2990
14795TIP3    H265877   1.407   5.408  13.019 -0.5580 -1.1046 -0.7008
14796TIP3   OH265878   0.631   2.889  14.826 -0.0081  0.2405  0.4029
14796TIP3    H165879   0.716   2.919  14.858  0.6679 -0.7525 -0.3957
14796TIP3    H265880   0.620   2.935  14.742 -0.0820  0.0776  0.3231
14797TIP3   OH265881   2.074   1.239  15.449 -0.0619 -0.3578 -0.3546
14797TIP3    H165882   2.035   1.179  15.513 -0.1242 -0.7137 -0.7238
14797TIP3    H265883   2.053   1.200  15.364  1.5222 -0.8143 -0.5592
14798TIP3   OH265884   3.666   1.244   2.961 -0.2646 -0.2661 -0.3331
14798TIP3    H165885   3.713   1.161   2.948 -0.7148 -0.7523  0.9911
14798TIP3    H265886   3.578   1.217   2.988  0.5953  0.5222  3.9513
14799TIP3   OH265887   4.906   2.519  11.702  0.3894  0.7663 -0.2041
14799TIP3    H165888   4.988   2.534  11.655 -0.3729 -1.1924 -2.4058
14799TIP3    H265889   4.838   2.538  11.637 -0.8222  0.4193  0.9276
14800TIP3   OH265890   2.995   0.302   1.953  0.4061  0.4100 -0.4299
14800TIP3    H165891   2.949   0.218   1.955 -2.2702  1.7990  0.8079
14800TIP3    H265892   3.001   0.328   2.045  0.7192  1.8157 -0.8356
14801TIP3   OH265893   1.591   0.418   1.608  0.2189  0.7586 -0.3291
14801TIP3    H165894   1.657   0.486   1.613  1.2709 -0.1105 -1.8243
14801TIP3    H265895   1.637   0.337   1.630 -0.7351  0.3500  0.2524
14802TIP3   OH265896   5.602   5.230  17.098 -0.3668 -0.0887  0.1995
14802TIP3    H165897   5.693   5.215  17.073 -0.3964  2.8953 -2.2005
14802TIP3    H265898   5.608   5.281  17.179  0.0871 -0.2173  0.2502
14803TIP3   OH265899   0.655   0.436  13.904 -0.3118  0.1313  0.0255
14803TIP3    H165900   0.743   0.418  13.936 -0.3209 -1.7208 -0.8573
14803TIP3    H265901   0.631   0.519  13.945  1.8213  0.6766  0.2955
14804TIP3   OH265902   4.931   0.748   0.482  0.0626  0.0375 -0.2453
14804TIP3    H165903   5.007   0.789   0.523 -0.4766  1.2888 -0.4570
14804TIP3    H265904   4.965   0.710   0.401  0.4596  0.5943 -0.3395
14805TIP3   OH265905   3.072   0.063  10.881  0.4349  0.2433  0.1541
14805TIP3    H165906   3.108   0.055  10.793  1.3208 -2.0068  0.6435
14805TIP3    H265907   2.992   0.010  10.879  1.2333 -1.0808  1.0129
14806TIP3   OH265908   2.491   6.118   3.484  0.5087  0.0719 -0.7613
14806TIP3    H165909   2.409   6.160   3.506 -0.8928 -2.5301 -0.5938
14806TIP3    H265910   2.508   6.143   3.394  1.6522  3.6973  0.2971
14807TIP3   OH265911   1.733   2.163   2.925 -0.1956 -0.1746  0.3213
14807TIP3    H165912   1.826   2.143   2.915  0.0004  1.3036 -1.2016
14807TIP3    H265913   1.694   2.139   2.841 -1.6764 -2.9264  1.6632
14808TIP3   OH265914   3.035   4.396   1.243  0.4132  0.4180 -0.7728
14808TIP3    H165915   3.008   4.433   1.327 -1.4174  0.4436 -1.3258
14808TIP3    H265916   3.100   4.457   1.209  0.5550  0.8458  0.2405
14809TIP3   OH265917   3.549   3.537  10.893  1.0062 -0.6153  0.3765
14809TIP3    H165918   3.621   3.553  10.833 -0.7427 -0.6357 -1.8626
14809TIP3    H265919   3.530   3.624  10.930  1.9843 -0.5702  0.8058
14810TIP3   OH265920   2.237   0.743  10.637 -0.3051 -0.2332 -0.4952
14810TIP3    H165921   2.241   0.833  10.605  0.0019  0.6717  1.8675
14810TIP3    H265922   2.197   0.750  10.724  0.7293 -2.2253  0.2149
14811TIP3   OH265923   3.568   5.402   0.864 -0.2510  0.2097 -0.0599
14811TIP3    H165924   3.629   5.475   0.857 -0.3799  0.2033 -1.5853
14811TIP3    H265925   3.609   5.331   0.815 -0.8775 -0.2178  0.0091
14812TIP3   OH265926   3.745   2.255  13.700  0.0368  0.0030 -0.1708
14812TIP3    H165927   3.654   2.236  13.679 -1.6898  1.0109  5.0213
14812TIP3    H265928   3.755   2.348  13.684 -0.3536  0.1934  0.6643
14813TIP3   OH265929   4.040   0.078   4.251  0.1282 -0.1522  0.0584
14813TIP3    H165930   3.944   0.081   4.259  0.0992 -0.4127 -0.1348
14813TIP3    H265931   4.055   0.014   4.181  0.5041 -1.4394  1.2773
14814TIP3   OH265932   0.553   2.559  12.055 -0.6576 -0.7411  0.6486
14814TIP3    H165933   0.575   2.649  12.078  0.1870 -1.0508  1.1089
14814TIP3    H265934   0.574   2.553  11.961  0.3114 -0.7447  0.8532
14815TIP3   OH265935   1.374   4.253   4.737  0.3122 -0.5983  0.1098
14815TIP3    H165936   1.377   4.182   4.672 -1.7211 -0.8555  0.2315
14815TIP3    H265937   1.309   4.314   4.702  1.2070  0.6571  0.5787
14816TIP3   OH265938   5.816   0.149   0.385 -0.4431 -0.0490  0.5561
14816TIP3    H165939   5.779   0.113   0.305  0.0780  2.8751 -1.1243
14816TIP3    H265940   5.884   0.086   0.411 -0.7903 -1.1696 -1.1079
14817TIP3   OH265941   1.841   5.828   4.518  0.5516  0.0778  0.0484
14817TIP3    H165942   1.915   5.779   4.554  0.7089  0.8373  0.7940
14817TIP3    H265943   1.844   5.912   4.563 -2.0522 -0.6007  1.7920
14818TIP3   OH265944   6.638   1.891  15.898 -0.3483 -0.5659  0.6551
14818TIP3    H165945   6.665   1.803  15.925  0.3436 -0.0250  1.8012
14818TIP3    H265946   6.629   1.939  15.980  0.5078  0.7773 -0.0100
14819TIP3   OH265947   1.376   3.050   3.382 -0.4647  0.2518 -0.2308
14819TIP3    H165948   1.454   3.012   3.424  0.2907  2.0421  0.1096
14819TIP3    H265949   1.411   3.100   3.308 -1.3427  0.7163 -0.3390
14820TIP3   OH265950   0.613   4.429  11.095  0.5805  0.1332  0.2861
14820TIP3    H165951   0.611   4.465  11.007  1.0053 -0.4033  0.0533
14820TIP3    H265952   0.526   4.390  11.107  0.5537  0.1293  0.0776
14821TIP3   OH265953   4.485   0.873   3.492 -0.0670  0.3397 -0.3701
14821TIP3    H165954   4.404   0.821   3.496 -0.2433  0.6517  0.4499
14821TIP3    H265955   4.549   0.816   3.450 -0.4451 -0.2876 -0.1010
14822TIP3   OH265956   5.514   4.064   1.759  0.2410 -0.2095  0.3187
14822TIP3    H165957   5.590   4.008   1.773  2.7536  2.5366 -1.2093
14822TIP3    H265958   5.508   4.073   1.663  0.3446  2.4776  0.4777
14823TIP3   OH265959   3.477   5.938   2.525 -0.1133 -0.3269  0.1411
14823TIP3    H165960   3.414   5.986   2.577 -0.8077 -1.2228  0.1472
14823TIP3    H265961   3.532   6.005   2.485  0.0233  0.3933  1.4977
14824TIP3   OH265962   2.199   3.836  15.290 -0.4302  0.4340 -0.7916
14824TIP3    H165963   2.218   3.916  15.341 -0.6080  0.2378 -0.4105
14824TIP3    H265964   2.203   3.864  15.199  0.7400  0.6104 -0.6987
14825TIP3   OH265965   4.885   6.021   4.864  0.4436  0.3492 -0.3033
14825TIP3    H165966   4.797   6.030   4.900 -0.0464 -0.1793 -1.3447
14825TIP3    H265967   4.906   5.928   4.874  0.4501  0.2674 -1.0169
14826TIP3   OH265968   2.830   3.341   4.650  0.7435  0.6547 -0.1906
14826TIP3    H165969   2.798   3.251   4.662 -0.7222  1.3984  2.0893
14826TIP3    H265970   2.901   3.332   4.586 -2.1400 -1.5049 -3.4565
14827TIP3   OH265971   5.795   1.050  12.301  0.2221  0.0515  0.2271
14827TIP3    H165972   5.873   1.031  12.250  1.0593 -0.2812  1.5770
14827TIP3    H265973   5.781   1.144  12.290  1.2080  0.2419  0.4846
14828TIP3   OH265974   3.719   6.728   1.588  0.4828  0.3730 -0.1206
14828TIP3    H165975   3.634   6.717   1.631  0.6931  0.9347  0.4525
14828TIP3    H265976   3.700   6.713   1.495  0.2394 -1.9240  0.2545
14829TIP3   OH265977   0.629   3.916  11.873  0.0324 -0.3588 -0.0205
14829TIP3    H165978   0.690   3.901  11.945 -0.5905  1.1579  0.8650
14829TIP3    H265979   0.685   3.933  11.797  0.6906 -1.6690  0.1311
14830TIP3   OH265980   6.178   3.421   5.644  0.1434  0.0722 -0.2704
14830TIP3    H165981   6.095   3.450   5.607  0.8888  0.8841 -1.3698
14830TIP3    H265982   6.199   3.484   5.713 -0.0579 -0.0353 -0.1095
14831TIP3   OH265983   6.162   6.773  11.182  0.1333  0.0480 -0.0012
14831TIP3    H165984   6.149   6.735  11.269  1.6928 -0.4478  0.0416
14831TIP3    H265985   6.253   6.800  11.181 -0.0506  0.6963 -1.2540
14832TIP3   OH265986   5.729   1.624  13.134  0.2907 -0.1125 -0.5948
14832TIP3    H165987   5.723   1.615  13.229  1.7611 -1.0499 -0.5635
14832TIP3    H265988   5.742   1.535  13.102  1.5535  0.3821 -1.5131
14833TIP3   OH265989   1.018   2.512   3.431 -0.5665 -1.1074 -0.0515
14833TIP3    H165990   0.961   2.561   3.490  0.7197 -1.1371  1.2953
14833TIP3    H265991   1.018   2.562   3.350 -2.1915 -0.9198  0.0305
14834TIP3   OH265992   1.625   0.711  10.485 -0.0170  0.7031  0.1339
14834TIP3    H165993   1.590   0.699  10.573 -1.4337 -0.9893 -0.6157
14834TIP3    H265994   1.560   0.765  10.440 -1.1200 -1.3133 -0.8517
14835TIP3   OH265995   2.693   6.471   3.624  0.0534  0.2601  0.6106
14835TIP3    H165996   2.614   6.439   3.668 -0.4101  1.9186  1.0758
14835TIP3    H265997   2.669   6.476   3.532  0.4704 -1.6148  0.3623
14836TIP3   OH265998   1.166   0.432  14.769  0.3398 -0.0678 -0.5630
14836TIP3    H165999   1.206   0.383  14.841 -1.2960  1.5579  1.5912
14836TIP3    H266000   1.085   0.385  14.750  1.1162 -0.9191 -1.9459
14837TIP3   OH266001   3.233   2.127  10.811 -0.2807  0.4970  0.1248
14837TIP3    H166002   3.177   2.107  10.736 -1.3784 -1.8059  1.4677
14837TIP3    H266003   3.175   2.166  10.876  0.2526  0.6080  0.5471
14838TIP3   OH266004   2.703   6.240   2.689 -0.0824  0.2705 -0.1291
14838TIP3    H166005   2.714   6.165   2.747  0.1992  1.0449  0.8578
14838TIP3    H266006   2.622   6.223   2.642 -1.2658  0.4160  1.7612
14839TIP3   OH266007   1.314   1.961   3.619 -0.1724  0.0384  0.1213
14839TIP3    H166008   1.383   2.021   3.590 -0.5788  0.7479  0.5815
14839TIP3    H266009   1.235   1.993   3.575 -0.2186 -0.7948 -0.4355
14840TIP3   OH266010   3.323   0.453   5.645  0.0794 -0.2016 -0.4660
14840TIP3    H166011   3.320   0.435   5.739  1.2630  0.8789 -0.1847
14840TIP3    H266012   3.269   0.385   5.605  1.0662 -1.8170  0.8304
14841TIP3   OH266013   0.692   0.865  11.030 -0.2526  0.3627 -0.8748
14841TIP3    H166014   0.679   0.893  11.121  0.0604  0.2825 -0.8020
14841TIP3    H266015   0.678   0.770  11.032 -0.9168  0.4525 -1.0428
14842TIP3   OH266016   2.038   5.255  16.794 -0.2125  0.4602 -0.3752
14842TIP3    H166017   1.950   5.289  16.777 -0.7273 -1.2708 -1.3507
14842TIP3    H266018   2.026   5.161  16.804  0.9002  0.5849  4.0768
14843TIP3   OH266019   6.057   6.051  14.289 -0.4147 -0.3624  0.1608
14843TIP3    H166020   6.060   6.038  14.194 -1.2639  0.6024 -0.0110
14843TIP3    H266021   5.964   6.056  14.309 -0.3627 -2.6099  1.3618
14844TIP3   OH266022   1.803   6.467  15.637 -0.6758  0.1043  0.0582
14844TIP3    H166023   1.867   6.537  15.646 -1.0550  0.2842  1.5821
14844TIP3    H266024   1.856   6.390  15.616 -0.0630  0.4514  0.2938
14845TIP3   OH266025   4.714   2.857   0.195  0.3953 -0.1158 -0.5685
14845TIP3    H166026   4.647   2.808   0.147 -1.2822  0.0921  1.3981
14845TIP3    H266027   4.791   2.801   0.194 -0.2909 -1.0821 -1.5621
14846TIP3   OH266028   4.906   6.741   4.592 -0.6356 -0.0398  0.7371
14846TIP3    H166029   4.981   6.777   4.640  1.3175 -1.3212 -1.1992
14846TIP3    H266030   4.916   6.646   4.599 -0.7929 -0.2592 -1.3841
14847TIP3   OH266031   6.148   5.476  10.567  0.0238  0.4016 -0.3309
14847TIP3    H166032   6.116   5.488  10.657  0.5471 -1.9377  0.2415
14847TIP3    H266033   6.243   5.488  10.574  0.1838 -0.7555 -0.3378
14848TIP3   OH266034   4.642   0.099  12.718  0.5296 -0.4229 -0.0067
14848TIP3    H166035   4.559   0.144  12.707  0.7509 -0.1681 -0.6690
14848TIP3    H266036   4.632   0.016  12.672  1.1960  0.3186 -1.5418
14849TIP3   OH266037   4.527   3.404  16.759  0.1481  0.4034  0.6194
14849TIP3    H166038   4.500   3.366  16.843  0.5808  0.0199  0.5931
14849TIP3    H266039   4.601   3.350  16.732 -1.7253 -1.3419 -1.4166
14850TIP3   OH266040   3.450   5.749   4.190 -0.1622  0.2311 -0.3832
14850TIP3    H166041   3.366   5.742   4.144 -0.1166 -1.0449 -0.3175
14850TIP3    H266042   3.443   5.686   4.262  2.0256 -2.5208 -2.3281
14851TIP3   OH266043   0.377   5.500  14.799  0.2151 -0.4450 -0.8402
14851TIP3    H166044   0.389   5.433  14.730  2.4686 -1.8581  0.7957
14851TIP3    H266045   0.422   5.464  14.875 -0.7557  1.8379  0.9189
14852TIP3   OH266046   4.748   1.317  17.092  0.2132 -0.9620  0.1265
14852TIP3    H166047   4.793   1.352  17.168  0.8605 -1.1671 -0.1563
14852TIP3    H266048   4.667   1.279  17.126 -0.4148  0.6092  0.4734
14853TIP3   OH266049   6.360   5.239  14.972 -0.1091 -0.1235  0.0132
14853TIP3    H166050   6.370   5.152  14.934  0.7445 -0.2370  0.4634
14853TIP3    H266051   6.284   5.277  14.928  0.5598 -0.4317 -1.4544
14854TIP3   OH266052   2.986   1.042  17.126 -0.5100  0.1354 -0.4542
14854TIP3    H166053   3.065   1.054  17.180 -1.1943 -0.0926  0.6327
14854TIP3    H266054   2.915   1.076  17.181 -1.3929 -1.2950 -0.6826
14855TIP3   OH266055   5.668   4.579   0.698  0.2991  0.3016 -0.0422
14855TIP3    H166056   5.665   4.483   0.696  2.0811  0.2224 -1.6201
14855TIP3    H266057   5.638   4.606   0.612 -0.7432  1.2244  0.5829
14856TIP3   OH266058   0.397   4.928   1.537 -0.2324 -0.3744 -0.0544
14856TIP3    H166059   0.432   5.007   1.578 -1.3726  0.8791 -1.3648
14856TIP3    H266060   0.377   4.869   1.610  2.7179 -0.4036  0.8410
14857TIP3   OH266061   2.419   3.242   0.071 -0.1150  0.0901 -0.4116
14857TIP3    H166062   2.348   3.256   0.008 -0.6583 -1.8111 -0.3010
14857TIP3    H266063   2.497   3.228   0.018 -0.3285 -0.2868 -0.6276
14858TIP3   OH266064   4.805   5.757  10.920  0.2658 -0.3633 -0.4457
14858TIP3    H166065   4.798   5.674  10.872  0.0805 -1.9454  2.1341
14858TIP3    H266066   4.714   5.781  10.939  0.3790 -0.5288  0.3282
14859TIP3   OH266067   6.262   5.108   6.423  0.0912  0.0938  0.0617
14859TIP3    H166068   6.339   5.162   6.438  0.1432  0.1675 -0.4605
14859TIP3    H266069   6.189   5.159   6.459  0.5080 -0.8454  2.4423
14860TIP3   OH266070   1.539   1.858  11.899 -0.0459  0.3178  0.0716
14860TIP3    H166071   1.472   1.925  11.897 -0.6615 -0.3024 -0.3102
14860TIP3    H266072   1.611   1.894  11.847  0.7516  1.8159  2.0513
14861TIP3   OH266073   2.589   2.028  16.135  0.1430  0.4408  0.4438
14861TIP3    H166074   2.505   2.061  16.167 -0.7237 -0.1977 -1.0663
14861TIP3    H266075   2.617   2.091  16.069 -0.7498 -0.9145 -1.3180
14862TIP3   OH266076   0.494   6.493  14.283  1.0507  0.3547 -0.5112
14862TIP3    H166077   0.552   6.507  14.357 -0.8147 -0.9963  1.3173
14862TIP3    H266078   0.477   6.581  14.249  1.9773  0.9973  0.6218
14863TIP3   OH266079   0.972   3.418  14.729 -0.4885  0.0424  0.9710
14863TIP3    H166080   0.973   3.484  14.660 -1.6895  1.1843  2.0077
14863TIP3    H266081   1.033   3.451  14.795 -0.7671 -0.0924  1.3023
14864TIP3   OH266082   4.805   2.200   4.144 -0.0617 -0.1033 -0.0135
14864TIP3    H166083   4.883   2.176   4.194  0.1917 -1.0151 -0.7950
14864TIP3    H266084   4.840   2.236   4.062 -0.4223 -1.3945 -0.7727
14865TIP3   OH266085   2.645   0.264   2.634  0.2687 -0.3029  0.0976
14865TIP3    H166086   2.661   0.177   2.597 -1.5384 -0.8613  0.5339
14865TIP3    H266087   2.719   0.280   2.692  1.0496 -1.1650 -0.6237
14866TIP3   OH266088   6.204   6.208   4.085 -0.5447  0.7755  0.0726
14866TIP3    H166089   6.154   6.136   4.122 -1.5303  0.6963 -1.3427
14866TIP3    H266090   6.196   6.279   4.149 -0.9501  0.1659  0.6995
14867TIP3   OH266091   3.398   2.645   3.109  0.6165  0.1710 -0.5648
14867TIP3    H166092   3.344   2.681   3.179 -0.5273 -3.3071  0.5678
14867TIP3    H266093   3.466   2.595   3.155  0.4521 -1.3630 -1.8964
14868TIP3   OH266094   0.149   1.905  10.652  0.1399 -0.2895 -0.4482
14868TIP3    H166095   0.145   1.886  10.746 -0.3679  1.2130 -0.1506
14868TIP3    H266096   0.148   1.819  10.611  1.2595 -1.0168  0.9419
14869TIP3   OH266097   0.660   1.585   5.091  0.2578 -0.0485 -0.0630
14869TIP3    H166098   0.622   1.543   5.168  2.3742 -3.9235 -0.8561
14869TIP3    H266099   0.591   1.578   5.024  0.2870 -1.8696  0.0364
14870TIP3   OH266100   3.771   1.802   1.943 -0.0237 -0.5226 -0.0718
14870TIP3    H166101   3.737   1.856   2.014  2.4623 -0.5301  1.2632
14870TIP3    H266102   3.760   1.855   1.864  1.1348  1.4215  1.0102
14871TIP3   OH266103   5.389   1.532  10.769  0.0577 -0.3071 -0.7532
14871TIP3    H166104   5.313   1.589  10.763 -0.6146 -1.3164 -3.0976
14871TIP3    H266105   5.459   1.580  10.724  0.2044 -0.2687 -0.4842
14872TIP3   OH266106   5.913   4.463   3.481  0.0719  0.0727  0.2576
14872TIP3    H166107   5.865   4.417   3.412 -1.9500 -0.9353  2.2100
14872TIP3    H266108   5.936   4.548   3.442 -0.1254 -0.8308 -1.9475
14873TIP3   OH266109   1.228   2.401   3.122  0.2833  0.3113 -0.5143
14873TIP3    H166110   1.265   2.441   3.043 -0.9564  0.8714 -0.8399
14873TIP3    H266111   1.289   2.424   3.192  0.2559  1.7282 -0.9248
14874TIP3   OH266112   5.745   6.697   4.241 -0.0834 -0.0030 -0.0320
14874TIP3    H166113   5.768   6.790   4.238 -0.6597  0.2033  1.1948
14874TIP3    H266114   5.691   6.683   4.163 -0.4520  0.8262  0.0630
14875TIP3   OH266115   0.134   5.493   5.595 -0.0737 -0.0398 -0.4128
14875TIP3    H166116   0.161   5.527   5.680  1.1797 -1.0065 -0.3898
14875TIP3    H266117   0.069   5.556   5.563 -0.4882  0.3948  1.1982
14876TIP3   OH266118   5.254   4.680  15.592 -0.0393 -0.1530 -0.0520
14876TIP3    H166119   5.288   4.616  15.529 -0.3135 -1.0325  0.6756
14876TIP3    H266120   5.241   4.760  15.540  0.0208 -0.7741 -1.0497
14877TIP3   OH266121   5.605   6.822  15.970  0.6320  0.1998  0.4148
14877TIP3    H166122   5.607   6.915  15.948  0.6403  0.2300  0.5402
14877TIP3    H266123   5.685   6.787  15.932  1.5202  0.5828  1.8307
14878TIP3   OH266124   0.333   0.794   0.349  0.5085  0.5361 -0.4902
14878TIP3    H166125   0.292   0.752   0.425  0.2527  0.2299 -0.7925
14878TIP3    H266126   0.268   0.858   0.320  0.6742  0.7659 -0.3541
14879TIP3   OH266127   6.458   3.798   3.171 -0.1003  0.3966 -0.7014
14879TIP3    H166128   6.491   3.886   3.157  0.6012  0.3593  0.5491
14879TIP3    H266129   6.409   3.803   3.253  1.6820 -0.7641  0.5288
14880TIP3   OH266130   0.666   2.395  12.708  0.6208 -0.2838 -0.0322
14880TIP3    H166131   0.598   2.381  12.773  1.5028 -0.2805  0.9032
14880TIP3    H266132   0.739   2.341  12.736  1.7684  1.2888  0.1507
14881TIP3   OH266133   3.394   2.293   2.022  0.0061 -0.3103 -0.4306
14881TIP3    H166134   3.468   2.288   1.962  0.1300 -1.6228 -0.1991
14881TIP3    H266135   3.434   2.294   2.109 -0.2313 -1.8163 -0.2739
14882TIP3   OH266136   3.097   5.260  17.144  0.6460  0.3795  0.4444
14882TIP3    H166137   3.082   5.177  17.188  2.0267 -0.1430 -0.0218
14882TIP3    H266138   3.016   5.310  17.158 -0.1744 -1.0060  0.7729
14883TIP3   OH266139   3.200   2.517   2.930 -0.1046  0.0696 -0.4214
14883TIP3    H166140   3.217   2.579   2.859 -1.8591  1.2649  0.1165
14883TIP3    H266141   3.264   2.538   2.997  0.8154 -0.2969 -1.1585
14884TIP3   OH266142   0.460   4.898  14.775 -0.3683  0.2284 -0.3183
14884TIP3    H166143   0.526   4.835  14.805  0.1163  0.5670 -0.6525
14884TIP3    H266144   0.444   4.873  14.684  0.3763  1.0396 -0.6812
14885TIP3   OH266145   4.266   5.520   4.995 -0.7705 -0.4568  0.0381
14885TIP3    H166146   4.188   5.537   5.048  0.3176 -0.4156  1.7253
14885TIP3    H266147   4.302   5.607   4.977  0.3168 -0.5227  1.6178
14886TIP3   OH266148   3.548   3.234  14.838  0.4005 -0.4357  0.1052
14886TIP3    H166149   3.620   3.237  14.901  1.0057 -1.5879 -0.5025
14886TIP3    H266150   3.470   3.250  14.890  0.9991 -0.1641  0.9405
14887TIP3   OH266151   3.543   1.696   2.102  0.6194  0.5305 -0.6012
14887TIP3    H166152   3.504   1.738   2.025 -0.6463  0.0486 -0.2328
14887TIP3    H266153   3.530   1.759   2.173  0.7854  0.4961 -0.5402
14888TIP3   OH266154   2.177   5.677  13.133  0.3235  0.0744  0.5695
14888TIP3    H166155   2.146   5.607  13.076  1.2645 -1.0439  1.3692
14888TIP3    H266156   2.104   5.695  13.192  0.1998 -0.5150  0.6020
14889TIP3   OH266157   3.113   2.478   2.264 -0.1184 -0.3701 -0.2949
14889TIP3    H166158   3.091   2.570   2.252 -0.4536 -0.1626  1.6188
14889TIP3    H266159   3.157   2.474   2.349 -0.9031 -2.0637  0.0909
14890TIP3   OH266160   4.264   4.543  16.279  0.3161  0.4422  0.5020
14890TIP3    H166161   4.184   4.582  16.314 -0.5806 -0.3774 -0.5449
14890TIP3    H266162   4.282   4.468  16.335 -1.8069 -1.6084 -1.3401
14891TIP3   OH266163   6.821   1.771   1.792 -0.5675 -0.4163 -0.3152
14891TIP3    H166164   6.796   1.756   1.883 -0.3033 -3.3851 -0.6251
14891TIP3    H266165   6.909   1.808   1.797 -1.3461  1.4068  0.6161
14892TIP3   OH266166   3.752   1.645  16.780 -0.1168  0.8710 -0.1299
14892TIP3    H166167   3.760   1.695  16.861  0.7354  0.1418  0.2431
14892TIP3    H266168   3.817   1.575  16.787 -0.9465 -0.0167 -0.8514
14893TIP3   OH266169   4.357   6.506   2.793  0.7012  0.4364 -0.2580
14893TIP3    H166170   4.338   6.555   2.713  3.4177  0.4400 -1.0019
14893TIP3    H266171   4.375   6.574   2.858 -1.8451  0.4433  0.5608
14894TIP3   OH266172   2.349   6.029  16.132 -0.4177 -0.3000  0.1898
14894TIP3    H166173   2.337   6.088  16.058  1.4533  0.6826  0.5926
14894TIP3    H266174   2.342   6.086  16.209  0.4172 -0.7757  0.6282
14895TIP3   OH266175   6.411   2.595   0.233  0.3048  0.0624 -0.4326
14895TIP3    H166176   6.382   2.528   0.296  0.1289 -1.5768 -2.1570
14895TIP3    H266177   6.338   2.656   0.227  0.8280  1.0059  1.8767
14896TIP3   OH266178   6.800   2.772   3.915 -0.3671  0.4487 -0.0212
14896TIP3    H166179   6.866   2.816   3.862  0.8027 -1.1752  0.0034
14896TIP3    H266180   6.851   2.721   3.978 -1.7126  1.4410  1.9561
14897TIP3   OH266181   2.357   0.961  13.887  0.0684 -0.5873  0.1822
14897TIP3    H166182   2.358   0.926  13.976  1.2840  0.1361  0.4692
14897TIP3    H266183   2.327   1.051  13.898  3.0403  0.4995  0.2976
14898TIP3   OH266184   6.612   1.422   3.959 -0.0882 -0.4159  0.5653
14898TIP3    H166185   6.555   1.498   3.948 -0.1820 -0.5216  0.3288
14898TIP3    H266186   6.553   1.352   3.987  0.0159 -0.3727  0.9070
14899TIP3   OH266187   2.757   4.871  13.311  0.2023 -0.3778 -0.9833
14899TIP3    H166188   2.726   4.950  13.355  1.2203 -0.7195  0.4100
14899TIP3    H266189   2.677   4.821  13.294 -0.2298 -0.2270  0.5004
14900TIP3   OH266190   1.245   6.782   2.013  0.0483 -0.1254 -0.1125
14900TIP3    H166191   1.176   6.835   2.054 -0.0409 -0.9855  0.8980
14900TIP3    H266192   1.208   6.693   2.009  0.4242 -0.2538 -1.2240
14901TIP3   OH266193   1.642   6.511   4.158 -0.7855 -0.1191 -0.2389
14901TIP3    H166194   1.676   6.422   4.156 -0.8622 -0.1436 -0.5389
14901TIP3    H266195   1.550   6.500   4.182 -0.4759 -0.0190  1.0310
14902TIP3   OH266196   0.760   3.647  13.888 -0.2260 -0.3623  0.3655
14902TIP3    H166197   0.765   3.657  13.983  0.0643  0.8553  0.2489
14902TIP3    H266198   0.845   3.680  13.857 -1.4073  2.1004 -0.4854
14903TIP3   OH266199   0.572   6.225   0.776  0.4022 -0.0489  0.0178
14903TIP3    H166200   0.547   6.209   0.867  1.4520  2.8451  0.9081
14903TIP3    H266201   0.491   6.253   0.733  0.7337  3.4235  1.3904
14904TIP3   OH266202   6.793   0.468  16.930  0.0928 -0.4072 -0.6628
14904TIP3    H166203   6.814   0.492  17.020  2.0630 -0.5631 -1.0381
14904TIP3    H266204   6.818   0.545  16.879 -0.0542 -0.7024 -1.1850
14905TIP3   OH266205   0.998   3.440  12.823 -0.0230  0.5343 -0.2276
14905TIP3    H166206   0.923   3.492  12.796  0.0937  1.2754  0.8032
14905TIP3    H266207   1.000   3.449  12.918 -1.3332 -3.1769  0.3270
14906TIP3   OH266208   2.798   4.203  15.036 -0.1241  0.3160 -0.0349
14906TIP3    H166209   2.807   4.108  15.023  0.5506  0.0685  1.8288
14906TIP3    H266210   2.707   4.222  15.012 -0.1487 -0.7238 -0.8460
14907TIP3   OH266211   1.788   3.511   2.353 -0.2110 -0.0703  0.0118
14907TIP3    H166212   1.868   3.536   2.307  0.3214 -0.0170  0.9488
14907TIP3    H266213   1.795   3.416   2.361 -0.1362 -0.0414  0.2863
14908TIP3   OH266214   1.351   3.382   0.075  0.0888 -0.2012  0.8679
14908TIP3    H166215   1.324   3.322   0.006  0.5316  0.5687  0.0021
14908TIP3    H266216   1.286   3.452   0.073  0.4030  0.0944  0.8643
14909TIP3   OH266217   3.245   4.758  11.865 -0.1170 -0.4011  0.8889
14909TIP3    H166218   3.171   4.800  11.822 -1.3169 -2.0998  1.1791
14909TIP3    H266219   3.243   4.792  11.955 -0.8114 -0.7169  1.0034
14910TIP3   OH266220   4.541   0.002  15.653  0.1642 -0.3717  0.2653
14910TIP3    H166221   4.489   0.069  15.697 -0.3166 -0.6274  0.0957
14910TIP3    H266222   4.540   0.028  15.561  1.5748  0.4296  0.4549
14911TIP3   OH266223   3.602   0.060  14.120 -0.0952  0.1245 -0.0146
14911TIP3    H166224   3.552  -0.021  14.108 -0.6052  0.4551 -0.1745
14911TIP3    H266225   3.651   0.070  14.039  3.1344 -2.1110  1.4548
14912TIP3   OH266226   2.295   4.683   2.156 -0.4519  0.0445  0.3664
14912TIP3    H166227   2.242   4.705   2.232 -1.4029  1.0302 -0.5466
14912TIP3    H266228   2.233   4.645   2.094  0.1149  0.2034 -0.3089
14913TIP3   OH266229   0.934   2.441  15.970 -0.4176 -0.0582  0.0442
14913TIP3    H166230   0.857   2.449  16.028 -0.6933 -2.0772  0.0342
14913TIP3    H266231   0.934   2.349  15.944  4.6970 -1.5769  3.8803
14914TIP3   OH266232   2.678   1.241  11.916 -0.0653  0.4678 -0.4550
14914TIP3    H166233   2.653   1.245  12.008  0.6172  1.3653 -0.2957
14914TIP3    H266234   2.700   1.331  11.892  0.1012  0.1957 -1.4021
14915TIP3   OH266235   1.114   5.974   2.304 -0.1309 -0.0578 -0.1937
14915TIP3    H166236   1.200   6.007   2.330 -0.3137  2.4670 -2.3441
14915TIP3    H266237   1.130   5.883   2.279  1.7057  0.0832  0.3017
14916TIP3   OH266238   1.707   3.433  15.574  0.3953  0.2831 -0.4603
14916TIP3    H166239   1.746   3.347  15.588 -1.3750 -0.5849 -0.5358
14916TIP3    H266240   1.699   3.470  15.662 -0.9538 -0.6421 -0.1700
14917TIP3   OH266241   0.973   6.043  11.935  0.4235 -0.1908  0.1278
14917TIP3    H166242   0.956   5.957  11.898  0.7097 -1.0991  1.9619
14917TIP3    H266243   0.914   6.049  12.011  0.8150  0.9906  0.3710
14918TIP3   OH266244   1.269   1.033  14.784 -0.2465 -0.3738 -1.1164
14918TIP3    H166245   1.246   1.123  14.762  0.7655 -0.0546 -0.9104
14918TIP3    H266246   1.193   0.982  14.755 -1.6163  0.7055  0.3597
14919TIP3   OH266247   6.451   3.091   1.218 -0.4233 -0.5609  0.1102
14919TIP3    H166248   6.418   3.014   1.171 -0.0946 -1.8057  1.8227
14919TIP3    H266249   6.380   3.155   1.212 -0.4994 -0.7728 -1.7787
14920TIP3   OH266250   4.117   6.596   0.290 -0.2912 -0.1268 -0.1421
14920TIP3    H166251   4.028   6.620   0.264 -0.3420 -0.9317 -0.7560
14920TIP3    H266252   4.126   6.504   0.265 -0.0939 -0.7787  2.0993
14921TIP3   OH266253   5.437   5.023  16.427 -0.8817  0.1137  0.6968
14921TIP3    H166254   5.462   4.934  16.452  2.8676  0.9959  0.5841
14921TIP3    H266255   5.439   5.072  16.509  0.5374  0.7470  0.3154
14922TIP3   OH266256   0.860   4.528   0.620  0.0159 -0.1180  0.7232
14922TIP3    H166257   0.764   4.528   0.616 -0.0840 -2.5472  1.2880
14922TIP3    H266258   0.880   4.573   0.702 -0.6209  0.6520  0.4713
14923TIP3   OH266259   0.625   0.863  14.290  0.1556 -0.0992  0.0812
14923TIP3    H166260   0.591   0.919  14.360  1.7078  0.3385  0.5279
14923TIP3    H266261   0.613   0.774  14.323  0.6870  0.0980  0.8373
14924TIP3   OH266262   6.422   5.943   3.097  0.5824  0.4079  0.3704
14924TIP3    H166263   6.374   6.025   3.106 -1.8971 -1.1679  4.1892
14924TIP3    H266264   6.386   5.903   3.018 -1.4333  1.1405  0.8568
14925TIP3   OH266265   5.990   6.152   0.808 -0.0294 -0.4145 -0.2002
14925TIP3    H166266   6.066   6.124   0.757  0.1703  0.1725 -0.2368
14925TIP3    H266267   5.925   6.084   0.794  1.2746 -2.1943  1.7175
14926TIP3   OH266268   3.604   4.952  16.988  0.1564 -0.0106  0.6556
14926TIP3    H166269   3.604   5.009  16.911 -1.4623 -0.6811  0.1034
14926TIP3    H266270   3.659   4.878  16.963  0.4813  0.2655  0.5427
14927TIP3   OH266271   4.779   0.196   3.685 -0.0570 -0.0276 -0.2841
14927TIP3    H166272   4.764   0.283   3.724 -1.5579 -0.7300  0.8432
14927TIP3    H266273   4.726   0.137   3.739 -0.7611 -1.3446 -2.2983
14928TIP3   OH266274   5.412   6.599   3.691 -0.5653  0.3868 -0.5698
14928TIP3    H166275   5.428   6.684   3.733  0.8075  0.0489 -0.3571
14928TIP3    H266276   5.425   6.536   3.762  2.8933 -0.2826 -1.6150
14929TIP3   OH266277   1.945   0.254  16.161  0.0195  0.6738 -0.1898
14929TIP3    H166278   1.896   0.205  16.094 -0.3912 -0.2059  0.7318
14929TIP3    H266279   1.878   0.303  16.209  0.3488  1.5673 -0.6124
14930TIP3   OH266280   1.458   6.743  13.112  0.9619  0.2156  0.4455
14930TIP3    H166281   1.394   6.700  13.169  0.7517  0.8070  0.6630
14930TIP3    H266282   1.540   6.740  13.161  0.9844 -0.0686  0.3946
14931TIP3   OH266283   6.272   5.189  11.477 -0.2229  0.6067  0.5821
14931TIP3    H166284   6.193   5.134  11.480  1.0991 -1.3880  1.3347
14931TIP3    H266285   6.263   5.238  11.395 -0.6233 -2.2294 -1.2578
14932TIP3   OH266286   3.974   4.357  12.202  0.0138  0.3402  0.2202
14932TIP3    H166287   3.993   4.420  12.133  0.8385 -0.2565 -0.1090
14932TIP3    H266288   4.010   4.396  12.282 -1.8716  1.5270  0.5554
14933TIP3   OH266289   6.175   2.135  13.183 -0.6229 -0.6180  0.0473
14933TIP3    H166290   6.109   2.085  13.134 -0.7243 -1.4989  1.0628
14933TIP3    H266291   6.151   2.123  13.275  0.5070 -0.2985  0.3934
14934TIP3   OH266292   5.241   5.843  12.898  0.0888  0.1346 -0.0279
14934TIP3    H166293   5.148   5.867  12.900 -0.0299 -0.3344  0.2704
14934TIP3    H266294   5.263   5.837  12.805 -0.9225 -2.5548 -0.1494
14935TIP3   OH266295   2.122   0.908  11.437  0.1199  0.8213  0.1145
14935TIP3    H166296   2.162   0.871  11.359 -0.6719  1.1564 -0.4573
14935TIP3    H266297   2.155   0.998  11.441  0.3553  0.7294  0.3151
14936TIP3   OH266298   6.032   2.955  12.224  0.3277  0.4024  0.4794
14936TIP3    H166299   6.025   3.037  12.175 -3.6832  1.7239  2.7503
14936TIP3    H266300   6.051   2.983  12.314  2.1413 -1.5279  0.7900
14937TIP3   OH266301   1.082   6.072   4.090  0.0124  0.0519  0.3742
14937TIP3    H166302   1.084   6.157   4.046  1.6491 -1.1991 -2.1872
14937TIP3    H266303   1.154   6.075   4.152  1.0366  0.0691 -0.7725
14938TIP3   OH266304   5.255   4.282   1.063 -0.4176  0.1159 -0.0705
14938TIP3    H166305   5.286   4.325   1.143 -0.5554  0.4288 -0.1831
14938TIP3    H266306   5.335   4.259   1.016 -0.3272 -0.4056  0.3313
14939TIP3   OH266307   0.091   2.077   5.975  0.2840  0.0267  0.1902
14939TIP3    H166308   0.166   2.099   5.920 -0.4482 -0.9738 -1.2467
14939TIP3    H266309   0.032   2.152   5.966  0.3618  0.0634 -0.0018
14940TIP3   OH266310   2.476   2.294  13.830 -0.1649  0.1946  0.0578
14940TIP3    H166311   2.431   2.352  13.769 -1.0237  2.9710  3.0251
14940TIP3    H266312   2.559   2.337  13.848  0.2890 -0.8173  0.4764
14941TIP3   OH266313   1.962   1.052  10.813 -0.4560 -0.4825  0.0207
14941TIP3    H166314   1.920   1.135  10.833  0.6718 -0.1463  1.1269
14941TIP3    H266315   1.895   0.986  10.831 -1.3261  0.1651 -0.7855
14942TIP3   OH266316   3.318   3.542   3.407 -0.1469 -0.4319 -0.4994
14942TIP3    H166317   3.334   3.606   3.337  1.5763 -2.4170 -2.0374
14942TIP3    H266318   3.257   3.479   3.369  1.1186 -1.7549 -0.4142
14943TIP3   OH266319   1.872   1.472   6.537  0.4825  0.7326  0.4576
14943TIP3    H166320   1.923   1.433   6.608  0.6723 -1.1055 -0.6329
14943TIP3    H266321   1.813   1.403   6.509 -0.4355  1.8275 -0.3904
14944TIP3   OH266322   3.716   4.248   1.754 -0.1269  0.0396  0.4881
14944TIP3    H166323   3.660   4.288   1.820 -0.1093 -0.6491  0.9353
14944TIP3    H266324   3.765   4.181   1.802  0.0480 -0.3204 -0.1776
14945TIP3   OH266325   4.460   5.471  15.883  0.2992  0.1771  0.0387
14945TIP3    H166326   4.538   5.521  15.908  1.1695 -0.2864 -1.5703
14945TIP3    H266327   4.429   5.431  15.964  2.0271  0.0028  0.6507
14946TIP3   OH266328   2.654   5.997  12.359  0.1398 -0.1206 -0.6057
14946TIP3    H166329   2.732   5.992  12.414 -0.4817  0.0793  0.3167
14946TIP3    H266330   2.687   5.982  12.271  1.1810 -0.3349 -0.2061
14947TIP3   OH266331   6.659   6.365   0.184  0.1598  0.5720  1.0297
14947TIP3    H166332   6.588   6.330   0.238 -0.7516  0.1359 -0.4013
14947TIP3    H266333   6.700   6.289   0.144  1.4408  0.8252  1.8195
14948TIP3   OH266334   5.212   2.876  17.079 -0.3074  0.5616  0.4164
14948TIP3    H166335   5.274   2.839  17.016 -0.3947  2.0943 -0.6046
14948TIP3    H266336   5.209   2.969  17.058 -0.4010  1.1114  2.6608
14949TIP3   OH266337   1.153   1.182  13.894 -0.7763  0.2361 -0.4635
14949TIP3    H166338   1.226   1.242  13.911 -1.5863  1.6615 -1.7327
14949TIP3    H266339   1.178   1.101  13.938  0.3252  1.5189  1.4269
14950TIP3   OH266340   2.129   2.246  12.614 -0.5567  0.3135  0.2776
14950TIP3    H166341   2.051   2.226  12.563 -0.3464  1.1831 -0.4049
14950TIP3    H266342   2.095   2.286  12.694 -0.8344 -0.0323  0.3387
14951TIP3   OH266343   3.459   3.327  11.752 -0.2294 -0.0289 -0.2250
14951TIP3    H166344   3.474   3.327  11.658 -1.0547  1.0416 -0.3696
14951TIP3    H266345   3.440   3.236  11.773  1.1639 -0.5066 -0.8696
14952TIP3   OH266346   4.052   3.607   2.489 -0.4979  0.1081  0.4828
14952TIP3    H166347   4.019   3.593   2.577 -0.4980 -0.2594  0.4250
14952TIP3    H266348   3.975   3.635   2.439 -1.0681 -2.1842  0.0011
14953TIP3   OH266349   1.543   2.177  16.257  0.2491  0.1753  0.4350
14953TIP3    H166350   1.533   2.237  16.331 -0.9845  1.9664 -1.0997
14953TIP3    H266351   1.473   2.202  16.196  0.2536 -2.2519 -0.6920
14954TIP3   OH266352   1.574   4.096   3.608  0.4505  0.5633 -0.8792
14954TIP3    H166353   1.659   4.062   3.635 -0.0526 -0.2063 -0.2366
14954TIP3    H266354   1.568   4.073   3.515  0.4077 -0.5480 -0.6217
14955TIP3   OH266355   6.045   4.683  12.564  0.2849  0.1933 -0.5076
14955TIP3    H166356   6.043   4.611  12.502  1.6442  0.2037 -0.5950
14955TIP3    H266357   6.125   4.731  12.543 -0.7619  1.9450 -0.6713
14956TIP3   OH266358   3.479   4.111   4.964  0.0284 -0.1304 -0.5257
14956TIP3    H166359   3.448   4.063   5.041 -0.0742  0.3260 -0.2797
14956TIP3    H266360   3.564   4.073   4.945 -0.1859 -0.6234 -0.5199
14957TIP3   OH266361   4.726   6.716   4.925  0.9481  0.2081 -0.3037
14957TIP3    H166362   4.732   6.623   4.903  1.7075 -0.4971  2.4862
14957TIP3    H266363   4.803   6.734   4.980 -1.1828  1.3781  2.5907
14958TIP3   OH266364   4.957   1.248  11.435  0.1605 -0.0520  0.0523
14958TIP3    H166365   4.867   1.221  11.415 -0.0803  1.1205 -0.5184
14958TIP3    H266366   4.949   1.340  11.461  1.1214 -0.1195  0.6049
14959TIP3   OH266367   5.780   1.631   5.330  0.0769  0.4854  0.1861
14959TIP3    H166368   5.760   1.692   5.401  0.4228 -1.0825  1.7123
14959TIP3    H266369   5.856   1.582   5.361 -0.4896 -1.0594 -0.7264
14960TIP3   OH266370   1.242   6.689  13.712  0.2951 -0.7202  0.0481
14960TIP3    H166371   1.208   6.771  13.749  0.6181 -0.6778  0.2562
14960TIP3    H266372   1.196   6.680  13.629  1.0793  0.2763 -0.5251
14961TIP3   OH266373   4.343   3.853   2.330 -0.0349 -0.2551 -0.1752
14961TIP3    H166374   4.276   3.785   2.328  0.0340 -0.3870  1.3471
14961TIP3    H266375   4.344   3.887   2.241 -3.1133  0.7174  0.0605
14962TIP3   OH266376   3.368   4.335  11.067 -0.6468 -0.6316 -0.0179
14962TIP3    H166377   3.434   4.269  11.043 -0.8610 -0.5650 -0.8277
14962TIP3    H266378   3.333   4.364  10.983 -0.4862  0.5960  0.3294
14963TIP3   OH266379   1.339   5.235  13.416  0.1322  0.1387  0.8414
14963TIP3    H166380   1.256   5.227  13.368 -0.3002 -1.1905  1.7684
14963TIP3    H266381   1.313   5.255  13.506  0.9624  4.3262  0.3754
14964TIP3   OH266382   0.509   2.055  13.214  0.2119 -0.2348  0.0571
14964TIP3    H166383   0.605   2.065  13.211  0.0007  2.3962 -0.6500
14964TIP3    H266384   0.486   2.025  13.126  0.3326 -0.3135  0.0512
14965TIP3   OH266385   3.803   4.910  16.028 -0.0031  0.5107  0.0174
14965TIP3    H166386   3.737   4.944  16.088 -0.4767  1.5472 -1.0467
14965TIP3    H266387   3.878   4.968  16.040  0.1635  0.2718  0.1301
14966TIP3   OH266388   3.018   5.256   0.791  0.3717  0.0299 -0.4916
14966TIP3    H166389   2.982   5.168   0.775  0.3586  0.1573 -1.2161
14966TIP3    H266390   2.941   5.310   0.808  0.3764 -0.0920 -0.0831
14967TIP3   OH266391   2.185   3.239  14.962 -0.1559  0.6953 -0.2569
14967TIP3    H166392   2.172   3.334  14.959 -0.6102  0.6173 -0.8351
14967TIP3    H266393   2.276   3.229  14.990 -0.2686  1.2884  0.3742
14968TIP3   OH266394   2.707   0.682  16.230 -0.0673 -0.0329  0.0078
14968TIP3    H166395   2.678   0.596  16.259 -0.5202 -0.5240 -1.7723
14968TIP3    H266396   2.802   0.678  16.230 -0.0757 -1.0408 -1.3501
14969TIP3   OH266397   2.164   2.942   0.931  0.1772 -0.2042 -0.1601
14969TIP3    H166398   2.113   2.914   1.007 -2.4749  1.2733 -1.2773
14969TIP3    H266399   2.224   3.009   0.965  0.1515 -0.6946  0.8753
14970TIP3   OH266400   6.698   0.987  13.103  0.1849  0.0419 -0.0769
14970TIP3    H166401   6.773   0.995  13.044 -0.2845  0.9243 -0.5723
14970TIP3    H266402   6.691   1.072  13.146  0.4382 -0.5451  1.1826
14971TIP3   OH266403   3.133   5.749  14.185 -0.5384  0.3197  0.0365
14971TIP3    H166404   3.053   5.776  14.229 -0.9330  0.8119 -0.9486
14971TIP3    H266405   3.165   5.828  14.143  1.0755  0.3927  1.3036
14972TIP3   OH266406   6.328   1.262   0.325 -0.6196 -0.1603  0.0136
14972TIP3    H166407   6.354   1.286   0.414 -0.1876 -1.2898  0.2042
14972TIP3    H266408   6.404   1.284   0.271 -0.6114 -0.1511  0.0287
14973TIP3   OH266409   2.628   4.159  15.473 -0.5256  0.6319 -0.1903
14973TIP3    H166410   2.647   4.236  15.525 -1.2002  1.2776 -0.8648
14973TIP3    H266411   2.549   4.122  15.513 -0.8115  0.9023 -0.4891
14974TIP3   OH266412   6.483   1.744  15.326  0.2989  0.2086 -0.0459
14974TIP3    H166413   6.468   1.652  15.346 -1.2113  0.2125 -0.9916
14974TIP3    H266414   6.404   1.788  15.356  0.6986  1.0971 -0.2562
14975TIP3   OH266415   2.374   0.426  12.241  0.9851 -0.4421  0.2681
14975TIP3    H166416   2.320   0.433  12.162  0.6132  1.3381  0.6372
14975TIP3    H266417   2.463   0.414  12.208  0.7800 -0.1265 -0.4188
14976TIP3   OH266418   4.755   3.371   2.169  0.3564  0.5679  0.1086
14976TIP3    H166419   4.724   3.327   2.090 -0.0979 -0.0410  0.6097
14976TIP3    H266420   4.850   3.368   2.162  0.3219  1.0304 -0.6853
14977TIP3   OH266421   4.777   2.579   4.781 -0.4675 -0.2923 -0.3638
14977TIP3    H166422   4.842   2.648   4.795 -0.5561 -0.6153  2.0857
14977TIP3    H266423   4.716   2.617   4.718  0.7581  0.9416 -0.8690
14978TIP3   OH266424   1.441   1.491   0.877  0.1737 -0.2750  0.2775
14978TIP3    H166425   1.474   1.580   0.895  0.3035 -0.3512  0.4150
14978TIP3    H266426   1.409   1.496   0.787  2.0765 -0.6383 -0.4624
14979TIP3   OH266427   3.793   0.724  11.245 -0.7258 -0.0013 -0.2818
14979TIP3    H166428   3.799   0.817  11.265  0.4303  0.0309 -0.6816
14979TIP3    H266429   3.827   0.717  11.155  0.0546 -0.9069  0.0628
14980TIP3   OH266430   4.604   5.139  14.615 -0.0086  1.1496  0.3841
14980TIP3    H166431   4.571   5.182  14.536 -2.3497  0.6368  1.0289
14980TIP3    H266432   4.564   5.188  14.687 -2.3145 -1.6283  1.1579
14981TIP3   OH266433   3.385   3.475  15.290 -0.5976  0.4970 -0.2702
14981TIP3    H166434   3.338   3.393  15.274 -0.6211  0.3685  0.4265
14981TIP3    H266435   3.340   3.539  15.235 -0.2852 -0.0471 -1.1795
14982TIP3   OH266436   3.673   0.207   5.693 -0.0311 -0.0077 -0.4995
14982TIP3    H166437   3.616   0.259   5.750 -0.9097  0.0064 -1.3674
14982TIP3    H266438   3.614   0.171   5.626  1.0355  0.3254 -1.6485
14983TIP3   OH266439   2.983   2.129   5.592 -0.1226  0.0179 -0.1931
14983TIP3    H166440   2.985   2.035   5.573  0.7013  0.1769 -0.9516
14983TIP3    H266441   2.967   2.170   5.507 -0.8752  0.5625  0.1951
14984TIP3   OH266442   1.693   5.803   3.689  0.1511 -0.0251 -0.0051
14984TIP3    H166443   1.757   5.816   3.619  0.2181 -0.0335  0.0538
14984TIP3    H266444   1.698   5.710   3.710 -0.5481 -0.2102 -0.6333
14985TIP3   OH266445   2.403   2.936   5.517 -0.6529  0.0827  0.0745
14985TIP3    H166446   2.416   2.853   5.471 -0.6420 -0.3586  0.8724
14985TIP3    H266447   2.340   2.917   5.586 -0.6621  0.7399  0.2574
14986TIP3   OH266448   5.001   1.307  12.832 -0.4826  0.1726 -0.4125
14986TIP3    H166449   4.944   1.297  12.908  1.4470  0.0922  1.1018
14986TIP3    H266450   5.024   1.217  12.807 -0.3179  0.2296 -0.4690
14987TIP3   OH266451   2.622   0.084  14.290 -0.0332  0.2237 -0.5448
14987TIP3    H166452   2.630   0.164  14.239  2.2244  0.2823 -0.1957
14987TIP3    H266453   2.694   0.028  14.258 -0.7582 -1.1427  0.1196
14988TIP3   OH266454   4.926   1.224   4.940  0.2489 -0.5123  0.3941
14988TIP3    H166455   4.900   1.304   4.986  1.4350  0.8143 -1.1312
14988TIP3    H266456   5.010   1.200   4.980  0.4466 -0.3403  0.0841
14989TIP3   OH266457   6.667   3.751  16.611 -0.4590 -0.0489  0.6486
14989TIP3    H166458   6.718   3.700  16.674 -1.7138 -0.4380  1.3871
14989TIP3    H266459   6.720   3.830  16.596 -0.0285 -0.0348  2.0623
14990TIP3   OH266460   3.690   3.096  11.619  0.4864  0.3806  0.3062
14990TIP3    H166461   3.655   3.074  11.706  1.0342 -2.3372 -0.0679
14990TIP3    H266462   3.757   3.161  11.636  0.7698 -0.2937  1.9889
14991TIP3   OH266463   6.473   6.586  16.536 -0.0675 -0.1960  0.7436
14991TIP3    H166464   6.463   6.667  16.485  0.6875  0.1699  1.1581
14991TIP3    H266465   6.561   6.591  16.572  0.3270 -1.6392  0.0449
14992TIP3   OH266466   2.653   2.055   1.347  0.4878  0.1836 -0.8992
14992TIP3    H166467   2.688   2.076   1.433 -1.3551 -0.7146  0.1346
14992TIP3    H266468   2.623   2.139   1.312 -0.7937  0.2788  0.3388
14993TIP3   OH266469   0.795   1.465   4.070  0.6869  0.2188  0.1489
14993TIP3    H166470   0.793   1.416   4.152 -0.5237 -0.1189 -0.0658
14993TIP3    H266471   0.741   1.414   4.009 -1.7187  2.3465  0.2845
14994TIP3   OH266472   2.743   1.586   2.808 -0.0979 -0.8570 -0.2910
14994TIP3    H166473   2.731   1.634   2.726 -1.4026 -0.1841  0.2570
14994TIP3    H266474   2.669   1.525   2.811 -2.7373  2.0589  2.2984
14995TIP3   OH266475   0.423   1.014  15.383 -0.1423 -0.2460 -0.3910
14995TIP3    H166476   0.413   0.919  15.383  0.7660 -0.3506  0.4880
14995TIP3    H266477   0.514   1.029  15.409  0.9020  0.7682 -4.0504
14996TIP3   OH266478   3.856   6.009   6.135  0.1389 -0.3687  0.0506
14996TIP3    H166479   3.950   6.009   6.152  0.5283 -1.5482 -1.8282
14996TIP3    H266480   3.847   6.051   6.049 -1.0144 -0.6723  0.0059
14997TIP3   OH266481   5.542   3.768   1.317  0.3153  0.0912 -0.2986
14997TIP3    H166482   5.482   3.707   1.273  1.3077 -0.4018 -0.9998
14997TIP3    H266483   5.627   3.725   1.313  0.3622 -0.3010  2.7827
14998TIP3   OH266484   2.034   5.897  13.303 -0.3446  0.0194  1.1439
14998TIP3    H166485   2.055   5.818  13.353 -0.0513 -0.3402  0.4627
14998TIP3    H266486   2.097   5.962  13.334  0.0770 -0.3050  0.9785
14999TIP3   OH266487   0.520   6.833  14.421  0.2242  0.7429  0.2498
14999TIP3    H166488   0.439   6.870  14.457  0.3574  1.2808  0.0023
14999TIP3    H266489   0.587   6.855  14.486  0.0641 -0.2905  0.7890
15000TIP3   OH266490   5.808   0.484  14.705  0.1194 -0.3940 -0.1286
15000TIP3    H166491   5.712   0.488  14.707  0.0521 -1.3833 -0.6915
15000TIP3    H266492   5.831   0.504  14.614  0.6537  2.6821  0.5476
15001TIP3   OH266493   0.211   0.224  13.473 -0.1931 -0.3497  0.0271
15001TIP3    H166494   0.215   0.318  13.490 -0.2696 -0.6250  1.7194
15001TIP3    H266495   0.149   0.215  13.401  2.3499  1.1363 -2.5199
15002TIP3   OH266496   5.770   5.674   4.542 -0.1169 -0.0639  0.1509
15002TIP3    H166497   5.734   5.748   4.492 -0.2460 -1.0704 -1.3084
15002TIP3    H266498   5.715   5.600   4.517  1.8021 -1.2659 -0.7140
15003TIP3   OH266499   4.072   0.347  11.403  0.1989  0.3927  0.3849
15003TIP3    H166500   3.987   0.390  11.391  0.1876  0.7391  1.5191
15003TIP3    H266501   4.111   0.345  11.316  0.2167  2.7944  0.2629
15004TIP3   OH266502   3.920   2.567   1.746  0.4016 -0.4257  0.0024
15004TIP3    H166503   3.953   2.641   1.796  2.2454 -1.4796  0.4349
15004TIP3    H266504   3.927   2.595   1.655  0.0877  0.2868  0.1850
15005TIP3   OH266505   1.115   4.009   3.287  0.4642  0.7036 -0.2003
15005TIP3    H166506   1.048   4.030   3.353  2.3701  1.1265  1.7112
15005TIP3    H266507   1.098   3.917   3.266 -0.0345  0.4612  1.1143
15006TIP3   OH266508   3.170   6.463  11.183 -0.1055 -0.0601  0.1972
15006TIP3    H166509   3.210   6.513  11.254  1.4006  0.8323 -1.2012
15006TIP3    H266510   3.218   6.380  11.182 -1.4805 -0.9227  1.4471
15007TIP3   OH266511   1.738   3.407  11.236 -0.4475  0.4779 -0.2361
15007TIP3    H166512   1.720   3.431  11.326 -2.1747 -1.5015  0.0024
15007TIP3    H266513   1.652   3.400  11.195  0.1874 -0.9168 -1.4053
15008TIP3   OH266514   6.837   3.486   4.939  0.7502 -0.8648  0.2574
15008TIP3    H166515   6.852   3.579   4.923 -1.4415 -0.4702  0.0771
15008TIP3    H266516   6.905   3.441   4.888  1.5693  0.6203 -0.0161
15009TIP3   OH266517   1.153   1.758  12.206  0.1840  0.2357  0.1681
15009TIP3    H166518   1.178   1.721  12.122 -1.0256  0.1140 -0.1521
15009TIP3    H266519   1.207   1.837  12.214  0.7003 -0.0417 -0.4605
15010TIP3   OH266520   0.740   1.835   4.087 -0.0801 -0.2280 -0.0942
15010TIP3    H166521   0.671   1.896   4.112 -0.0948  0.3299 -1.4017
15010TIP3    H266522   0.777   1.873   4.007  2.6663  0.2266  1.2764
15011TIP3   OH266523   0.042   3.218   5.758  0.0034 -0.2527 -0.0274
15011TIP3    H166524   0.046   3.252   5.848  0.8410  0.3515 -0.2795
15011TIP3    H266525  -0.051   3.219   5.737 -0.1020  0.8541  0.3838
15012TIP3   OH266526   0.340   1.794  14.717 -0.3498  0.1943  0.2626
15012TIP3    H166527   0.379   1.791  14.630 -2.1231 -0.2330 -0.5745
15012TIP3    H266528   0.346   1.885  14.743 -0.7249  0.5320 -0.7721
15013TIP3   OH266529   2.013   2.835   2.670 -0.5031  0.7342 -0.5521
15013TIP3    H166530   2.078   2.771   2.700 -0.7023  1.0857  0.6554
15013TIP3    H266531   2.026   2.839   2.575  0.0466 -0.5082 -0.5509
15014TIP3   OH266532   5.286   2.553  16.525 -0.3956 -0.1102  0.5437
15014TIP3    H166533   5.301   2.465  16.562  2.0603 -0.6206 -1.4282
15014TIP3    H266534   5.374   2.588  16.511 -1.3270  2.5351  0.8328
15015TIP3   OH266535   0.252   6.362  14.697  0.4631 -0.1146 -0.4901
15015TIP3    H166536   0.277   6.277  14.661 -0.4099 -0.4994 -0.2266
15015TIP3    H266537   0.301   6.368  14.779  0.6899 -0.2763 -0.6138
15016TIP3   OH266538   5.498   6.816   2.295 -0.2915  0.4533  0.3572
15016TIP3    H166539   5.510   6.908   2.317  0.3543  0.5269 -0.2687
15016TIP3    H266540   5.467   6.816   2.205 -0.3013  0.0568  0.3572
15017TIP3   OH266541   1.107   2.438  11.331 -0.7080  0.8797 -0.0654
15017TIP3    H166542   1.076   2.460  11.243 -0.9061  1.0541  0.0477
15017TIP3    H266543   1.087   2.515  11.384 -2.8214 -0.1264  0.6890
15018TIP3   OH266544   1.513   4.933   0.427 -0.1029  0.2137 -0.1649
15018TIP3    H166545   1.505   4.845   0.463 -1.5282  0.2826 -0.2547
15018TIP3    H266546   1.607   4.947   0.418  0.2506 -0.3828  2.0711
15019TIP3   OH266547   3.007   5.511   4.808 -0.5257 -0.1559 -0.2577
15019TIP3    H166548   2.957   5.500   4.888  0.9090  0.7511  0.8045
15019TIP3    H266549   2.972   5.590   4.768 -1.5747 -0.8757 -0.8228
15020TIP3   OH266550   3.253   0.502   3.715 -0.0330 -0.5047 -0.2545
15020TIP3    H166551   3.344   0.521   3.692 -0.3532  0.2918 -0.9245
15020TIP3    H266552   3.214   0.588   3.732 -0.4573 -0.9014  0.8446
15021TIP3   OH266553   6.505   0.686   2.900  0.1995 -0.0952 -0.4776
15021TIP3    H166554   6.499   0.686   2.996 -0.2191  0.3171 -0.5018
15021TIP3    H266555   6.540   0.772   2.879  1.5250 -0.6439 -0.6298
15022TIP3   OH266556   5.669   1.141  15.449  0.0457 -0.5427  0.1461
15022TIP3    H166557   5.607   1.075  15.479 -0.9178 -0.9107 -2.4638
15022TIP3    H266558   5.726   1.095  15.388  0.5437  0.6093 -0.2860
15023TIP3   OH266559   0.661   1.899  14.274 -0.7539  0.1766 -0.2606
15023TIP3    H166560   0.705   1.983  14.263 -0.7175  0.2902  0.7028
15023TIP3    H266561   0.643   1.869  14.185  0.6888  0.4375 -0.6490
15024TIP3   OH266562   0.750   1.246  14.412  0.0951  0.3503 -0.1325
15024TIP3    H166563   0.797   1.291  14.341 -0.7491  0.7929 -0.4264
15024TIP3    H266564   0.660   1.241  14.381  0.1633 -1.6312 -0.1521
15025TIP3   OH266565   6.210   4.187  15.528  0.2033  0.1843  0.2611
15025TIP3    H166566   6.184   4.110  15.579 -0.9609  0.4868  0.1463
15025TIP3    H266567   6.297   4.209  15.562 -0.1082 -0.2359  1.4056
15026TIP3   OH266568   2.013   6.590  13.114  0.7691 -0.4667 -0.4512
15026TIP3    H166569   2.047   6.641  13.041  0.1624 -0.4769 -0.7491
15026TIP3    H266570   2.008   6.500  13.081  3.0208 -0.9906  0.4684
15027TIP3   OH266571   4.708   3.449   1.334  0.0487  0.0984 -0.7072
15027TIP3    H166572   4.670   3.403   1.409 -0.1162  0.6448 -0.4532
15027TIP3    H266573   4.794   3.479   1.365 -0.9796  2.4366  0.1071
15028TIP3   OH266574   3.704   6.310  12.889  0.4582 -0.2278  0.5648
15028TIP3    H166575   3.691   6.282  12.980  1.2540  0.5076  0.9181
15028TIP3    H266576   3.788   6.272  12.864  0.8709  0.6416  0.5804
15029TIP3   OH266577   4.613   4.274  15.409 -0.3534  0.9647 -0.0438
15029TIP3    H166578   4.550   4.297  15.340 -0.0582 -0.2109 -0.7423
15029TIP3    H266579   4.579   4.317  15.488 -1.9203  0.5502 -0.4572
15030TIP3   OH266580   0.641   5.852  16.885  0.4080  0.0827 -0.0050
15030TIP3    H166581   0.648   5.856  16.789 -2.0812  5.0698 -0.2922
15030TIP3    H266582   0.721   5.894  16.917  0.0955  0.7283 -0.0605
15031TIP3   OH266583   6.612   1.563  12.147  0.2319 -0.4455  0.7563
15031TIP3    H166584   6.642   1.516  12.068  0.3096  0.1833  0.4064
15031TIP3    H266585   6.522   1.587  12.127 -0.2444 -1.5763  1.4623
15032TIP3   OH266586   5.193   4.073  12.092 -0.0696  0.0906 -0.3604
15032TIP3    H166587   5.159   3.992  12.055  0.6872 -0.1521 -0.5252
15032TIP3    H266588   5.201   4.055  12.186  0.3864 -0.1325 -0.4389
15033TIP3   OH266589   4.320   5.210  14.709 -0.6074 -0.2571  0.6364
15033TIP3    H166590   4.373   5.227  14.787  2.4449  1.7003 -1.6467
15033TIP3    H266591   4.279   5.293  14.689  0.8032  0.0382 -1.2531
15034TIP3   OH266592   3.493   1.184   6.521 -0.7255 -0.1856  0.0741
15034TIP3    H166593   3.424   1.138   6.472 -1.7041  0.1833  1.0759
15034TIP3    H266594   3.463   1.275   6.525  0.5132  0.2753 -0.6685
15035TIP3   OH266595   6.251   4.065  11.698  0.7820 -0.1945 -0.1793
15035TIP3    H166596   6.291   3.992  11.745  1.2702  0.7240  0.9062
15035TIP3    H266597   6.319   4.133  11.699  0.1484  0.4614 -0.6809
15036TIP3   OH266598   2.335   1.647   5.218 -0.0284  0.1407 -0.3173
15036TIP3    H166599   2.313   1.639   5.126 -0.0686  0.5019 -0.3391
15036TIP3    H266600   2.279   1.583   5.262  1.3701 -1.4345 -0.7415
15037TIP3   OH266601   0.170   3.487  13.774 -0.3008 -0.4891  0.4536
15037TIP3    H166602   0.096   3.518  13.827 -1.1682 -0.9459 -0.4629
15037TIP3    H266603   0.194   3.403  13.812  0.6779  0.2702  1.6137
15038TIP3   OH266604   4.181   1.341  12.633  0.4224  0.1526 -0.2345
15038TIP3    H166605   4.168   1.381  12.547  0.5453  0.1584 -0.2502
15038TIP3    H266606   4.238   1.266  12.616  1.4159  0.8390  0.0191
15039TIP3   OH266607   5.629   3.862  10.923 -0.0018 -0.4167 -0.3431
15039TIP3    H166608   5.584   3.943  10.899 -0.4739 -0.9991 -1.5227
15039TIP3    H266609   5.594   3.840  11.010 -1.3853 -0.3973 -0.8659
15040TIP3   OH266610   5.981   0.772  13.205  0.4382 -0.2245 -0.7004
15040TIP3    H166611   5.925   0.727  13.142 -0.3378 -0.2679  0.0042
15040TIP3    H266612   5.989   0.861  13.170 -1.3401  0.2270 -0.0436
15041TIP3   OH266613   6.414   5.790   2.823 -0.1456 -0.0502 -0.3769
15041TIP3    H166614   6.365   5.850   2.766  0.4114  0.2475 -0.5598
15041TIP3    H266615   6.503   5.825   2.822 -0.0781 -0.1779  0.5072
15042TIP3   OH266616   6.195   3.296  13.712 -0.2093  0.3930 -0.1595
15042TIP3    H166617   6.268   3.269  13.768 -0.8829  0.5748  0.8395
15042TIP3    H266618   6.151   3.215  13.689 -1.7948  0.4583  2.2333
15043TIP3   OH266619   4.660   4.549  13.961  0.1728 -0.5609 -0.5958
15043TIP3    H166620   4.702   4.463  13.961 -0.1617 -0.7388  0.2829
15043TIP3    H266621   4.580   4.537  14.013  1.3916  0.8283  1.8249
15044TIP3   OH266622   3.469   5.058   1.442  0.0961 -0.0830 -0.0190
15044TIP3    H166623   3.548   5.112   1.432  0.3647 -0.1935  1.3819
15044TIP3    H266624   3.444   5.036   1.352  0.7354  1.2798 -0.5644
15045TIP3   OH266625   5.098   5.876   4.365  0.1427  0.0721 -0.4604
15045TIP3    H166626   5.006   5.902   4.360 -0.6738 -2.1544  1.3960
15045TIP3    H266627   5.111   5.816   4.292  0.0383  0.1635 -0.5533
15046TIP3   OH266628   6.806   5.177   5.043  0.0756 -0.2267 -0.1773
15046TIP3    H166629   6.781   5.190   4.951 -0.0042  0.5536 -0.0567
15046TIP3    H266630   6.754   5.241   5.091  0.1962 -0.5588  0.4043
15047TIP3   OH266631   3.539   5.507  16.149  0.0510 -0.3234  0.3299
15047TIP3    H166632   3.534   5.513  16.053 -0.8690  0.5172  0.4185
15047TIP3    H266633   3.626   5.539  16.170 -0.0839  0.4099 -0.1731
15048TIP3   OH266634   6.336   1.754  14.489 -0.5203 -0.6908 -0.5211
15048TIP3    H166635   6.282   1.771  14.412 -0.8361 -0.6959 -0.3044
15048TIP3    H266636   6.424   1.780  14.463 -0.7581  0.0337 -0.6326
15049TIP3   OH266637   6.621   2.295   1.854 -0.7247  0.5206 -0.0024
15049TIP3    H166638   6.590   2.306   1.763 -0.2122 -0.5566 -0.3188
15049TIP3    H266639   6.716   2.304   1.848 -0.3999 -2.1175 -0.0403
15050TIP3   OH266640   0.812   2.582   1.341  0.0176  0.2956 -0.1780
15050TIP3    H166641   0.769   2.605   1.423  1.7275  2.1956  0.2507
15050TIP3    H266642   0.806   2.661   1.287  1.9478  0.2649 -0.5086
15051TIP3   OH266643   5.500   2.061  13.296 -0.4031 -0.3905 -0.3434
15051TIP3    H166644   5.445   2.078  13.220 -1.0592 -2.9410 -0.5497
15051TIP3    H266645   5.440   2.020  13.359  0.7438 -0.9935  0.3828
15052TIP3   OH266646   5.247   5.326   3.753 -0.5333 -0.6392 -0.0920
15052TIP3    H166647   5.244   5.307   3.847 -0.1767  0.1028  0.0706
15052TIP3    H266648   5.223   5.243   3.712  2.0357 -1.8195  0.5734
15053TIP3   OH266649   2.486   2.935  15.124  0.6235 -0.0307 -0.4560
15053TIP3    H166650   2.443   2.962  15.205 -0.0015 -0.5147 -0.6131
15053TIP3    H266651   2.416   2.937  15.058  1.1473  0.4627 -1.0079
15054TIP3   OH266652   0.245   5.011   1.787 -0.3724 -0.6941  0.1057
15054TIP3    H166653   0.160   4.971   1.803 -1.5403  1.0112 -1.3866
15054TIP3    H266654   0.308   4.940   1.797 -1.9837 -2.0437  1.0506
15055TIP3   OH266655   1.648   4.349  11.812  0.1382 -0.1931  0.2910
15055TIP3    H166656   1.694   4.298  11.878  0.9914  0.8629  0.5410
15055TIP3    H266657   1.578   4.394  11.860 -0.1100 -0.4913  0.2142
15056TIP3   OH266658   1.455   5.509   5.584  0.1651 -0.1795 -0.2528
15056TIP3    H166659   1.392   5.523   5.654 -0.1692  0.0372 -0.5900
15056TIP3    H266660   1.403   5.468   5.514  0.3062  0.3741 -0.6845
15057TIP3   OH266661   6.700   2.017  13.331 -0.3134 -0.4146 -0.4144
15057TIP3    H166662   6.693   2.106  13.297  0.2795  0.1094  0.7487
15057TIP3    H266663   6.610   1.985  13.336 -0.8285  1.1273  1.6395
15058TIP3   OH266664   0.913   6.502  16.698 -0.5081 -0.3131 -0.1058
15058TIP3    H166665   0.925   6.596  16.709 -0.7683  0.1012 -2.6806
15058TIP3    H266666   0.862   6.493  16.617  0.7612 -2.6793 -0.7561
15059TIP3   OH266667   5.829   4.742  12.734 -0.1175  0.1276 -0.1778
15059TIP3    H166668   5.917   4.717  12.704 -0.0899 -0.7525  0.6001
15059TIP3    H266669   5.814   4.828  12.694  0.0698 -0.7938 -2.4202
15060TIP3   OH266670   1.279   0.940  11.806 -0.2717 -0.4141 -0.4940
15060TIP3    H166671   1.236   0.948  11.721  1.0372  0.0812 -1.1430
15060TIP3    H266672   1.260   0.851  11.835  1.7062 -1.7046 -2.7413
15061TIP3   OH266673   2.309   1.244   4.412  0.4383  0.0084 -0.4083
15061TIP3    H166674   2.354   1.161   4.426 -0.0727 -0.3035 -0.6049
15061TIP3    H266675   2.285   1.243   4.319 -1.5261 -0.6136  0.0697
15062TIP3   OH266676   6.221   5.773   6.027  0.5164 -0.1880 -0.5883
15062TIP3    H166677   6.217   5.677   6.024  1.0752 -0.2040 -1.0408
15062TIP3    H266678   6.146   5.802   5.976  0.4291 -0.3873 -0.5727
15063TIP3   OH266679   3.937   0.189   6.203  0.5310  0.5135 -0.0574
15063TIP3    H166680   3.977   0.134   6.270 -0.5227 -1.1559 -0.7347
15063TIP3    H266681   3.942   0.136   6.123  0.3470  1.8155 -0.9585
15064TIP3   OH266682   3.516   6.340   5.032  0.1607 -0.2415  0.1861
15064TIP3    H166683   3.522   6.394   4.953 -1.2611 -0.8334 -0.3578
15064TIP3    H266684   3.431   6.297   5.025  0.2844 -0.7909  1.7414
15065TIP3   OH266685   2.852   2.626  12.134 -0.4186 -0.3868  0.2213
15065TIP3    H166686   2.930   2.668  12.097 -1.1793  0.9505  0.0808
15065TIP3    H266687   2.887   2.553  12.185  0.8574 -0.4591 -0.6946
15066TIP3   OH266688   1.041   1.259   0.539 -0.4243  0.6272  0.9434
15066TIP3    H166689   1.022   1.335   0.485  1.1360  0.6471  0.3665
15066TIP3    H266690   1.076   1.295   0.620  0.3919  0.5510  0.6386
15067TIP3   OH266691   0.390   3.093   5.707  0.2385  0.0790 -0.0756
15067TIP3    H166692   0.465   3.144   5.737  1.0156 -0.1742 -1.4951
15067TIP3    H266693   0.316   3.154   5.710  1.3862  1.8051 -3.0803
15068TIP3   OH266694   2.039   3.080  14.531 -0.0989 -0.0796 -0.4136
15068TIP3    H166695   2.134   3.097  14.532  0.1862 -1.5895  0.1283
15068TIP3    H266696   2.008   3.110  14.616 -0.0409  0.0204 -0.4270
15069TIP3   OH266697   3.325   2.089  13.116 -0.1791 -0.0370 -0.2754
15069TIP3    H166698   3.306   2.169  13.066 -0.8286 -0.6676 -1.0548
15069TIP3    H266699   3.310   2.114  13.207 -2.4354  0.1977 -0.6450
15070TIP3   OH266700   6.403   3.732  16.749 -0.5019  0.5984  0.1832
15070TIP3    H166701   6.368   3.643  16.749  0.5679  0.1575 -0.0274
15070TIP3    H266702   6.489   3.723  16.708  0.0126  1.5677  1.0149
15071TIP3   OH266703   0.909   1.702  14.288  0.0970 -0.2067 -0.1303
15071TIP3    H166704   0.890   1.792  14.313 -0.2327 -0.6320  1.2213
15071TIP3    H266705   0.870   1.649  14.358  0.0912 -1.4086 -1.0108
15072TIP3   OH266706   5.633   5.399  11.291 -0.6901  0.2504  0.3117
15072TIP3    H166707   5.719   5.440  11.279  0.2101 -0.6854  2.9354
15072TIP3    H266708   5.576   5.446  11.230  1.2426  2.2768 -0.0695
15073TIP3   OH266709   2.435   5.624   4.379  0.2788  0.4273  0.3075
15073TIP3    H166710   2.412   5.717   4.373 -0.2069  0.3576  0.9857
15073TIP3    H266711   2.477   5.605   4.295  0.5369  1.2979  0.2221
15074TIP3   OH266712   4.466   2.745  13.414  0.4427 -0.1451  0.0497
15074TIP3    H166713   4.458   2.696  13.332 -2.4356 -0.2444  0.2862
15074TIP3    H266714   4.509   2.684  13.474 -1.0933 -1.6410 -0.2905
15075TIP3   OH266715   5.608   3.148  16.086 -0.3673  0.2186 -0.3849
15075TIP3    H166716   5.674   3.150  16.017  1.4489 -1.0184  1.2357
15075TIP3    H266717   5.588   3.240  16.102 -0.9689  0.5501 -2.6014
15076TIP3   OH266718   5.046   4.959  12.831  0.2702  0.0324  0.0817
15076TIP3    H166719   5.130   4.998  12.807  0.2088  0.1604  0.0771
15076TIP3    H266720   5.006   5.023  12.890  0.4161 -0.2706  0.5238
15077TIP3   OH266721   0.649   0.607  12.611 -0.7487 -0.3321 -0.1916
15077TIP3    H166722   0.571   0.555  12.592 -0.9308 -0.4456  0.8191
15077TIP3    H266723   0.691   0.562  12.684 -1.3702  1.3831  1.2943
15078TIP3   OH266724   3.471   2.269  15.483  0.0108 -0.5729 -0.2274
15078TIP3    H166725   3.440   2.257  15.394 -3.5873  0.8969  0.6492
15078TIP3    H266726   3.421   2.205  15.535  2.2739 -1.6514  0.7996
15079TIP3   OH266727   5.977   5.048  14.851 -0.1477  0.1492  0.2143
15079TIP3    H166728   6.017   4.971  14.812  2.4497  2.2316 -1.6061
15079TIP3    H266729   5.889   5.051  14.813 -1.0987 -2.8859  1.8953
15080TIP3   OH266730   4.213   2.704  14.069  0.0966 -0.3808  0.5901
15080TIP3    H166731   4.262   2.781  14.095 -1.4291 -0.1561  3.1086
15080TIP3    H266732   4.271   2.658  14.008  1.7388  1.8230  0.3782
15081TIP3   OH266733   5.717   1.156   1.009  0.0610 -0.1848 -0.4435
15081TIP3    H166734   5.628   1.147   0.974  0.1855 -0.2593 -0.7477
15081TIP3    H266735   5.768   1.089   0.961  0.7297  1.2168 -1.7775
15082TIP3   OH266736   6.347   2.909   3.489  0.0320  1.0638  0.4133
15082TIP3    H166737   6.266   2.880   3.447 -0.5617 -0.8679  2.6585
15082TIP3    H266738   6.411   2.911   3.419 -0.8118 -2.2939 -0.6297
15083TIP3   OH266739   2.189   5.470   3.760 -0.2217 -0.2183 -0.1093
15083TIP3    H166740   2.231   5.553   3.781  0.1985 -0.5595  0.4397
15083TIP3    H266741   2.244   5.432   3.691  0.1315 -0.4715  0.3101
15084TIP3   OH266742   4.217   6.718  14.860 -0.2562  0.2203 -1.0585
15084TIP3    H166743   4.153   6.716  14.789  0.4415  0.1454 -1.6975
15084TIP3    H266744   4.293   6.763  14.823  0.5666 -0.8578 -0.7505
15085TIP3   OH266745   1.231   3.198  14.727  0.0349  0.4222 -0.3026
15085TIP3    H166746   1.312   3.193  14.675  0.2321 -0.1532  0.0485
15085TIP3    H266747   1.243   3.274  14.783  0.3902  0.2664 -0.1636
15086TIP3   OH266748   2.739   0.258   0.248 -1.1041 -0.0291  0.4650
15086TIP3    H166749   2.732   0.310   0.169  1.0875  0.0809  0.3038
15086TIP3    H266750   2.769   0.319   0.315 -1.7115 -0.4015  1.1012
15087TIP3   OH266751   2.159   3.712  11.600 -0.3334 -0.0121  0.0745
15087TIP3    H166752   2.080   3.741  11.554 -1.0651  0.8109  1.7740
15087TIP3    H266753   2.223   3.695  11.530 -1.6358  0.4074 -1.2667
15088TIP3   OH266754   0.052   5.402   3.981 -0.0731  0.2699  1.0190
15088TIP3    H166755   0.086   5.460   4.049  0.8872  0.7076  0.2048
15088TIP3    H266756  -0.017   5.353   4.023  1.4092 -0.4781  2.7052
15089TIP3   OH266757   0.661   6.704   0.005 -0.3230  0.4368  0.4448
15089TIP3    H166758   0.696   6.779   0.053  1.8828 -0.6266  0.6449
15089TIP3    H266759   0.621   6.649   0.072 -0.9050  0.8635  0.4564
15090TIP3   OH266760   2.618   0.076  13.274  0.2033 -0.0719  0.3303
15090TIP3    H166761   2.697   0.036  13.309 -0.1929  0.6479  2.1379
15090TIP3    H266762   2.548   0.013  13.292 -0.4674  1.3434  3.4081
15091TIP3   OH266763   5.311   4.816  15.831  0.6473  0.0692 -0.3916
15091TIP3    H166764   5.306   4.756  15.757  0.4354  1.5900 -1.6605
15091TIP3    H266765   5.220   4.836  15.852  0.7113 -0.1926  0.1626
15092TIP3   OH266766   2.323   1.477   6.032  0.0879 -0.0409 -0.0577
15092TIP3    H166767   2.345   1.564   5.999 -2.0314  0.0709 -1.4234
15092TIP3    H266768   2.300   1.491   6.124  2.4072  0.3162  0.5277
15093TIP3   OH266769   0.964   6.207   6.119  0.3891  0.4008  0.4585
15093TIP3    H166770   0.937   6.188   6.209  0.7036 -1.6719  0.1702
15093TIP3    H266771   1.042   6.262   6.128  0.3293  0.3385  1.4387
15094TIP3   OH266772   0.821   2.957  13.572 -0.1067  0.3324  0.0191
15094TIP3    H166773   0.863   2.882  13.529 -1.5236 -0.8910  0.6897
15094TIP3    H266774   0.886   3.027  13.566  0.8703 -0.6422 -1.5079
15095TIP3   OH266775   3.176   2.659   4.610  0.0683  0.6945 -0.1224
15095TIP3    H166776   3.114   2.588   4.625  1.3979 -0.3019  1.0056
15095TIP3    H266777   3.256   2.615   4.581  0.4662  1.8774 -0.9067
15096TIP3   OH266778   2.283   2.042  14.622 -0.0058  0.5105 -0.3351
15096TIP3    H166779   2.365   2.019  14.666  0.1019 -1.9147 -1.5950
15096TIP3    H266780   2.216   1.997  14.673 -0.1274 -0.4091 -1.2794
15097TIP3   OH266781   3.491   0.060   2.082 -0.0084  0.0943 -0.4235
15097TIP3    H166782   3.415   0.118   2.087  0.8223  1.1485  0.3945
15097TIP3    H266783   3.516   0.045   2.173  0.1693 -1.0580 -0.6462
15098TIP3   OH266784   0.564   4.244   5.651  0.6131  0.2967  0.5627
15098TIP3    H166785   0.500   4.227   5.581  0.3873 -0.6090  0.9839
15098TIP3    H266786   0.525   4.314   5.703  1.8487  2.7698 -1.5691
15099TIP3   OH266787   5.092   6.385   5.463  0.0489  0.0629  0.1299
15099TIP3    H166788   5.117   6.439   5.538  0.9055 -2.1025  1.5020
15099TIP3    H266789   5.013   6.340   5.492 -0.2549  0.0488 -0.7097
15100TIP3   OH266790   3.214   2.411  16.338  0.4698 -0.2950  0.1986
15100TIP3    H166791   3.239   2.462  16.415 -0.1608 -0.2897  0.4066
15100TIP3    H266792   3.286   2.425  16.276  1.5232 -1.1664  1.1742
15101TIP3   OH266793   6.586   2.911   4.464 -0.3514 -0.9863 -0.0118
15101TIP3    H166794   6.535   2.842   4.505  1.0497 -1.8515  0.3266
15101TIP3    H266795   6.526   2.950   4.400 -1.7397 -1.2887  1.0537
15102TIP3   OH266796   1.885   5.591   5.289 -0.0667 -0.2660  0.5804
15102TIP3    H166797   1.831   5.514   5.277 -1.1898  0.4260  1.0294
15102TIP3    H266798   1.885   5.606   5.384  0.5350  0.0157  0.5420
15103TIP3   OH266799   0.980   3.853   5.383 -0.2416  0.1014 -0.1231
15103TIP3    H166800   1.032   3.828   5.460 -0.1344 -0.1712 -0.2824
15103TIP3    H266801   1.014   3.798   5.313  0.4427  1.1272 -0.6402
15104TIP3   OH266802   5.706   5.995   2.608  1.0664 -0.0087 -0.2370
15104TIP3    H166803   5.667   5.983   2.521 -0.1411 -1.4233  0.4489
15104TIP3    H266804   5.656   6.067   2.647  1.6665  0.6846 -0.7284
15105TIP3   OH266805   0.917   5.841   3.087  0.1820 -0.3768  0.0393
15105TIP3    H166806   0.851   5.785   3.126 -0.5046 -0.4158 -1.1390
15105TIP3    H266807   0.883   5.930   3.096  0.0978 -0.3718 -0.3190
15106TIP3   OH266808   3.676   1.097  16.642  0.0743  0.5068 -0.1731
15106TIP3    H166809   3.766   1.122  16.619 -0.2667 -0.2072 -2.5958
15106TIP3    H266810   3.684   1.007  16.674  0.2634  0.4951 -0.2487
15107TIP3   OH266811   3.168   4.188   6.564  0.5916  0.1476 -0.8244
15107TIP3    H166812   3.098   4.253   6.558  0.8625  0.5133 -0.1952
15107TIP3    H266813   3.247   4.240   6.578  0.7609 -0.3338  0.0784
15108TIP3   OH266814   1.971   2.224  14.117 -0.0273  0.4488 -0.0239
15108TIP3    H166815   1.961   2.145  14.171 -2.7502 -0.3526 -1.5461
15108TIP3    H266816   2.044   2.203  14.058  0.4572 -0.1743  0.7633
15109TIP3   OH266817   5.683   3.726   3.690 -0.5636  0.3260  0.2567
15109TIP3    H166818   5.667   3.689   3.603  0.3792 -2.3483  1.1386
15109TIP3    H266819   5.764   3.776   3.680 -0.3372 -0.1516 -0.3593
15110TIP3   OH266820   1.072   4.597   5.502 -0.1941  0.4364  0.5440
15110TIP3    H166821   1.116   4.670   5.459  0.8193 -1.5156 -1.9784
15110TIP3    H266822   1.139   4.556   5.557  0.7005 -1.2666 -1.6598
15111TIP3   OH266823   1.040   0.980   2.318 -0.1093  0.2031 -0.1808
15111TIP3    H166824   1.036   0.886   2.302 -0.1563  0.0417  0.7455
15111TIP3    H266825   0.949   1.010   2.309 -0.3377 -0.0973  0.9907
15112TIP3   OH266826   0.050   1.301  11.104  0.4257 -0.0424  0.1044
15112TIP3    H166827  -0.029   1.356  11.108  0.0264 -0.6817  1.8923
15112TIP3    H266828   0.027   1.230  11.045 -0.0030  0.2596 -0.1001
15113TIP3   OH266829   6.618   3.257   0.430  0.1648 -0.5081  0.2306
15113TIP3    H166830   6.713   3.248   0.429  0.1272 -1.5879 -2.7013
15113TIP3    H266831   6.585   3.168   0.432 -0.9114 -0.1488  2.4809
15114TIP3   OH266832   3.899   2.901  14.213  0.1186  0.0769  0.5522
15114TIP3    H166833   3.804   2.893  14.212 -0.4205  4.3481  0.6873
15114TIP3    H266834   3.923   2.916  14.121  0.4277  0.6490  0.7210
15115TIP3   OH266835   3.818   1.744   0.804 -0.1968  0.6850 -0.5042
15115TIP3    H166836   3.896   1.690   0.810 -0.9084 -0.6964 -2.4038
15115TIP3    H266837   3.835   1.803   0.730  0.4395  2.9351  1.3345
15116TIP3   OH266838   6.252   6.822   3.965  0.0685 -0.3324  0.0277
15116TIP3    H166839   6.228   6.793   4.053 -0.4848 -0.2226 -0.0882
15116TIP3    H266840   6.338   6.783   3.951 -0.2964 -1.2282  0.2101
15117TIP3   OH266841   0.256   6.123   2.008 -0.5537 -0.3674  0.2756
15117TIP3    H166842   0.252   6.055   2.075  0.0384 -0.2777  0.4016
15117TIP3    H266843   0.227   6.079   1.928 -0.0537 -0.7991  0.3290
15118TIP3   OH266844   6.414   2.028   2.693 -0.0759  0.2002 -0.3991
15118TIP3    H166845   6.420   2.123   2.702 -1.5825  0.5195 -2.1562
15118TIP3    H266846   6.460   1.994   2.769  0.4453  2.3337  0.3125
15119TIP3   OH266847   6.196   1.391  14.499 -0.3701  0.3138  0.4456
15119TIP3    H166848   6.232   1.419  14.415  1.9368  1.7395  1.8087
15119TIP3    H266849   6.228   1.455  14.562 -0.4586 -1.7211  2.7277
15120TIP3   OH266850   5.557   6.810   2.911 -0.2834 -0.0579 -0.0989
15120TIP3    H166851   5.491   6.782   2.975 -1.6752  2.0604 -0.4886
15120TIP3    H266852   5.507   6.825   2.831  0.8176  0.7463 -0.6631
15121TIP3   OH266853   6.712   3.796  11.097 -1.0767  0.2335  0.4912
15121TIP3    H166854   6.625   3.767  11.127 -0.6078 -1.6626  0.1880
15121TIP3    H266855   6.726   3.747  11.016 -0.7289  2.4041 -0.8276
15122TIP3   OH266856   0.133   5.862   4.373  0.3536 -0.1200 -0.3861
15122TIP3    H166857   0.053   5.913   4.363  1.1071  1.7755  2.1106
15122TIP3    H266858   0.104   5.771   4.372 -1.7682  0.5014 -0.0394
15123TIP3   OH266859   1.260   3.788  15.666  0.2124  0.6486  0.7576
15123TIP3    H166860   1.307   3.809  15.586 -1.9718  3.6304  0.0772
15123TIP3    H266861   1.201   3.716  15.641  0.3756  0.7691  0.0164
15124TIP3   OH266862   5.908   3.513  15.672  0.1627  0.0113  0.3926
15124TIP3    H166863   5.868   3.575  15.734 -2.6647 -0.8536 -0.4162
15124TIP3    H266864   5.939   3.568  15.600  2.6700  0.9373  2.0348
15125TIP3   OH266865   1.482   0.069  12.065 -0.1347  0.5904  0.3914
15125TIP3    H166866   1.421   0.063  11.991 -0.2605  2.6398  0.2557
15125TIP3    H266867   1.568   0.076  12.025 -0.0365  0.0603  0.5041
15126TIP3   OH266868   5.858   1.280   3.402  0.1991 -0.0234  0.4586
15126TIP3    H166869   5.778   1.317   3.364  0.8692 -0.3228 -1.3556
15126TIP3    H266870   5.835   1.190   3.425 -0.4576  0.4226  1.6059
15127TIP3   OH266871   3.768   0.566  12.690  0.0451 -0.4145  0.3895
15127TIP3    H166872   3.830   0.540  12.758  1.3272  2.5728  0.5236
15127TIP3    H266873   3.691   0.595  12.738 -0.0995 -0.8114  0.4029
15128TIP3   OH266874   1.567   5.523  16.022 -0.0894  0.4944  0.0568
15128TIP3    H166875   1.515   5.538  15.944  0.0404 -0.0531 -0.1402
15128TIP3    H266876   1.518   5.565  16.093 -0.7960 -0.0142 -0.1286
15129TIP3   OH266877   3.352   5.366   1.018 -0.0204  0.0931  0.0092
15129TIP3    H166878   3.412   5.378   0.945  0.0004 -0.0982 -0.0061
15129TIP3    H266879   3.398   5.401   1.094  0.2522 -0.3777  0.0601
15130TIP3   OH266880   5.253   1.451  12.625 -0.0894  0.3781  0.5579
15130TIP3    H166881   5.262   1.409  12.711 -0.4828  1.9955  1.4183
15130TIP3    H266882   5.331   1.507  12.618  0.6851 -0.7918 -0.7927
15131TIP3   OH266883   1.056   6.080   5.768 -0.5411  0.8665 -0.7443
15131TIP3    H166884   1.121   6.021   5.729 -1.9480 -0.9999 -0.4388
15131TIP3    H266885   1.104   6.127   5.836  0.1489 -1.9550  0.9284
15132TIP3   OH266886   0.122   3.262  17.056  0.2586 -0.0590  0.3283
15132TIP3    H166887   0.039   3.242  17.100  0.7307  0.6998  1.6133
15132TIP3    H266888   0.104   3.341  17.005 -0.0257 -0.3852 -0.0861
15133TIP3   OH266889   1.633   3.053  11.837 -0.6324  0.4901  0.0974
15133TIP3    H166890   1.719   3.090  11.819 -0.5039  1.0895  1.7738
15133TIP3    H266891   1.578   3.084  11.765  0.1386  1.6001 -0.0399
15134TIP3   OH266892   3.985   3.492  12.077  0.6542 -0.1831  0.3996
15134TIP3    H166893   4.079   3.480  12.066  1.2253  1.7430  2.4815
15134TIP3    H266894   3.973   3.587  12.078 -1.0337 -0.3535  2.0076
15135TIP3   OH266895   4.197   1.504  13.928 -0.6781 -0.1085  0.2232
15135TIP3    H166896   4.264   1.436  13.917 -2.1432 -1.6330  0.3816
15135TIP3    H266897   4.189   1.545  13.842 -0.4593 -0.7903 -0.1252
15136TIP3   OH266898   6.488   2.248   4.729 -0.3235 -0.6386  0.4813
15136TIP3    H166899   6.400   2.260   4.693 -0.7789 -1.5457  1.2428
15136TIP3    H266900   6.497   2.316   4.795 -0.4926 -0.5993  0.4637
15137TIP3   OH266901   6.567   3.329  11.687  0.3525  0.6465  0.3026
15137TIP3    H166902   6.524   3.244  11.694 -1.2149  1.4037  0.3123
15137TIP3    H266903   6.558   3.353  11.595  1.4746  0.4992  0.1291
15138TIP3   OH266904   3.130   1.992  13.552  0.1821  0.2159 -0.3335
15138TIP3    H166905   3.078   1.989  13.632 -1.2511  1.5733 -1.1339
15138TIP3    H266906   3.201   1.930  13.566  0.9933  1.6770  2.6653
15139TIP3   OH266907   1.283   0.647  16.331  0.0539 -0.0912 -0.5437
15139TIP3    H166908   1.243   0.585  16.392  0.6757 -0.5831 -0.6237
15139TIP3    H266909   1.209   0.680  16.279 -0.6691  1.2924  1.2746
15140TIP3   OH266910   1.361   0.939   1.274 -0.2543 -0.0993  0.0502
15140TIP3    H166911   1.393   1.028   1.257 -0.3236  0.0995  0.9245
15140TIP3    H266912   1.272   0.938   1.238 -0.5689  0.4530  0.7990
15141TIP3   OH266913   4.389   5.905  13.556 -0.1417  0.0804  0.3288
15141TIP3    H166914   4.422   5.820  13.585  1.9537  0.6115 -0.2864
15141TIP3    H266915   4.335   5.884  13.480 -1.6305 -0.8733  1.5961
15142TIP3   OH266916   3.581   6.796   0.976 -0.4624  0.1591 -0.3157
15142TIP3    H166917   3.631   6.715   0.962  2.4285  1.7815 -0.1124
15142TIP3    H266918   3.490   6.769   0.968  0.3619 -3.1455 -0.0815
15143TIP3   OH266919   4.969   2.901  14.795  0.1236  0.1593 -0.6092
15143TIP3    H166920   4.960   2.987  14.835 -0.1072 -0.8436  1.6182
15143TIP3    H266921   4.887   2.890  14.746 -1.7302 -0.3248  2.3435
15144TIP3   OH266922   1.240   6.164   5.972  0.7093  0.1128 -0.0176
15144TIP3    H166923   1.219   6.224   6.043  2.4202  0.4266  0.2554
15144TIP3    H266924   1.304   6.211   5.919 -0.0508 -0.3770 -1.4253
15145TIP3   OH266925   2.100   4.083  16.273 -0.2966  0.1052 -0.1512
15145TIP3    H166926   2.124   4.015  16.210  0.3599 -0.9825  1.2158
15145TIP3    H266927   2.168   4.150  16.263  0.4247 -0.5765  0.1659
15146TIP3   OH266928   3.137   6.143  15.051  0.8906 -0.1117 -0.3380
15146TIP3    H166929   3.053   6.181  15.076  1.3607  1.4060 -0.9893
15146TIP3    H266930   3.143   6.062  15.103  0.6348  1.5357  2.4364
15147TIP3   OH266931   0.531   1.875   2.735  0.0491  0.2615 -0.5717
15147TIP3    H166932   0.567   1.790   2.709 -0.6902 -0.4607  0.6541
15147TIP3    H266933   0.588   1.939   2.694  0.3277 -0.8155 -1.9596
15148TIP3   OH266934   3.002   4.432   3.340 -0.0322 -0.3994 -0.2784
15148TIP3    H166935   2.973   4.457   3.428 -1.4291 -0.8828 -0.5638
15148TIP3    H266936   3.045   4.348   3.352 -1.3914 -1.1154 -0.1955
15149TIP3   OH266937   0.176   0.013   2.068 -0.4056 -0.3071 -0.1291
15149TIP3    H166938   0.106   0.031   2.005 -0.8923  0.2158  0.5392
15149TIP3    H266939   0.175   0.089   2.127 -0.2654 -0.9816  0.7694
15150TIP3   OH266940   3.348   2.160   4.956 -0.1597 -0.2804 -0.2939
15150TIP3    H166941   3.284   2.111   4.905 -2.0154  2.1888 -0.5253
15150TIP3    H266942   3.295   2.207   5.021  1.5525  0.9455  0.2745
15151TIP3   OH266943   2.250   6.789  12.206 -0.1731  0.7507 -0.2304
15151TIP3    H166944   2.198   6.759  12.131  1.1999 -0.2750 -0.8181
15151TIP3    H266945   2.274   6.708  12.252  1.7628  1.0896 -0.5821
15152TIP3   OH266946   0.657   3.057   1.062 -0.2645 -0.1100 -0.1391
15152TIP3    H166947   0.698   3.090   1.142  1.4701 -0.3134 -0.8964
15152TIP3    H266948   0.727   3.011   1.016 -1.2347 -0.0607 -1.7482
15153TIP3   OH266949   5.181   3.893   0.088 -0.3958  0.1709 -0.1431
15153TIP3    H166950   5.121   3.832   0.131 -0.3206  0.3457  0.2182
15153TIP3    H266951   5.221   3.842   0.018 -0.1889 -0.2555  0.2758
15154TIP3   OH266952   2.775   2.554  15.171 -0.1518  0.1343  0.2687
15154TIP3    H166953   2.758   2.644  15.200  2.6680  0.7637  0.2588
15154TIP3    H266954   2.701   2.504  15.205 -2.1539  2.5132 -0.2372
15155TIP3   OH266955   5.566   2.947   4.845  0.5890 -0.0032  0.4792
15155TIP3    H166956   5.612   2.983   4.921  1.7473  0.3647 -0.3636
15155TIP3    H266957   5.610   2.987   4.770 -1.0946  0.3223 -0.3812
15156TIP3   OH266958   4.721   4.866  16.163  0.0242  0.0266  0.2887
15156TIP3    H166959   4.773   4.797  16.205 -1.1714 -0.4604  1.0459
15156TIP3    H266960   4.650   4.819  16.119 -0.7334  0.7510  0.7061
15157TIP3   OH266961   0.032   4.175   4.855 -0.5935  0.3011 -0.1263
15157TIP3    H166962   0.016   4.255   4.804 -0.7754  0.2849 -0.0967
15157TIP3    H266963   0.055   4.206   4.942 -0.1199  0.3328 -0.2584
15158TIP3   OH266964   5.715   4.559  12.896  0.0063  0.2585  0.7426
15158TIP3    H166965   5.710   4.607  12.979 -1.0178  0.1372  0.7708
15158TIP3    H266966   5.755   4.621  12.835  0.3158  0.5246  1.2078
15159TIP3   OH266967   0.982   1.005  11.136  0.0334  0.6542  0.0312
15159TIP3    H166968   0.917   0.971  11.197  0.8918 -1.1153  0.0013
15159TIP3    H266969   0.972   0.952  11.057  0.7465  1.1470 -0.4040
15160TIP3   OH266970   3.707   2.730  14.466 -0.5711  0.3769  0.3068
15160TIP3    H166971   3.668   2.672  14.531  0.4467 -1.5583 -0.7174
15160TIP3    H266972   3.779   2.679  14.428 -1.3426  1.2466 -2.6126
15161TIP3   OH266973   3.128   2.965  12.482 -0.2975  0.1593  0.7349
15161TIP3    H166974   3.124   2.870  12.466 -2.6123  0.2864  0.1223
15161TIP3    H266975   3.073   2.978  12.559 -0.3109  1.0400  0.5781
15162TIP3   OH266976   3.421   0.996  10.343 -0.2037 -0.5246  0.1537
15162TIP3    H166977   3.503   0.951  10.365  0.5653 -0.6867 -2.6361
15162TIP3    H266978   3.439   1.088  10.356  1.8812 -0.1315 -3.8934
15163TIP3   OH266979   1.815   5.772   4.248 -0.1897 -0.0369  0.5537
15163TIP3    H166980   1.754   5.699   4.247  1.0819 -1.1507 -0.8274
15163TIP3    H266981   1.839   5.781   4.340  0.0354 -1.7488  0.7047
15164TIP3   OH266982   1.502   2.606   2.870  0.7400 -0.0174 -0.4390
15164TIP3    H166983   1.510   2.513   2.890 -2.4028 -0.1719  0.6767
15164TIP3    H266984   1.537   2.651   2.947  1.6712 -0.2659 -0.7085
15165TIP3   OH266985   4.737   1.069   0.685  0.2991  0.3853  0.2696
15165TIP3    H166986   4.806   1.118   0.731  0.9916  0.1019 -0.4471
15165TIP3    H266987   4.748   1.093   0.593  0.7444 -1.1841 -0.1240
15166TIP3   OH266988   5.085   0.890  15.758  0.2209 -0.7800 -0.2986
15166TIP3    H166989   5.153   0.946  15.720  0.6537 -2.1869 -1.7725
15166TIP3    H266990   5.133   0.811  15.786 -0.4992 -0.8425  0.7903
15167TIP3   OH266991   5.668   2.884   4.034  0.0220 -0.7510 -0.0801
15167TIP3    H166992   5.756   2.880   3.997  0.1111  1.5270 -0.2141
15167TIP3    H266993   5.654   2.796   4.070  3.0781 -0.6942  1.6239
15168TIP3   OH266994   6.086   0.268  12.887 -0.1054 -0.0178  0.2285
15168TIP3    H166995   6.154   0.238  12.826  0.9798  0.4990  1.1504
15168TIP3    H266996   6.117   0.241  12.973 -1.9487 -1.3355  0.5322
15169TIP3   OH266997   2.616   3.081  16.365 -0.3918  0.7070  0.6682
15169TIP3    H166998   2.660   3.098  16.282  0.2710  1.8560  1.2264
15169TIP3    H266999   2.554   3.153  16.376 -0.7139  0.3844  1.0134
15170TIP3   OH267000   1.107   3.042   0.280 -0.2882  0.4671  0.0512
15170TIP3    H167001   1.171   3.024   0.212 -0.9267 -1.8628 -0.0224
15170TIP3    H267002   1.148   3.010   0.361 -0.9685 -0.2087  0.1428
15171TIP3   OH267003   6.732   5.160   2.843  0.4569 -0.5004 -0.6533
15171TIP3    H167004   6.663   5.214   2.802 -1.7077 -0.7813  2.3133
15171TIP3    H267005   6.782   5.222   2.896 -0.5145 -0.9674  0.8589
15172TIP3   OH267006   0.524   4.868   4.443 -0.1230  0.2419 -0.0929
15172TIP3    H167007   0.429   4.862   4.436 -0.2468 -0.6099  1.8429
15172TIP3    H267008   0.542   4.855   4.536  1.9167  0.1398 -0.4674
15173TIP3   OH267009   5.730   4.089  14.166 -0.1979  0.0539  0.4035
15173TIP3    H167010   5.787   4.148  14.214  0.4327  0.7035 -1.0682
15173TIP3    H267011   5.781   4.008  14.158 -1.5653 -1.2580  3.5476
15174TIP3   OH267012   6.422   2.577   6.509 -0.0080 -0.5107 -0.0237
15174TIP3    H167013   6.432   2.532   6.425 -0.3087 -0.7200  0.0496
15174TIP3    H267014   6.327   2.579   6.523  0.0308 -0.2908  0.2120
15175TIP3   OH267015   6.818   0.385  16.538  0.2012  0.1013 -0.0390
15175TIP3    H167016   6.820   0.328  16.614 -1.4621  0.5194  0.3433
15175TIP3    H267017   6.806   0.326  16.464 -0.3820 -0.1350  0.2420
15176TIP3   OH267018   3.931   2.704   2.095  0.1916 -0.6120  0.1962
15176TIP3    H167019   3.926   2.799   2.105 -1.6477 -0.8189  1.7802
15176TIP3    H267020   3.993   2.676   2.162  1.8652 -0.4628 -1.2151
15177TIP3   OH267021   0.263   0.132  15.512 -0.2672 -0.1765 -0.3153
15177TIP3    H167022   0.295   0.099  15.428 -0.6889 -0.4710 -0.3637
15177TIP3    H267023   0.173   0.159  15.495  0.6489  3.0230 -0.8103
15178TIP3   OH267024   2.041   1.748  16.030 -0.3980  0.0095 -0.4553
15178TIP3    H167025   2.122   1.794  16.051  1.4320 -2.0987 -2.3157
15178TIP3    H267026   2.020   1.698  16.109  1.7418 -1.5130 -0.7693
15179TIP3   OH267027   2.814   3.306  14.559 -0.0996 -0.1797  0.3328
15179TIP3    H167028   2.768   3.363  14.497 -2.0513 -0.1503  1.6918
15179TIP3    H267029   2.837   3.228  14.508 -3.2320 -0.9379 -0.1275
15180TIP3   OH267030   3.189   3.870  13.830 -0.0340 -0.4015  0.1588
15180TIP3    H167031   3.213   3.868  13.923 -0.1669  0.2691  0.2186
15180TIP3    H267032   3.249   3.809  13.788  2.4879  1.8811  0.1476
15181TIP3   OH267033   1.288   4.901   1.813 -0.0017  0.3015 -0.3122
15181TIP3    H167034   1.347   4.976   1.804 -1.5263  1.3527 -2.3283
15181TIP3    H267035   1.219   4.931   1.872 -0.6559  0.5451 -1.1842
15182TIP3   OH267036   0.452   3.518   5.360 -0.7257  0.6278 -0.0466
15182TIP3    H167037   0.458   3.595   5.304 -2.6854  0.6685 -0.2467
15182TIP3    H267038   0.465   3.444   5.301  2.1641  0.7507  0.2988
15183TIP3   OH267039   3.832   1.395  16.090 -0.3767 -0.2213  0.0072
15183TIP3    H167040   3.902   1.353  16.039 -1.2998 -0.1269 -1.4087
15183TIP3    H267041   3.752   1.351  16.061 -0.8139 -1.5084  2.8160
15184TIP3   OH267042   2.746   6.148   1.615 -0.6052 -0.0388  0.1974
15184TIP3    H167043   2.694   6.071   1.592 -0.6445  0.1595 -0.4072
15184TIP3    H267044   2.837   6.121   1.602 -0.5651 -0.3037  0.9985
15185TIP3   OH267045   1.219   4.874  12.502  0.0452  0.3138 -0.6203
15185TIP3    H167046   1.217   4.873  12.597  0.6488 -0.3233 -0.6055
15185TIP3    H267047   1.312   4.867  12.480 -0.0520  0.9353 -1.2515
15186TIP3   OH267048   0.215   1.439   3.021 -0.3708  0.3360 -0.0703
15186TIP3    H167049   0.294   1.422   3.073 -0.6003 -0.7333 -0.0522
15186TIP3    H267050   0.249   1.472   2.938  0.0290  1.3016  0.4523
15187TIP3   OH267051   1.693   1.561  16.379  0.3565 -0.0350 -0.1646
15187TIP3    H167052   1.677   1.628  16.446 -2.0570 -0.6124 -0.1020
15187TIP3    H267053   1.685   1.478  16.425 -0.5331 -0.4261 -0.9805
15188TIP3   OH267054   5.996   5.161   0.306 -0.0946 -0.3859 -0.1498
15188TIP3    H167055   5.948   5.082   0.328 -0.6607 -0.0098 -0.0085
15188TIP3    H267056   5.983   5.171   0.212 -2.1793  0.9144  0.2246
15189TIP3   OH267057   0.590   1.016  15.877  0.1225  1.0067 -0.2974
15189TIP3    H167058   0.651   0.951  15.912 -1.9298 -0.4787  0.7093
15189TIP3    H267059   0.592   1.087  15.940  1.4983  1.4493 -0.7921
15190TIP3   OH267060   2.378   4.723   4.439 -0.3474 -0.0650 -0.7404
15190TIP3    H167061   2.459   4.732   4.488  0.7086  0.1306 -2.4343
15190TIP3    H267062   2.315   4.778   4.485  0.1493 -1.0533  1.2231
15191TIP3   OH267063   5.474   2.095  10.364  0.1517 -0.2440  0.3082
15191TIP3    H167064   5.466   2.058  10.276 -1.0901  0.1698  0.2194
15191TIP3    H267065   5.553   2.148  10.361 -0.3409  0.4711 -0.8431
15192TIP3   OH267066   6.041   1.182   0.313  0.1561  0.1685 -0.3177
15192TIP3    H167067   6.022   1.257   0.256 -2.2808 -0.7607 -0.8865
15192TIP3    H267068   6.127   1.200   0.350  0.7174  2.0374 -2.3446
15193TIP3   OH267069   3.755   5.152   2.311  0.0536  0.9677  0.0502
15193TIP3    H167070   3.753   5.204   2.392  1.0901  0.6344  0.3053
15193TIP3    H267071   3.665   5.126   2.297  0.1364 -0.9273  2.3927
15194TIP3   OH267072   6.431   0.110   0.505 -0.0556 -0.4366  0.1055
15194TIP3    H167073   6.366   0.138   0.571 -0.7366  0.7034 -1.0041
15194TIP3    H267074   6.387   0.040   0.457 -0.1259 -0.2591 -0.0882
15195TIP3   OH267075   6.245   5.067   3.455  0.1681 -0.9575 -0.0433
15195TIP3    H167076   6.185   5.133   3.422 -0.0715 -0.2785  1.6673
15195TIP3    H267077   6.332   5.103   3.439  0.0514 -0.5630  0.1926
15196TIP3   OH267078   5.521   4.013   3.641 -0.2072 -0.3846 -0.1530
15196TIP3    H167079   5.530   4.069   3.564  1.6393 -0.1018  0.2231
15196TIP3    H267080   5.600   4.030   3.692 -2.4594  1.4235  3.1226
15197TIP3   OH267081   6.029   2.264   5.521 -0.3522 -0.1480 -0.1424
15197TIP3    H167082   6.020   2.293   5.430 -0.1402 -1.5511 -0.6372
15197TIP3    H267083   5.947   2.218   5.540 -0.6692  0.7002  0.6073
15198TIP3   OH267084   4.700   1.559   4.099 -0.2326 -0.9530  0.1127
15198TIP3    H167085   4.675   1.648   4.075 -0.3044 -0.9208  0.3043
15198TIP3    H267086   4.778   1.540   4.046 -1.0876 -1.3335 -1.0567
15199TIP3   OH267087   3.955   2.375  16.518 -0.1021 -0.6473 -0.1727
15199TIP3    H167088   3.938   2.409  16.430  1.2005  2.4182  0.6323
15199TIP3    H267089   3.878   2.399  16.569 -0.3249 -1.3415 -0.1660
15200TIP3   OH267090   2.384   1.672  16.338 -0.0408  0.2274  0.4298
15200TIP3    H167091   2.397   1.577  16.335 -1.6531  0.0099 -1.1396
15200TIP3    H267092   2.472   1.707  16.351  1.0200 -1.4097 -1.6806
15201TIP3   OH267093   3.382   5.920  12.986 -0.3356  0.2705  0.3916
15201TIP3    H167094   3.380   5.825  12.974 -1.6776  0.3303 -0.0034
15201TIP3    H267095   3.456   5.935  13.045 -1.5709 -1.2792  2.5123
15202TIP3   OH267096   4.604   4.754   1.300 -0.4670  0.3770 -0.0811
15202TIP3    H167097   4.660   4.813   1.350 -0.3933  0.9303 -0.8003
15202TIP3    H267098   4.526   4.742   1.355 -1.4042  2.7720 -0.7432
15203TIP3   OH267099   0.713   2.241  17.009  0.2030  0.0135  0.3720
15203TIP3    H167100   0.773   2.299  16.962  0.1916  0.0548  0.4081
15203TIP3    H267101   0.628   2.254  16.967  0.3153 -0.3982  0.0080
15204TIP3   OH267102   2.301   6.466  12.957 -0.3650 -0.1971 -0.4532
15204TIP3    H167103   2.221   6.518  12.950 -0.1928  0.3302  1.1733
15204TIP3    H267104   2.270   6.377  12.972 -0.7439  0.3293  2.5270
15205TIP3   OH267105   2.000   1.800  15.725 -0.4939 -0.1363 -0.4907
15205TIP3    H167106   1.997   1.751  15.808 -0.1412  1.0327  0.2411
15205TIP3    H267107   2.090   1.789  15.694 -1.1826 -2.3882 -1.8946
15206TIP3   OH267108   3.735   5.648  12.996 -0.2569  0.1143 -0.2027
15206TIP3    H167109   3.702   5.568  12.955 -2.1427  0.9377 -0.3993
15206TIP3    H267110   3.712   5.638  13.088  1.7966 -0.6449  0.2919
15207TIP3   OH267111   5.006   2.727  15.729  0.7823 -0.1683 -0.2537
15207TIP3    H167112   5.030   2.786  15.658  1.2898  1.5707  1.3013
15207TIP3    H267113   4.941   2.775  15.780  0.0438 -1.5802  0.2167
15208TIP3   OH267114   2.208   3.192   4.162 -0.6482 -0.1361  0.7020
15208TIP3    H167115   2.253   3.121   4.208 -0.3202  0.3701  1.1766
15208TIP3    H267116   2.115   3.177   4.180 -0.7652 -1.6279 -0.9145
15209TIP3   OH267117   6.606   5.113   3.829 -0.2391 -0.6665  0.0753
15209TIP3    H167118   6.660   5.076   3.898  2.7725  0.8940 -1.2459
15209TIP3    H267119   6.570   5.193   3.867  0.4823 -0.3990  0.2125
15210TIP3   OH267120   0.154   2.361   2.705  0.4358 -0.0421  0.2097
15210TIP3    H167121   0.134   2.277   2.663  1.4255 -0.4154  0.4656
15210TIP3    H267122   0.137   2.346   2.798  0.7639 -0.0078  0.2764
15211TIP3   OH267123   4.990   3.303   1.209  0.2892 -0.2380  0.1002
15211TIP3    H167124   5.075   3.261   1.226  0.5293  0.2484  0.1383
15211TIP3    H267125   4.925   3.239   1.238  0.6690  0.2434  2.1755
15212TIP3   OH267126   1.284   1.458   0.608 -0.0698  0.2339  0.1478
15212TIP3    H167127   1.219   1.427   0.671 -0.1219  0.9739  0.4652
15212TIP3    H267128   1.345   1.385   0.599  0.8530  0.6531  2.3084
15213TIP3   OH267129   4.864   0.119   1.882  0.0967 -0.2174  0.5340
15213TIP3    H167130   4.846   0.171   1.804 -3.2215 -2.4978 -0.4435
15213TIP3    H267131   4.807   0.155   1.949  2.9860  1.7821  2.1662
15214TIP3   OH267132   5.779   6.748   5.021 -0.2958 -0.1413 -0.2857
15214TIP3    H167133   5.861   6.797   5.032 -0.2418 -0.6124  1.8049
15214TIP3    H267134   5.711   6.815   5.019 -0.3444  0.1538  3.7459
15215TIP3   OH267135   4.325   0.057  12.430  0.0830  0.3769 -0.2562
15215TIP3    H167136   4.317   0.022  12.518  0.1290 -0.1729 -0.4648
15215TIP3    H267137   4.257   0.012  12.380 -0.2410  1.0191 -0.3981
15216TIP3   OH267138   2.954   1.522  12.504  0.0780 -0.0589 -0.7109
15216TIP3    H167139   2.978   1.614  12.502  0.6362 -0.1648  0.2956
15216TIP3    H267140   2.858   1.521  12.509  0.0839  0.4670 -0.5002
15217TIP3   OH267141   0.335   1.316   2.125  0.5640 -0.6043 -0.2591
15217TIP3    H167142   0.264   1.303   2.063  1.2233 -0.9720 -0.9539
15217TIP3    H267143   0.367   1.228   2.145  1.3908 -0.3991 -0.6331
15218TIP3   OH267144   1.703   1.636  17.005 -0.4016  0.7287  0.5701
15218TIP3    H167145   1.728   1.727  17.016 -0.4716  0.7534  0.5279
15218TIP3    H267146   1.728   1.594  17.087  1.5428  0.3304 -0.1683
15219TIP3   OH267147   6.765   4.566   0.869  0.6788  0.5757  0.8724
15219TIP3    H167148   6.679   4.605   0.854  0.8316  1.7268  2.8068
15219TIP3    H267149   6.825   4.640   0.874  2.1623 -0.2556 -2.0943
15220TIP3   OH267150   6.523   2.363  11.840 -0.2125 -0.1806 -0.0262
15220TIP3    H167151   6.454   2.372  11.774 -1.4934  2.9492  1.5261
15220TIP3    H267152   6.486   2.306  11.906 -0.8282  0.4008  0.1458
15221TIP3   OH267153   4.292   4.535  13.685 -0.1122  0.1772 -0.0991
15221TIP3    H167154   4.353   4.560  13.754 -1.1720 -0.0399  0.9434
15221TIP3    H267155   4.254   4.618  13.654  0.8917  0.3380 -0.9515
15222TIP3   OH267156   5.319   0.623   1.821 -0.1292 -0.0534  0.4096
15222TIP3    H167157   5.267   0.635   1.901 -0.0380  0.1620  0.4369
15222TIP3    H267158   5.389   0.688   1.828 -0.6802  0.6357 -0.3085
15223TIP3   OH267159   3.631   3.105   2.959  0.0720  0.0948  0.0035
15223TIP3    H167160   3.602   3.015   2.975  1.6905 -0.7177 -1.2662
15223TIP3    H267161   3.593   3.156   3.031 -1.7828 -1.3853  0.1599
15224TIP3   OH267162   4.586   0.491   4.460  0.1517  0.0289 -0.3857
15224TIP3    H167163   4.605   0.548   4.535 -0.9461  0.0851 -0.1358
15224TIP3    H267164   4.671   0.453   4.437  0.4896 -0.0882  0.9707
15225TIP3   OH267165   6.690   4.319  16.590 -0.0614  0.5192  0.2866
15225TIP3    H167166   6.776   4.307  16.549  0.2995  1.9211  0.6045
15225TIP3    H267167   6.670   4.233  16.628  0.4197 -0.3063 -1.2218
15226TIP3   OH267168   1.404   0.015   5.696  0.2750  0.4575 -0.1141
15226TIP3    H167169   1.391   0.056   5.610  0.4773  2.3273  0.7004
15226TIP3    H267170   1.408  -0.079   5.677 -0.1807  0.7855 -2.0805
15227TIP3   OH267171   2.971   3.675   3.475  0.5219 -0.4339  0.1254
15227TIP3    H167172   2.943   3.752   3.524 -0.0812 -0.1516 -0.6400
15227TIP3    H267173   2.998   3.613   3.542 -3.5355 -1.4088  1.1692
15228TIP3   OH267174   0.054   2.169  11.093 -0.0045  0.1309  0.2217
15228TIP3    H167175   0.081   2.261  11.100  1.0152  0.0203 -1.6613
15228TIP3    H267176  -0.010   2.158  11.163  1.6418  1.6010  2.0548
15229TIP3   OH267177   5.699   6.703   0.558 -0.3363 -0.1595 -0.2578
15229TIP3    H167178   5.614   6.679   0.594  0.0256  0.0358  0.7448
15229TIP3    H267179   5.711   6.643   0.484 -1.2339 -0.3388 -0.2729
15230TIP3   OH267180   5.688   0.429   4.193 -0.2886  0.1173 -0.3139
15230TIP3    H167181   5.728   0.517   4.189 -0.5350  0.3533  1.6845
15230TIP3    H267182   5.703   0.393   4.105  0.8841  1.6856 -0.8165
15231TIP3   OH267183   6.741   5.944  15.690 -0.2900  0.2454  0.1510
15231TIP3    H167184   6.811   5.920  15.628 -1.7940 -0.7080 -1.2545
15231TIP3    H267185   6.662   5.908  15.651 -1.3033 -0.4742  2.7190
15232TIP3   OH267186   3.388   5.213  13.691  0.4412 -0.2829 -0.6795
15232TIP3    H167187   3.429   5.273  13.753 -0.1555 -1.8763  1.3562
15232TIP3    H267188   3.302   5.196  13.727 -0.2392 -0.6752 -2.3882
15233TIP3   OH267189   6.249   5.139   5.260  0.0993  0.4210  0.5273
15233TIP3    H167190   6.155   5.156   5.247  0.4103  2.4353  0.6108
15233TIP3    H267191   6.256   5.044   5.255 -2.1672  0.0787  1.9917
15234TIP3   OH267192   4.204   5.653  14.669  0.3107  0.1211 -0.3229
15234TIP3    H167193   4.181   5.739  14.703  0.8218 -0.2497  1.0297
15234TIP3    H267194   4.167   5.592  14.733  0.6121 -0.6383 -0.8598
15235TIP3   OH267195   6.219   3.157   1.614 -0.1989  0.5485  0.0729
15235TIP3    H167196   6.193   3.249   1.606 -2.0272 -0.0047 -1.0464
15235TIP3    H267197   6.310   3.160   1.644 -0.2871  2.7083  0.2708
15236TIP3   OH267198   5.526   5.171  15.254  0.1516  0.6723  0.0126
15236TIP3    H167199   5.599   5.221  15.293 -0.1598  0.0917  1.4117
15236TIP3    H267200   5.550   5.163  15.162  2.6562 -0.7932  0.6846
15237TIP3   OH267201   2.644   1.619   2.286  0.0885 -0.0661  0.3521
15237TIP3    H167202   2.718   1.582   2.333  0.1814  0.8524  0.9759
15237TIP3    H267203   2.653   1.714   2.299 -1.0085  0.0758  0.1764
15238TIP3   OH267204   2.288   5.348   3.281 -0.2462  0.0572  0.5593
15238TIP3    H167205   2.202   5.306   3.275 -0.2901  0.0505  1.1855
15238TIP3    H267206   2.279   5.427   3.228 -0.2941 -0.4966 -0.2809
15239TIP3   OH267207   0.995   4.988   3.301 -0.3611  0.5291  0.0603
15239TIP3    H167208   0.914   4.958   3.343 -0.7208  1.2581 -0.1145
15239TIP3    H267209   1.059   4.920   3.324 -1.0302 -0.0953  0.1350
15240TIP3   OH267210   4.406   1.100  14.704  0.4274  0.1773 -0.1946
15240TIP3    H167211   4.443   1.119  14.790  1.7549 -0.0062 -0.7058
15240TIP3    H267212   4.363   1.015  14.715  1.0043 -0.0752  0.1708
15241TIP3   OH267213   3.013   0.237  14.004 -0.3450 -0.1413 -0.0058
15241TIP3    H167214   2.967   0.291  13.940  0.0241  0.2560  0.0585
15241TIP3    H267215   3.062   0.174  13.951 -2.0558 -1.5069 -0.0492
15242TIP3   OH267216   5.238   1.141  15.374 -0.3224 -0.0670  0.7760
15242TIP3    H167217   5.227   1.195  15.452  0.2412  0.3233  0.5942
15242TIP3    H267218   5.172   1.072  15.382  0.3390 -0.5673  2.0544
15243TIP3   OH267219   5.199   1.858  13.131 -0.0503  0.8338 -0.0292
15243TIP3    H167220   5.275   1.815  13.092 -0.1679 -0.3764  1.0020
15243TIP3    H267221   5.229   1.890  13.216 -0.4142  1.3060 -0.0720
15244TIP3   OH267222   6.650   1.829  13.071  0.1824  0.0947 -0.1892
15244TIP3    H167223   6.569   1.867  13.104 -0.3385 -0.9935 -0.1737
15244TIP3    H267224   6.622   1.754  13.019  1.0989  0.6786 -1.5891
15245TIP3   OH267225   5.436   3.258   3.616 -0.3131  0.1969  0.1893
15245TIP3    H167226   5.383   3.183   3.588 -0.3382 -0.2218  1.2952
15245TIP3    H267227   5.511   3.258   3.557 -0.6470 -0.3034 -0.2435
15246TIP3   OH267228   0.807   5.064   4.999  0.4868 -0.2219  0.9370
15246TIP3    H167229   0.713   5.046   4.992  0.7182 -1.0125 -0.3176
15246TIP3    H267230   0.833   5.092   4.912  1.2891  0.7337  1.4594
15247TIP3   OH267231   1.981   2.018   0.305  0.5560 -0.4364 -0.0243
15247TIP3    H167232   2.067   2.046   0.336 -0.2513  2.9186 -0.4807
15247TIP3    H267233   1.935   2.099   0.283 -2.4268 -2.1428 -0.6768
15248TIP3   OH267234   0.774   4.269  14.202  0.4599  0.1792 -0.1422
15248TIP3    H167235   0.681   4.282  14.182 -0.5605 -2.7204  2.0283
15248TIP3    H267236   0.816   4.265  14.116 -1.7259 -0.2627 -1.2815
15249TIP3   OH267237   2.499   0.399  12.673 -0.4100  0.1475 -0.5007
15249TIP3    H167238   2.542   0.365  12.752 -0.8411  1.3590  0.2745
15249TIP3    H267239   2.535   0.346  12.602  1.7314  0.5297  0.2242
15250TIP3   OH267240   3.358   6.186   5.244  0.4990  0.4590 -0.3494
15250TIP3    H167241   3.296   6.170   5.173 -0.8240  0.2096  0.8258
15250TIP3    H267242   3.316   6.251   5.299  1.1918  0.1384  0.5893
15251TIP3   OH267243   4.135   2.261   3.341  0.1191  0.0600  0.6683
15251TIP3    H167244   4.143   2.347   3.300 -0.1139 -0.0640  0.3519
15251TIP3    H267245   4.116   2.202   3.268  0.9953 -0.3827  0.7879
15252TIP3   OH267246   4.977   2.981   0.847 -0.7242  0.1250 -0.3354
15252TIP3    H167247   5.045   3.047   0.857 -1.0828  0.4310  0.1558
15252TIP3    H267248   4.999   2.914   0.911 -1.0906  0.4098  0.0977
15253TIP3   OH267249   0.639   4.451   0.099  0.0292 -0.0367 -0.5045
15253TIP3    H167250   0.682   4.396   0.033 -1.5341 -2.3379  0.2781
15253TIP3    H267251   0.546   4.433   0.088 -0.5774  2.4689 -0.1309
15254TIP3   OH267252   4.745   6.173   4.028 -0.6332 -0.3599 -0.1526
15254TIP3    H167253   4.813   6.106   4.017 -0.3282  0.0373 -0.7528
15254TIP3    H267254   4.785   6.253   3.995 -0.9313  0.1683  0.7155
15255TIP3   OH267255   1.938   6.258  16.371 -0.3364 -0.3046  0.3823
15255TIP3    H167256   1.953   6.165  16.358 -1.2070 -0.4358  0.3022
15255TIP3    H267257   2.024   6.298  16.356 -0.3879 -0.8760 -1.7584
15256TIP3   OH267258   4.425   4.360  15.232 -0.2280 -0.2506  0.0633
15256TIP3    H167259   4.348   4.355  15.289  0.6245  0.0394  1.2830
15256TIP3    H267260   4.420   4.448  15.194 -0.3925 -0.1591  0.2885
15257TIP3   OH267261   3.326   5.588   0.138  0.2004  0.0884  0.7980
15257TIP3    H167262   3.342   5.508   0.188 -1.8081 -0.1326  1.2081
15257TIP3    H267263   3.398   5.646   0.161  0.9672 -1.1224  1.5517
15258TIP3   OH267264   0.261   2.566  14.375  0.1125  0.2697  0.2116
15258TIP3    H167265   0.173   2.604  14.379 -0.1117 -0.3272  1.0249
15258TIP3    H267266   0.274   2.548  14.282 -2.3531 -3.5531  0.3846
15259TIP3   OH267267   0.829   2.321  11.014  0.1387 -0.5619 -0.0837
15259TIP3    H167268   0.919   2.350  11.028  0.2285 -0.2460 -1.1833
15259TIP3    H267269   0.784   2.337  11.097  1.0347 -0.5087  0.4007
15260TIP3   OH267270   2.000   1.349  14.149  0.1730 -0.5043  0.2379
15260TIP3    H167271   2.033   1.260  14.159  0.0479 -0.5375  0.3598
15260TIP3    H267272   1.937   1.359  14.220  0.0532 -0.3797  0.1148
15261TIP3   OH267273   3.504   1.032  16.071  0.9148  0.2225  0.3829
15261TIP3    H167274   3.505   1.128  16.073  1.1880  0.3052 -1.6643
15261TIP3    H267275   3.414   1.009  16.049  0.9608  0.0311  0.3966
15262TIP3   OH267276   6.559   5.108   3.075 -0.2690 -0.2501 -0.3900
15262TIP3    H167277   6.539   5.020   3.107 -0.7790  0.0882  0.2455
15262TIP3    H267278   6.622   5.094   3.004 -1.8085 -1.2454 -1.6180
15263TIP3   OH267279   2.131   3.608   0.871 -0.0759 -0.5049  0.3454
15263TIP3    H167280   2.120   3.521   0.908  2.3188 -1.5323 -1.1288
15263TIP3    H267281   2.191   3.653   0.931 -1.5366  0.2920  1.2631
15264TIP3   OH267282   4.658   0.789   1.999  0.0340  0.0615 -0.0992
15264TIP3    H167283   4.738   0.771   1.948 -0.0963 -1.6829  0.2674
15264TIP3    H267284   4.589   0.744   1.951 -0.2216 -0.9424  1.1761
15265TIP3   OH267285   3.081   0.617   2.070  0.7118  0.5846 -0.1267
15265TIP3    H167286   3.149   0.550   2.058 -0.1424 -0.5185  0.9749
15265TIP3    H267287   2.999   0.568   2.073 -0.2539  1.9418 -2.0823
15266TIP3   OH267288   3.820   2.354   4.785 -0.1025 -0.6684 -0.4261
15266TIP3    H167289   3.892   2.406   4.821 -0.9622  0.7061 -0.6308
15266TIP3    H267290   3.750   2.361   4.851 -1.4730  1.3526 -1.9620
15267TIP3   OH267291   6.282   4.745   5.636  0.0201  0.0407 -0.4581
15267TIP3    H167292   6.350   4.804   5.669 -0.1206 -0.1514  0.1909
15267TIP3    H267293   6.204   4.766   5.689 -0.0208 -0.7474 -0.1950
15268TIP3   OH267294   3.348   5.653   0.697 -0.1061 -0.4497  0.0023
15268TIP3    H167295   3.391   5.716   0.755 -1.5066  0.0204  0.5729
15268TIP3    H267296   3.265   5.635   0.739 -0.0217 -2.1855 -0.5169
15269TIP3   OH267297   3.920   0.637  14.549 -0.2192  0.5504 -0.1397
15269TIP3    H167298   3.879   0.678  14.626  1.0031 -2.7110  2.5122
15269TIP3    H267299   3.856   0.572  14.520 -0.4525  1.4153 -1.6492
15270TIP3   OH267300   5.225   4.287  14.554 -0.0374 -0.0463  0.0999
15270TIP3    H167301   5.176   4.215  14.593  1.7694 -1.0872  0.5969
15270TIP3    H267302   5.235   4.351  14.626 -2.1229  1.0455 -0.4932
15271TIP3   OH267303   6.244   1.702  14.734  0.1646 -0.4501  0.2174
15271TIP3    H167304   6.282   1.704  14.647  0.1371 -0.2293  0.2084
15271TIP3    H267305   6.316   1.724  14.793 -0.1464  0.9751  0.1208
15272TIP3   OH267306   2.375   2.689  16.048  0.4044 -0.2177  0.0742
15272TIP3    H167307   2.432   2.747  16.097  1.1814 -1.1313  0.2700
15272TIP3    H267308   2.369   2.610  16.102  0.6892 -0.9532 -0.9461
15273TIP3   OH267309   3.763   2.182  12.908 -0.1609  0.4853  0.0644
15273TIP3    H167310   3.699   2.184  12.837  0.0654  0.3289 -0.1459
15273TIP3    H267311   3.817   2.105  12.890  0.5138  0.9910 -0.1387
15274TIP3   OH267312   0.735   5.980  12.045 -0.0320 -0.8095  0.2934
15274TIP3    H167313   0.685   6.034  12.106 -1.9657 -1.3633 -0.7278
15274TIP3    H267314   0.788   5.924  12.102  0.6554  0.8700  1.3864
15275TIP3   OH267315   2.945   4.078   4.910 -0.0798 -0.1150  0.7166
15275TIP3    H167316   2.950   4.088   5.005  1.6414  1.0034  0.5547
15275TIP3    H267317   3.021   4.026   4.887 -0.9687 -1.1430  0.0074
15276TIP3   OH267318   5.229   5.174   0.354 -0.2334 -0.5565  0.5609
15276TIP3    H167319   5.289   5.158   0.281  0.6811  0.1256  1.1342
15276TIP3    H267320   5.173   5.246   0.324 -1.4774 -1.8535 -0.3623
15277TIP3   OH267321   3.281   0.269   0.478 -0.1020  0.4658 -0.2292
15277TIP3    H167322   3.358   0.259   0.423  0.1836 -1.6726  0.4701
15277TIP3    H267323   3.222   0.325   0.427 -0.1160 -1.8874 -3.0546
15278TIP3   OH267324   1.889   4.980  15.428 -0.0806 -0.3920 -0.6731
15278TIP3    H167325   1.969   4.964  15.378  2.2005  1.2224  2.1857
15278TIP3    H267326   1.884   4.906  15.489 -1.1986 -0.8365 -1.2819
15279TIP3   OH267327   5.516   1.283   2.779 -0.3559 -0.3238  0.6833
15279TIP3    H167328   5.519   1.237   2.863 -2.0187  1.4448  1.7734
15279TIP3    H267329   5.431   1.326   2.778 -0.0520  0.3526 -1.5838
15280TIP3   OH267330   5.263   4.686   4.105 -0.1791 -0.0580  1.0239
15280TIP3    H167331   5.168   4.683   4.092 -0.0657  0.6602 -0.1556
15280TIP3    H267332   5.296   4.614   4.051  0.0663  0.8448 -0.0508
15281TIP3   OH267333   4.125   2.766   1.810  0.0233 -0.1895 -0.3814
15281TIP3    H167334   4.215   2.735   1.818 -0.2887 -0.8537  0.7387
15281TIP3    H267335   4.130   2.841   1.751  1.4354  0.3476  0.3990
15282TIP3   OH267336   5.204   2.012  11.194 -0.0564  0.6451 -0.0421
15282TIP3    H167337   5.264   2.024  11.268  2.3002  0.3926 -1.7679
15282TIP3    H267338   5.119   1.997  11.234  1.1530  0.2235  2.6174
15283TIP3   OH267339   0.785   4.180  11.362 -0.0845  0.0368 -0.7449
15283TIP3    H167340   0.809   4.272  11.351  1.1935  0.0167  1.3424
15283TIP3    H267341   0.868   4.133  11.359 -0.0698 -0.4717  2.8900
15284TIP3   OH267342   1.310   6.533  11.498  0.0500 -0.0812 -0.1916
15284TIP3    H167343   1.363   6.470  11.548  0.2453  0.7248  0.6393
15284TIP3    H267344   1.342   6.619  11.527 -0.9335  0.4053 -0.5302
15285TIP3   OH267345   3.833   5.635   2.934  0.1837  0.5855  0.1098
15285TIP3    H167346   3.839   5.604   3.024 -1.7903  1.0420  0.4655
15285TIP3    H267347   3.873   5.722   2.936  0.3202  0.5166  0.4999
15286TIP3   OH267348   2.284   4.906   4.843 -0.6473 -0.3645 -0.4053
15286TIP3    H167349   2.380   4.912   4.844 -0.6480  0.0141  1.2847
15286TIP3    H267350   2.262   4.882   4.753  1.0638 -1.0214 -0.6905
15287TIP3   OH267351   6.691   0.993   5.354 -0.0571 -0.3881  0.0788
15287TIP3    H167352   6.770   0.943   5.333 -0.0935 -1.0201  1.3287
15287TIP3    H267353   6.707   1.028   5.441 -0.9634 -0.1405  0.1574
15288TIP3   OH267354   3.102   0.423  14.991 -0.1882  0.3167  0.7906
15288TIP3    H167355   3.069   0.503  15.032 -0.1409  0.0534  1.3643
15288TIP3    H267356   3.182   0.450  14.945  1.0454  0.2348  2.7602
15289TIP3   OH267357   3.079   1.782  12.495  0.8958 -0.3478 -1.0631
15289TIP3    H167358   3.151   1.821  12.544  0.4344  0.5210 -1.0641
15289TIP3    H267359   3.051   1.850  12.435  2.0857 -1.6790 -3.2849
15290TIP3   OH267360   3.479   1.725  16.359  0.0486 -0.0562  0.4356
15290TIP3    H167361   3.474   1.732  16.454  0.4706 -1.2708  0.5672
15290TIP3    H267362   3.492   1.631  16.343  1.5325  0.3121 -0.7429
15291TIP3   OH267363   6.483   3.975   0.586 -0.4556 -0.5991  0.2204
15291TIP3    H167364   6.472   3.997   0.494  0.9393 -0.5986  0.0239
15291TIP3    H267365   6.555   3.911   0.587  0.4694  0.4156  1.4079
15292TIP3   OH267366   1.479   4.707   1.822 -0.1427 -0.2881 -0.1236
15292TIP3    H167367   1.403   4.765   1.826 -0.2338 -0.2836 -1.4602
15292TIP3    H267368   1.520   4.716   1.908 -0.1048  1.8465 -0.2979
15293TIP3   OH267369   3.808   4.346   2.184  0.1009 -0.5581  0.0770
15293TIP3    H167370   3.844   4.386   2.262 -2.0038 -0.1318  0.8997
15293TIP3    H267371   3.749   4.278   2.217  0.4309 -1.5115 -1.1980
15294TIP3   OH267372   4.499   5.071   4.934  0.1830  0.5569  0.3632
15294TIP3    H167373   4.570   5.007   4.924 -0.1428  0.3929 -0.9906
15294TIP3    H267374   4.420   5.018   4.943 -0.2473  0.7241 -1.9437
15295TIP3   OH267375   6.090   2.112   2.079 -0.3997 -0.1650 -0.6313
15295TIP3    H167376   6.177   2.144   2.054 -0.8540 -0.7953 -3.3678
15295TIP3    H267377   6.030   2.174   2.038 -1.3013  0.7246  1.8987
15296TIP3   OH267378   6.228   3.510   2.060  0.1292 -0.3625  0.0411
15296TIP3    H167379   6.212   3.518   2.154  0.1414 -0.7737  0.0821
15296TIP3    H267380   6.203   3.420   2.039 -0.1180 -0.1955 -0.4004
15297TIP3   OH267381   2.840   1.397   2.403 -0.1276  0.5575  0.1405
15297TIP3    H167382   2.902   1.324   2.406 -0.3674  0.1726 -2.1737
15297TIP3    H267383   2.894   1.475   2.415  0.0734  0.0713  3.1492
15298TIP3   OH267384   1.440   3.102   2.394  0.0145  0.3845  0.6076
15298TIP3    H167385   1.492   3.023   2.406 -0.5883 -0.0541  0.3385
15298TIP3    H267386   1.485   3.149   2.323 -1.5945 -1.4348 -1.7808
15299TIP3   OH267387   4.507   0.154   6.388  0.0715  0.1442 -0.3340
15299TIP3    H167388   4.419   0.124   6.365 -0.5637  1.1121  0.7107
15299TIP3    H267389   4.533   0.098   6.460 -0.7959  1.4803  1.0944
15300TIP3   OH267390   2.811   1.648  12.928  0.1702 -0.3743  0.3961
15300TIP3    H167391   2.781   1.694  13.006  0.2600 -0.4011  0.4473
15300TIP3    H267392   2.896   1.689  12.908  0.8182 -1.2996  1.1245
15301TIP3   OH267393   6.143   1.390   2.886 -0.5727 -0.0058 -0.0465
15301TIP3    H167394   6.160   1.303   2.849 -0.9167  0.5022 -1.4689
15301TIP3    H267395   6.174   1.384   2.976  0.7729 -1.1680 -0.5471
15302TIP3   OH267396   4.014   2.788   4.978 -0.0710  0.1784 -0.2052
15302TIP3    H167397   4.020   2.860   5.041 -3.0814  1.1435 -0.8737
15302TIP3    H267398   3.974   2.827   4.900 -0.7533 -1.9938 -1.0145
15303TIP3   OH267399   4.493   4.169  12.130  0.0783  1.0849 -0.0595
15303TIP3    H167400   4.444   4.236  12.082 -0.7650  1.4851  1.2988
15303TIP3    H267401   4.427   4.124  12.181  0.4320 -1.6079 -1.7837
15304TIP3   OH267402   3.039   5.957   0.152 -0.0329  0.2289  0.0565
15304TIP3    H167403   3.091   5.884   0.187  0.9808  0.6322 -0.5408
15304TIP3    H267404   3.005   5.924   0.069  1.6734  0.8866 -0.9623
15305TIP3   OH267405   0.357   2.202   1.815 -0.2510 -0.1427 -0.5702
15305TIP3    H167406   0.319   2.232   1.732  3.2653  0.0792 -2.3316
15305TIP3    H267407   0.400   2.119   1.793 -0.6001 -0.9275  1.4874
15306TIP3   OH267408   4.977   3.312   1.583  0.8094  0.7291 -0.1158
15306TIP3    H167409   4.885   3.318   1.610  1.6516  0.7437  3.0775
15306TIP3    H267410   4.992   3.392   1.533 -0.7882  0.9158 -0.3476
15307TIP3   OH267411   4.337   4.739   1.376  0.6617 -0.6472  0.3537
15307TIP3    H167412   4.293   4.794   1.311 -0.8778 -2.0662  0.1555
15307TIP3    H267413   4.283   4.747   1.455  0.7912 -1.3606  0.5224
15308TIP3   OH267414   1.467   4.560   0.027 -0.0521  0.0821 -0.5950
15308TIP3    H167415   1.437   4.641   0.067  0.7191  1.1606 -2.1155
15308TIP3    H267416   1.559   4.553   0.053  0.1724  0.2612 -1.3158
15309TIP3   OH267417   1.719   6.598   3.761  0.7271  0.0015 -0.0902
15309TIP3    H167418   1.652   6.614   3.826  0.2433 -0.4460 -0.4676
15309TIP3    H267419   1.694   6.515   3.721  0.5006  0.6945 -1.4617
15310TIP3   OH267420   5.623   3.673   3.437  0.2872 -0.0237 -0.8301
15310TIP3    H167421   5.529   3.656   3.435  0.4478 -0.9190 -1.4163
15310TIP3    H267422   5.631   3.765   3.415 -0.5306  0.4480  0.7050
15311TIP3   OH267423   1.250   3.463   4.920  0.5355 -0.5962  0.2911
15311TIP3    H167424   1.230   3.468   5.013 -1.1739 -0.2036 -0.0583
15311TIP3    H267425   1.219   3.547   4.884 -1.1522 -1.6973 -0.9997
15312TIP3   OH267426   6.136   2.876   4.615  0.2356  0.1055  0.4213
15312TIP3    H167427   6.144   2.967   4.644 -0.4537 -0.3401  2.0861
15312TIP3    H267428   6.045   2.866   4.590  0.8789  0.6015 -2.5648
15313TIP3   OH267429   3.714   2.912  15.283  0.3749  0.2536  0.0481
15313TIP3    H167430   3.766   2.841  15.320 -0.7298 -0.6037  0.0117
15313TIP3    H267431   3.764   2.941  15.206  1.3727  0.2680  0.6933
15314TIP3   OH267432   0.540   5.982  15.358 -0.3545  0.2634 -0.3039
15314TIP3    H167433   0.497   5.922  15.418 -2.5825  0.9321 -1.1243
15314TIP3    H267434   0.471   6.042  15.331  1.2288  1.6828 -1.3947
15315TIP3   OH267435   4.534   0.329   4.866  0.2845 -0.3632  0.1235
15315TIP3    H167436   4.580   0.386   4.804  1.0229 -0.3643  0.6584
15315TIP3    H267437   4.470   0.282   4.812 -0.3108  0.9321 -0.3309
15316TIP3   OH267438   2.023   0.436   0.980  0.0087 -0.2999 -0.2595
15316TIP3    H167439   2.076   0.368   0.939 -0.4090  0.4375 -2.1247
15316TIP3    H267440   1.932   0.408   0.963 -0.1684  0.2060 -0.1542
15317TIP3   OH267441   5.782   5.363   5.183  0.4347 -0.2009 -0.2590
15317TIP3    H167442   5.823   5.277   5.181  1.9322  0.3482  2.2276
15317TIP3    H267443   5.820   5.410   5.109  1.7670 -0.8022  0.0101
15318TIP3   OH267444   4.666   1.960  13.801  0.0338 -0.0653 -0.5470
15318TIP3    H167445   4.749   1.916  13.819 -0.3469 -0.0060  1.6820
15318TIP3    H267446   4.638   1.926  13.716  1.4125 -1.5063 -0.4660
15319TIP3   OH267447   4.433   1.386   1.938 -0.4039 -0.2600  0.0453
15319TIP3    H167448   4.474   1.339   2.010 -0.1237  0.5742  0.4399
15319TIP3    H267449   4.506   1.429   1.893 -0.8917  1.9082  1.2316
15320TIP3   OH267450   3.161   3.337   1.347  0.6394 -0.3096 -0.0832
15320TIP3    H167451   3.223   3.280   1.302  0.9403  0.7363 -1.0382
15320TIP3    H267452   3.086   3.281   1.366  1.0692 -1.0982 -0.6723
15321TIP3   OH267453   6.377   0.988   1.373 -0.0310 -0.0307 -0.3462
15321TIP3    H167454   6.395   1.079   1.347  2.9116 -0.5286 -0.3999
15321TIP3    H267455   6.441   0.970   1.442 -1.0701 -1.8560  0.2009
15322TIP3   OH267456   3.748   5.670  11.699  0.0098 -0.3385  0.1352
15322TIP3    H167457   3.763   5.579  11.672  1.3488 -0.1498  0.1623
15322TIP3    H267458   3.688   5.663  11.773  0.3301 -1.2378  0.3332
15323TIP3   OH267459   0.886   1.262  15.193  0.3701 -0.3961 -0.0977
15323TIP3    H167460   0.936   1.341  15.178  2.0341 -1.4422 -0.2824
15323TIP3    H267461   0.794   1.290  15.190  0.9243  1.5153 -0.0030
15324TIP3   OH267462   0.146   5.877  16.833  0.2780 -0.3881 -0.3314
15324TIP3    H167463   0.226   5.841  16.871  1.3059 -0.0709 -2.1128
15324TIP3    H267464   0.173   5.957  16.788 -0.6210 -1.2803 -2.6425
15325TIP3   OH267465   4.436   4.753  12.289 -0.0369  0.2517 -0.1985
15325TIP3    H167466   4.523   4.763  12.251  0.1975 -0.2984  0.1998
15325TIP3    H267467   4.432   4.662  12.318 -0.6367  0.3525  0.0472
15326TIP3   OH267468   6.757   2.658   4.477  0.3885 -0.1126  0.4043
15326TIP3    H167469   6.789   2.608   4.551  2.2193  0.1469 -0.1632
15326TIP3    H267470   6.729   2.742   4.514  2.3549  0.4574  0.7080
15327TIP3   OH267471   0.533   3.861   2.120  0.5123  0.0643  0.1599
15327TIP3    H167472   0.583   3.807   2.180  2.2401  1.5058  0.0991
15327TIP3    H267473   0.591   3.934   2.099 -1.2387  1.2814 -0.7391
15328TIP3   OH267474   6.740   6.255   1.129 -0.0805  0.4824  0.1353
15328TIP3    H167475   6.666   6.199   1.105  1.0807 -0.7008 -0.8696
15328TIP3    H267476   6.707   6.344   1.117 -1.0059 -0.0262 -1.4617
15329TIP3   OH267477   1.046   1.938  15.942 -0.8492  0.4884  0.1006
15329TIP3    H167478   0.993   1.890  15.878 -1.9897  0.9833  0.6468
15329TIP3    H267479   1.092   1.870  15.991  1.9854  0.1138 -2.7449
15330TIP3   OH267480   5.911   2.762   3.967 -0.4706  0.1692 -0.3970
15330TIP3    H167481   5.865   2.697   4.020  0.1635 -0.4780 -0.6222
15330TIP3    H267482   5.962   2.710   3.904  1.0985  0.8350  0.2786
15331TIP3   OH267483   3.157   1.473   3.664 -0.5381 -0.2429 -0.4578
15331TIP3    H167484   3.115   1.387   3.667 -0.0112 -0.4867  0.7362
15331TIP3    H267485   3.163   1.500   3.756  0.4021  0.5220 -0.7172
15332TIP3   OH267486   4.920   4.298   4.159  0.1010  0.5291 -0.0915
15332TIP3    H167487   4.875   4.370   4.204  0.4399  1.5819 -1.3798
15332TIP3    H267488   4.892   4.219   4.206  0.7426  1.5929  2.1969
15333TIP3   OH267489   0.385   1.290   3.834  0.4665 -0.0913  0.0795
15333TIP3    H167490   0.322   1.361   3.849 -0.5354 -0.8200 -0.4772
15333TIP3    H267491   0.393   1.286   3.739  0.9872 -0.3364  0.1318
15334TIP3   OH267492   3.227   6.281  16.293 -0.1907 -0.9453 -0.1554
15334TIP3    H167493   3.239   6.270  16.199 -1.5901 -2.8716 -0.1794
15334TIP3    H267494   3.290   6.221  16.333 -0.6013 -1.2216  0.0845
15335TIP3   OH267495   6.158   4.000   1.773 -0.0357 -0.0790 -0.5497
15335TIP3    H167496   6.237   4.042   1.805  0.2146 -1.9749  1.5811
15335TIP3    H267497   6.176   3.906   1.777 -1.9739 -0.5402 -1.1230
15336TIP3   OH267498   4.035   2.300   2.025 -0.0749  0.5950 -0.2000
15336TIP3    H167499   4.101   2.354   2.070  0.0309  3.7173 -3.6318
15336TIP3    H267500   3.952   2.328   2.063  0.2466  0.0019  0.9790
15337TIP3   OH267501   4.430   4.217   5.357  0.6352  0.5746  0.1325
15337TIP3    H167502   4.467   4.304   5.342 -0.8568  1.2738  0.3030
15337TIP3    H267503   4.500   4.167   5.399  1.5499  1.6591 -0.0728
15338TIP3   OH267504   5.201   0.569   0.060  0.1656  0.1797 -0.2699
15338TIP3    H167505   5.192   0.526   0.145  1.2365 -0.1738 -0.3173
15338TIP3    H267506   5.111   0.579   0.029 -0.1547 -2.5422 -0.4989
15339TIP3   OH267507   1.239   2.303  15.802 -0.1507  0.0804  0.5540
15339TIP3    H167508   1.201   2.222  15.767 -0.8177  0.7344 -0.2742
15339TIP3    H267509   1.176   2.371  15.780  1.9386  1.4043 -1.8559
15340TIP3   OH267510   5.642   0.296  12.886 -0.4141 -0.3975 -0.5540
15340TIP3    H167511   5.569   0.292  12.948  0.3892 -1.7854  0.3592
15340TIP3    H267512   5.635   0.382  12.846 -1.0901  0.4908  1.3394
15341TIP3   OH267513   5.808   0.107  11.271 -0.1601  0.3437 -0.6282
15341TIP3    H167514   5.807   0.057  11.353  0.2931  1.4582  0.0893
15341TIP3    H267515   5.843   0.047  11.206  4.0319  0.7655  0.9407
15342TIP3   OH267516   3.669   5.787  11.116  0.1629 -0.5145 -0.3649
15342TIP3    H167517   3.674   5.770  11.210 -0.7251 -0.8829 -0.3769
15342TIP3    H267518   3.713   5.713  11.076  0.2004 -0.5533 -0.2524
15343TIP3   OH267519   0.390   4.150   3.347 -0.0396  0.4218  0.3611
15343TIP3    H167520   0.430   4.236   3.343  1.6885 -0.3591  0.0210
15343TIP3    H267521   0.453   4.092   3.305 -1.6729 -0.8441 -0.4994
15344TIP3   OH267522   3.871   3.747   1.766 -0.5110 -0.4509  0.3884
15344TIP3    H167523   3.870   3.656   1.736  0.3064 -1.2307  2.5417
15344TIP3    H267524   3.954   3.755   1.813  0.6979  2.1938 -1.9025
15345TIP3   OH267525   2.891   0.324  11.613  0.4924  0.9012  1.0573
15345TIP3    H167526   2.899   0.415  11.644 -0.9628  1.0403  1.1024
15345TIP3    H267527   2.797   0.313  11.598  0.5749 -0.7911  1.6468
15346TIP3   OH267528   6.100   1.036   2.068  0.4099 -0.0372  0.2654
15346TIP3    H167529   6.090   1.109   2.129  0.9036  0.5960 -0.3871
15346TIP3    H267530   6.121   0.961   2.123  1.2381  0.6061  0.8442
15347TIP3   OH267531   0.307   4.878  14.396  0.8615 -0.4544 -0.0724
15347TIP3    H167532   0.322   4.808  14.332 -0.5486 -0.4142 -0.4839
15347TIP3    H267533   0.262   4.835  14.468  0.3806 -0.0636 -0.1331
15348TIP3   OH267534   3.467   1.490  12.469 -0.5109 -0.8025 -0.2230
15348TIP3    H167535   3.378   1.456  12.478 -1.0879  0.3246 -1.4039
15348TIP3    H267536   3.503   1.443  12.394 -0.7790  0.0736 -0.9109
15349TIP3   OH267537   0.572   3.337   5.168  0.6734  0.5815  0.0795
15349TIP3    H167538   0.643   3.323   5.105 -1.1282  0.1256 -1.9480
15349TIP3    H267539   0.558   3.251   5.208  0.7283  0.4871 -0.1044
15350TIP3   OH267540   4.306   2.352  11.780 -0.2074 -0.8088 -0.0674
15350TIP3    H167541   4.327   2.385  11.693 -0.1979 -0.5404  0.0361
15350TIP3    H267542   4.269   2.428  11.826 -0.0121 -0.8954  0.2307
15351TIP3   OH267543   4.688   2.407   0.292 -0.1250  0.2512  0.4378
15351TIP3    H167544   4.771   2.403   0.339 -0.9323 -1.5427  1.7908
15351TIP3    H267545   4.628   2.450   0.352 -0.3733  0.9503 -0.2835
15352TIP3   OH267546   6.157   5.707   1.940  0.1291 -0.1508  0.2033
15352TIP3    H167547   6.182   5.646   1.870  0.3095  1.4289 -1.1683
15352TIP3    H267548   6.065   5.725   1.925  0.7498  2.2154 -1.3388
15353TIP3   OH267549   2.096   5.559  17.145 -0.5432 -0.4886  0.2638
15353TIP3    H167550   2.153   5.627  17.109 -0.7002 -0.5712 -0.1462
15353TIP3    H267551   2.151   5.511  17.206 -0.1744 -0.5670 -0.1283
15354TIP3   OH267552   6.327   6.772   4.583  0.8187 -0.2613  0.6245
15354TIP3    H167553   6.322   6.777   4.488  1.6295 -3.1070  0.3371
15354TIP3    H267554   6.239   6.795   4.613 -0.0003 -1.1440 -0.9588
15355TIP3   OH267555   0.155   5.374   3.738  0.2496 -0.0311  0.6225
15355TIP3    H167556   0.106   5.399   3.816 -0.4202  4.3816 -0.9521
15355TIP3    H267557   0.234   5.428   3.741  0.9979 -0.9679 -0.9992
15356TIP3   OH267558   4.795   6.625   4.103 -0.0688 -0.0126  0.1406
15356TIP3    H167559   4.828   6.580   4.181 -1.5788 -0.0815  0.7767
15356TIP3    H267560   4.780   6.715   4.132 -0.0065  0.1282 -0.2567
15357TIP3   OH267561   2.400   1.707   0.307 -0.7268  0.1772  0.4132
15357TIP3    H167562   2.455   1.782   0.284  2.8443 -1.7338  1.8141
15357TIP3    H267563   2.408   1.700   0.402 -1.5154 -1.5547  0.3931
15358TIP3   OH267564   6.030   3.499  11.540 -0.6052  0.1823  0.1190
15358TIP3    H167565   6.094   3.571  11.535 -0.1547 -0.2683 -0.7819
15358TIP3    H267566   6.057   3.438  11.471 -1.0729 -0.7880  0.7719
15359TIP3   OH267567   4.617   1.022   3.004 -0.2283 -0.1559  0.0955
15359TIP3    H167568   4.587   0.934   2.980 -0.4242 -0.1237  0.2227
15359TIP3    H267569   4.702   1.008   3.046  0.8515 -0.1093 -1.9074
15360TIP3   OH267570   0.198   0.263   2.155  0.4741 -0.1965 -0.1067
15360TIP3    H167571   0.165   0.343   2.113  2.5963  0.7005 -0.2040
15360TIP3    H267572   0.274   0.293   2.205  1.6445 -2.2626 -0.5793
15361TIP3   OH267573   0.615   3.647  14.295  0.2127  0.7725  0.4402
15361TIP3    H167574   0.596   3.723  14.350  0.4159  1.5823 -0.5753
15361TIP3    H267575   0.538   3.639  14.239  0.6607  0.9419 -0.2200
15362TIP3   OH267576   3.329   1.167  10.893  0.7755 -0.6781 -0.4472
15362TIP3    H167577   3.303   1.249  10.935  0.3576 -0.5389 -0.9638
15362TIP3    H267578   3.281   1.100  10.941 -0.0390 -0.4810 -0.9550
15363TIP3   OH267579   5.509   0.385   3.889 -0.0590 -0.2307 -0.3562
15363TIP3    H167580   5.605   0.379   3.885  0.1575  1.8100  0.4770
15363TIP3    H267581   5.480   0.296   3.907  1.7829 -0.6263  0.9056
15364TIP3   OH267582   2.339   4.163  13.789 -0.1569 -0.2270  0.6515
15364TIP3    H167583   2.367   4.162  13.880 -0.9574  0.4385  0.9161
15364TIP3    H267584   2.258   4.214  13.789  0.1619  0.3292 -0.5168
15365TIP3   OH267585   4.886   1.502   3.910 -0.2596  0.1996  0.0435
15365TIP3    H167586   4.953   1.566   3.889  1.5175 -1.7634 -0.6647
15365TIP3    H267587   4.812   1.524   3.852  1.0997  0.3862 -1.7050
15366TIP3   OH267588   4.909   6.213  11.648 -0.2204 -0.5127  0.1134
15366TIP3    H167589   4.955   6.150  11.592 -0.2016 -1.0693  0.7537
15366TIP3    H267590   4.979   6.264  11.689 -0.1417 -1.5442  1.3043
15367TIP3   OH267591   5.974   4.303  15.695  0.0035  0.2782 -0.1172
15367TIP3    H167592   5.991   4.266  15.609  2.9454 -0.1606  0.5443
15367TIP3    H267593   5.881   4.287  15.711 -0.1895 -1.2625 -2.4158
15368TIP3   OH267594   2.527   2.542   1.729 -0.2028 -0.7045  0.5493
15368TIP3    H167595   2.533   2.531   1.634  0.3360  0.1198  0.4857
15368TIP3    H267596   2.436   2.568   1.744 -0.3818 -1.1707  0.2974
15369TIP3   OH267597   4.671   5.205   2.594 -0.1058  0.2386  0.2708
15369TIP3    H167598   4.706   5.196   2.506  0.4834 -0.1173  0.5310
15369TIP3    H267599   4.592   5.152   2.595  0.8207 -1.1913  0.4420
15370TIP3   OH267600   2.593   0.177  10.982  0.0560  0.1298  0.1787
15370TIP3    H167601   2.582   0.104  10.921  0.1959  1.7061 -1.8585
15370TIP3    H267602   2.688   0.184  10.993  0.0176 -0.4059  0.9544
15371TIP3   OH267603   5.176   5.059   2.446  0.1607 -0.1573  0.5628
15371TIP3    H167604   5.140   5.049   2.534 -0.0945 -0.5319  0.4192
15371TIP3    H267605   5.164   5.151   2.425  1.0594  0.1364  1.2809
15372TIP3   OH267606   6.173   0.634  12.215  0.1203 -0.3714 -0.7586
15372TIP3    H167607   6.208   0.723  12.226 -0.0253 -0.5843  2.0068
15372TIP3    H267608   6.083   0.641  12.244  0.2371 -1.5171 -0.1019
15373TIP3   OH267609   4.845   5.328  14.589  0.2428 -0.0463  0.2547
15373TIP3    H167610   4.778   5.371  14.641 -0.4145  0.1188 -0.6943
15373TIP3    H267611   4.802   5.311  14.505  1.0147 -1.0287  0.0399
15374TIP3   OH267612   4.612   6.331  14.839  0.2078  0.2239  0.1077
15374TIP3    H167613   4.587   6.363  14.925 -0.9877 -1.6372  0.5186
15374TIP3    H267614   4.685   6.271  14.856  0.0244 -0.0838 -0.1731
15375TIP3   OH267615   3.417   2.608  13.012  0.0593  0.1234  0.1081
15375TIP3    H167616   3.446   2.588  12.923  1.7564  0.5100  0.5229
15375TIP3    H267617   3.450   2.696  13.028  0.1932 -0.1207  1.2663
15376TIP3   OH267618   3.417   0.414  15.343 -0.1867 -0.2665 -0.1166
15376TIP3    H167619   3.410   0.350  15.273 -0.4453 -1.3035  0.8308
15376TIP3    H267620   3.501   0.395  15.385 -0.5223 -0.3606  0.5230
15377TIP3   OH267621   2.163   2.716  12.712  0.3974 -0.0880  0.1509
15377TIP3    H167622   2.103   2.642  12.705  0.6133 -0.3062  0.5695
15377TIP3    H267623   2.127   2.770  12.783 -0.2538  0.6779 -0.7365
15378TIP3   OH267624   1.906   4.536   3.165  0.4867 -0.4000 -0.2928
15378TIP3    H167625   1.912   4.453   3.212 -2.1886 -1.3643 -1.4610
15378TIP3    H267626   1.833   4.582   3.206  1.1487  0.8455 -0.4589
15379TIP3   OH267627   4.482   0.313  11.416  0.1751 -0.2507  0.1885
15379TIP3    H167628   4.516   0.390  11.462  1.5680 -0.5711 -0.2423
15379TIP3    H267629   4.473   0.343  11.325 -2.1026  0.2391  0.5084
15380TIP3   OH267630   2.249   1.108   5.518 -0.3456  0.2965 -0.5990
15380TIP3    H167631   2.263   1.201   5.535 -0.9164  0.5065 -1.2377
15380TIP3    H267632   2.327   1.065   5.553 -0.4462  0.9264  0.4291
15381TIP3   OH267633   5.280   0.584   2.239 -0.0166  0.9045  0.0411
15381TIP3    H167634   5.256   0.623   2.156 -1.2496 -1.0163 -0.5806
15381TIP3    H267635   5.243   0.643   2.305 -1.9287  0.7853 -0.8448
15382TIP3   OH267636   0.535   4.898   0.294  0.3335  0.2133 -0.6988
15382TIP3    H167637   0.546   4.808   0.262  2.0909  0.6690 -1.5094
15382TIP3    H267638   0.533   4.889   0.390 -2.3381 -0.9047 -0.7639
15383TIP3   OH267639   5.272   6.290   0.630 -0.0119  0.2234  0.4760
15383TIP3    H167640   5.281   6.282   0.535  1.3478  0.7701  0.5382
15383TIP3    H267641   5.178   6.288   0.645 -0.2523  0.1955 -0.8899
15384TIP3   OH267642   3.388   5.354   1.462 -0.5384 -0.6398 -0.8596
15384TIP3    H167643   3.400   5.264   1.491 -1.3960 -0.3213  0.6157
15384TIP3    H267644   3.476   5.391   1.462 -0.3199 -1.1330 -0.2401
15385TIP3   OH267645   3.286   6.740  13.264 -1.0588 -0.7554 -0.5384
15385TIP3    H167646   3.334   6.658  13.267 -1.0629 -0.7321  1.1424
15385TIP3    H267647   3.253   6.752  13.353 -0.0794  1.6412 -0.4088
15386TIP3   OH267648   1.556   0.753   5.769 -0.5415 -0.4566  0.1735
15386TIP3    H167649   1.493   0.823   5.753  1.4150  1.5736  0.8572
15386TIP3    H267650   1.534   0.719   5.856 -1.2035 -0.3693  0.0393
15387TIP3   OH267651   6.783   5.867   5.311 -0.1036 -1.1942 -0.0552
15387TIP3    H167652   6.864   5.847   5.357 -0.8298  0.0695  1.8945
15387TIP3    H267653   6.809   5.924   5.239  0.6088  0.7490  1.6440
15388TIP3   OH267654   2.644   0.742   3.204 -0.4181  0.2438  0.3196
15388TIP3    H167655   2.670   0.762   3.114  0.1445 -1.6304  0.0224
15388TIP3    H267656   2.550   0.725   3.199 -0.1080 -1.5950 -0.3192
15389TIP3   OH267657   3.579   6.737   3.487 -0.2883  0.0365 -0.1351
15389TIP3    H167658   3.497   6.751   3.439 -2.0371  0.8534  2.8090
15389TIP3    H267659   3.555   6.674   3.555  2.5915 -2.6675 -1.3971
15390TIP3   OH267660   4.276   3.437  13.445  0.2193  0.5399  0.6659
15390TIP3    H167661   4.309   3.394  13.524 -1.5280  0.2081  1.2685
15390TIP3    H267662   4.228   3.368  13.398  0.4357  0.9647 -0.2107
15391TIP3   OH267663   1.081   6.107  14.423  0.0875 -0.3593  0.1186
15391TIP3    H167664   1.056   6.036  14.365 -0.6277 -0.3664  0.4325
15391TIP3    H267665   0.999   6.146  14.452  0.4670  1.3068 -0.8938
15392TIP3   OH267666   1.044   0.964   5.596  0.8192  0.3795 -0.2236
15392TIP3    H167667   1.047   1.046   5.645 -0.5858  0.2778  0.0726
15392TIP3    H267668   1.069   0.989   5.507  2.6411  0.6972  0.3320
15393TIP3   OH267669   5.799   4.925  13.428  0.2311  0.5104  0.1273
15393TIP3    H167670   5.859   4.899  13.497 -0.6002  1.4648  1.2541
15393TIP3    H267671   5.725   4.865  13.436  0.7592 -0.3194 -0.9143
15394TIP3   OH267672   2.757   2.346   0.417 -0.4450  0.3695  0.4410
15394TIP3    H167673   2.764   2.377   0.327  1.4996 -1.4731 -0.1173
15394TIP3    H267674   2.790   2.418   0.470  1.9476  0.1434 -0.6415
15395TIP3   OH267675   0.677   1.949   1.156  0.1588 -0.2264 -0.2223
15395TIP3    H167676   0.638   2.030   1.122  1.4618  0.3894 -0.2893
15395TIP3    H267677   0.739   1.978   1.223  1.1774 -1.1062 -0.7593
15396TIP3   OH267678   0.095   5.876   3.298 -0.1850  0.2371 -0.1087
15396TIP3    H167679   0.190   5.874   3.293 -0.1083 -3.1226  0.1490
15396TIP3    H267680   0.076   5.894   3.390  0.2272 -0.0350  0.0332
15397TIP3   OH267681   2.141   2.069   2.357 -0.0327 -0.1673  0.7152
15397TIP3    H167682   2.177   1.990   2.399  0.0339  0.5413  2.0524
15397TIP3    H267683   2.142   2.049   2.263  0.0737 -1.7162  1.0136
15398TIP3   OH267684   1.971   6.403  11.955  0.1877 -0.2625  0.2515
15398TIP3    H167685   1.891   6.449  11.980 -0.5624 -1.7089  0.6240
15398TIP3    H267686   1.963   6.318  11.997  1.2557 -0.9539 -0.8987
15399TIP3   OH267687   2.493   3.560   4.064 -0.5180 -0.4037  0.1996
15399TIP3    H167688   2.470   3.482   4.114 -0.8193  0.0395  0.7627
15399TIP3    H267689   2.588   3.555   4.054 -0.3835 -0.2393  1.2671
15400TIP3   OH267690   2.244   4.547  13.708 -0.2343 -0.0170  0.1568
15400TIP3    H167691   2.306   4.493  13.658 -2.2742 -3.0845  0.6791
15400TIP3    H267692   2.254   4.635  13.671  2.2788 -0.9806 -1.7684
15401TIP3   OH267693   0.340   3.805   4.618 -0.8746  0.3657  0.0710
15401TIP3    H167694   0.353   3.820   4.525  1.3200  0.1888  0.2888
15401TIP3    H267695   0.333   3.892   4.656 -1.6192  0.4420 -0.2357
15402TIP3   OH267696   4.670   0.408  10.625  0.0276 -0.0054 -0.3016
15402TIP3    H167697   4.697   0.385  10.536 -0.6791  0.6490 -0.6993
15402TIP3    H267698   4.574   0.406  10.623  0.0052 -0.6134  0.6234
15403TIP3   OH267699   6.476   1.626   3.693 -0.1128  0.1248 -0.3717
15403TIP3    H167700   6.435   1.562   3.751 -1.4395 -1.3437 -2.7826
15403TIP3    H267701   6.441   1.710   3.723  0.4335 -0.3706  1.8501
15404TIP3   OH267702   2.278   1.271  11.620  0.0495  0.5493  0.7661
15404TIP3    H167703   2.318   1.336  11.678 -1.2579  0.2865  1.9987
15404TIP3    H267704   2.258   1.197  11.677  1.1380 -0.8215 -0.5320
15405TIP3   OH267705   5.508   5.855   2.094  0.1720  0.3171 -0.7092
15405TIP3    H167706   5.525   5.878   2.003  1.0587  1.5844 -0.2474
15405TIP3    H267707   5.438   5.914   2.122 -0.5968 -0.5432 -0.7406
15406TIP3   OH267708   4.421   3.173  13.005  0.0240 -0.1679  0.0555
15406TIP3    H167709   4.464   3.211  13.082  0.4607 -1.2886  0.3910
15406TIP3    H267710   4.469   3.210  12.930 -0.0980  0.5601  0.3257
15407TIP3   OH267711   2.502   6.509  16.146 -0.0442  0.1918 -0.0897
15407TIP3    H167712   2.421   6.545  16.109  0.0728  2.1033  1.3262
15407TIP3    H267713   2.569   6.525  16.080 -0.4512  0.4022 -0.4541
15408TIP3   OH267714   1.908   3.196   5.637  0.9131  0.3235 -0.4863
15408TIP3    H167715   1.956   3.149   5.569 -0.2490  1.2297 -1.9860
15408TIP3    H267716   1.818   3.202   5.604  0.0604 -0.0678  1.5854
15409TIP3   OH267717   3.591   6.499   4.791 -0.2411  0.8174  0.1104
15409TIP3    H167718   3.649   6.481   4.718  0.7549 -0.3403  1.1435
15409TIP3    H267719   3.650   6.525   4.862 -0.9745 -0.2709  1.1519
15410TIP3   OH267720   3.677   2.450  14.508 -0.3991 -0.2245  0.2984
15410TIP3    H167721   3.595   2.455  14.557 -0.3956  2.0325  0.1523
15410TIP3    H267722   3.651   2.421  14.420 -0.7139 -1.7174  0.8446
15411TIP3   OH267723   4.551   3.063  15.115  0.2371 -0.5387 -0.0373
15411TIP3    H167724   4.646   3.054  15.127  0.2408  1.4343  2.1772
15411TIP3    H267725   4.528   3.139  15.168 -2.6612 -1.1417 -0.3023
15412TIP3   OH267726   0.239   0.371   3.449  0.3265 -0.6468  0.0920
15412TIP3    H167727   0.159   0.415   3.420  0.5575  1.8924  2.8232
15412TIP3    H267728   0.300   0.381   3.376 -0.6175  0.9146 -0.5315
15413TIP3   OH267729   2.673   1.003  13.268  0.4650  0.0881  0.5101
15413TIP3    H167730   2.699   0.928  13.322 -0.6678 -0.3288  0.4979
15413TIP3    H267731   2.675   0.969  13.178 -0.1707  0.0286  0.5144
15414TIP3   OH267732   4.906   6.058   3.618  0.5595 -0.1611  0.2466
15414TIP3    H167733   4.984   6.055   3.562 -1.4783 -0.7349 -2.8067
15414TIP3    H267734   4.907   5.974   3.665  1.4677 -0.3913 -0.1563
15415TIP3   OH267735   5.220   5.551  14.466  0.3596  0.2350 -0.1525
15415TIP3    H167736   5.125   5.540  14.477  0.2319  0.7896 -0.6558
15415TIP3    H267737   5.253   5.462  14.454 -0.4120  0.1872 -2.3954
15416TIP3   OH267738   6.407   2.133   3.147  0.0130 -0.4016 -0.2878
15416TIP3    H167739   6.413   2.104   3.056 -0.3520  0.2148 -0.5133
15416TIP3    H267740   6.319   2.169   3.155  0.0382 -0.4652  0.3176
15417TIP3   OH267741   5.666   2.049  11.781  0.2738 -0.5072  0.3043
15417TIP3    H167742   5.606   1.979  11.806  0.5399 -0.8305  0.0524
15417TIP3    H267743   5.744   2.035  11.836  0.2539 -0.2961  0.3871
15418TIP3   OH267744   2.881   3.972  13.087 -0.3166 -0.1544  0.0811
15418TIP3    H167745   2.949   3.906  13.101  0.3807  0.2490 -1.2801
15418TIP3    H267746   2.850   3.956  12.997 -0.1833  1.3233 -0.2550
15419TIP3   OH267747   2.514   5.165   2.535  0.0331  0.0660  0.2061
15419TIP3    H167748   2.531   5.146   2.443  1.8520 -1.3191  0.7499
15419TIP3    H267749   2.568   5.241   2.554  0.7799 -0.5094  0.4388
15420TIP3   OH267750   3.295   4.913  12.409  0.5229 -0.0265  0.1081
15420TIP3    H167751   3.252   4.932  12.492  0.8173  1.5966 -0.0640
15420TIP3    H267752   3.225   4.889  12.349  0.3095 -1.1926  0.8071
15421TIP3   OH267753   3.779   2.476  12.905 -0.2979 -0.2595 -0.0680
15421TIP3    H167754   3.808   2.518  12.823 -3.8565 -1.9705 -2.4717
15421TIP3    H267755   3.776   2.383  12.884 -0.8653 -0.8202  2.2446
15422TIP3   OH267756   4.773   1.235  16.105  0.4175 -0.1732  0.4037
15422TIP3    H167757   4.774   1.323  16.143  0.1810 -0.7201  1.7180
15422TIP3    H267758   4.680   1.213  16.099  0.4241  0.0417 -0.8902
15423TIP3   OH267759   4.133   4.311  14.934  0.0530 -0.1033 -0.6914
15423TIP3    H167760   4.058   4.316  14.874  1.7201 -0.2032 -2.9120
15423TIP3    H267761   4.167   4.400  14.937  0.0952 -0.1357  0.0265
15424TIP3   OH267762   5.102   5.765  17.088  0.2152 -0.1369 -0.2096
15424TIP3    H167763   5.017   5.731  17.060  0.0745 -1.0245  1.1935
15424TIP3    H267764   5.163   5.693  17.072  0.6636  0.3965 -0.9492
15425TIP3   OH267765   2.142   0.153  14.355 -0.1113 -0.0483  0.0013
15425TIP3    H167766   2.155   0.213  14.281  1.0817  1.4979  1.3918
15425TIP3    H267767   2.206   0.083  14.339 -1.7069 -1.2141 -1.7808
15426TIP3   OH267768   2.582   3.012   2.976 -0.4769  0.4481 -0.1675
15426TIP3    H167769   2.568   3.104   2.956 -1.0118  0.4644  0.2483
15426TIP3    H267770   2.495   2.977   2.995 -0.4133 -0.4006 -1.3322
15427TIP3   OH267771   1.199   3.896   6.239 -0.2820 -0.2982  0.6355
15427TIP3    H167772   1.227   3.807   6.219 -0.8155 -0.4091  0.3642
15427TIP3    H267773   1.173   3.893   6.331 -0.9452 -0.5946  0.4435
15428TIP3   OH267774   0.982   6.489   0.607 -1.0124  0.1261  0.6166
15428TIP3    H167775   0.889   6.502   0.589 -1.0001 -2.4210 -1.8843
15428TIP3    H267776   0.990   6.396   0.627  0.7089  0.7760  3.3835
15429TIP3   OH267777   0.878   4.717   1.445 -0.1184 -0.5369  0.4363
15429TIP3    H167778   0.823   4.642   1.422 -2.3387  0.7988  1.0588
15429TIP3    H267779   0.840   4.750   1.526  1.1516  0.9495  0.4773
15430TIP3   OH267780   2.447   3.275   4.473 -0.5851  0.1804  0.1302
15430TIP3    H167781   2.364   3.321   4.461 -1.1222 -0.9450 -0.6594
15430TIP3    H267782   2.439   3.235   4.560 -0.9377 -0.0442 -0.0015
15431TIP3   OH267783   0.905   4.478   4.653  0.4064  0.1177 -0.0702
15431TIP3    H167784   0.857   4.561   4.660  0.7420  0.1739  2.5306
15431TIP3    H267785   0.903   4.441   4.741  1.1723 -2.1586 -0.9292
15432TIP3   OH267786   5.341   5.674   5.509  0.1695  0.1531  0.4192
15432TIP3    H167787   5.368   5.711   5.425  0.2650 -1.7214 -0.4328
15432TIP3    H267788   5.345   5.579   5.496 -1.7374 -0.2100  1.9242
15433TIP3   OH267789   0.705   1.163   0.058 -0.0826  0.6631 -0.3243
15433TIP3    H167790   0.657   1.105   0.117  1.6216  1.2075  1.7106
15433TIP3    H267791   0.651   1.243   0.056  0.3161  1.0284  1.4045
15434TIP3   OH267792   4.405   4.907   6.234  0.4080  0.0861  0.1028
15434TIP3    H167793   4.453   4.824   6.231 -0.5287 -0.5684  1.8567
15434TIP3    H267794   4.354   4.909   6.153  1.7270 -0.2192 -0.7551
15435TIP3   OH267795   2.680   5.094  16.076 -0.4868 -0.0935 -0.5792
15435TIP3    H167796   2.622   5.064  16.006 -0.8601  0.9121 -0.7133
15435TIP3    H267797   2.631   5.080  16.157 -0.8593  0.5807 -0.6783
15436TIP3   OH267798   3.316   0.265   3.812 -0.4410 -0.5152 -0.0440
15436TIP3    H167799   3.380   0.305   3.871  0.6792 -0.8134 -1.0157
15436TIP3    H267800   3.278   0.339   3.764 -0.1376 -0.4042 -0.1170
15437TIP3   OH267801   3.601   1.967   0.222 -0.2033 -0.0852  0.6529
15437TIP3    H167802   3.683   1.934   0.258  1.2170  3.6013  1.2383
15437TIP3    H267803   3.561   2.015   0.294 -0.8725  1.4868 -0.7013
15438TIP3   OH267804   0.748   3.003  14.579  0.0133 -0.5284 -0.2210
15438TIP3    H167805   0.839   3.009  14.607 -0.0020 -2.0295  0.2366
15438TIP3    H267806   0.745   2.925  14.524 -0.9141 -0.2674 -0.5609
15439TIP3   OH267807   5.164   5.080  15.106  0.1662  0.7402  0.1386
15439TIP3    H167808   5.155   5.042  15.018 -1.4295 -1.8221  1.2780
15439TIP3    H267809   5.227   5.023  15.151 -1.5205 -0.0511  1.6157
15440TIP3   OH267810   0.308   4.611  11.410 -0.0531  0.3550  0.0639
15440TIP3    H167811   0.325   4.592  11.318  0.2060  1.2494 -0.0802
15440TIP3    H267812   0.270   4.699  11.410 -0.4959  0.1710  0.7727
15441TIP3   OH267813   1.941   4.820   4.832  0.5124 -0.0767 -0.2928
15441TIP3    H167814   1.856   4.804   4.873  0.5503  1.0026  0.2441
15441TIP3    H267815   1.928   4.900   4.782 -0.0436 -2.1820 -3.9142
15442TIP3   OH267816   2.348   5.377   5.782  0.0755 -0.0505  0.2572
15442TIP3    H167817   2.359   5.408   5.872  1.1016 -1.5942  0.6910
15442TIP3    H267818   2.369   5.284   5.785  2.0188  0.2312 -1.9362
15443TIP3   OH267819   6.831   5.876  15.381 -0.1152  0.2344  0.4392
15443TIP3    H167820   6.823   5.782  15.365  0.8490  0.3198 -0.6997
15443TIP3    H267821   6.904   5.884  15.443 -0.8508  0.1820  1.3243
15444TIP3   OH267822   1.918   5.542  16.901 -0.3979 -0.1034  0.1375
15444TIP3    H167823   1.885   5.630  16.883 -1.0790 -0.0799  1.3532
15444TIP3    H267824   1.975   5.552  16.977 -0.3253 -0.6717  0.1670
15445TIP3   OH267825   1.501   5.064   1.860  0.1208 -0.0664 -0.5577
15445TIP3    H167826   1.518   5.020   1.943  0.0553 -0.0534 -0.5377
15445TIP3    H267827   1.588   5.081   1.824  0.1315 -2.0659 -1.5670
15446TIP3   OH267828   5.279   0.811  14.047 -0.2029 -0.1101 -0.0220
15446TIP3    H167829   5.229   0.867  13.988  0.4906  1.0542  0.4772
15446TIP3    H267830   5.334   0.759  13.988  0.3756  0.9346 -0.4312
15447TIP3   OH267831   4.521   2.028  16.819  0.2748 -0.1113 -0.2318
15447TIP3    H167832   4.594   2.074  16.777  2.7397 -0.2881  3.3411
15447TIP3    H267833   4.464   2.097  16.852  0.7571  0.2113 -0.0487
15448TIP3   OH267834   0.846   5.938  14.333  0.3314  0.1403  0.3743
15448TIP3    H167835   0.888   5.913  14.415  0.6776  1.5213  0.6457
15448TIP3    H267836   0.765   5.888  14.332 -0.3751  1.1131  2.2834
15449TIP3   OH267837   0.136   0.953  16.610  0.5564  0.0348  0.2958
15449TIP3    H167838   0.214   0.937  16.663  1.1827  0.3123 -0.5381
15449TIP3    H267839   0.072   0.889  16.643  0.5384  0.9598  2.1780
15450TIP3   OH267840   2.497   5.820  16.285 -0.2677  0.4371  0.2154
15450TIP3    H167841   2.417   5.857  16.247  0.2659  1.3075 -0.0947
15450TIP3    H267842   2.557   5.894  16.290  0.1497  0.0316  1.4881
15451TIP3   OH267843   1.639   3.652  16.767  0.2310  0.0794  0.6223
15451TIP3    H167844   1.590   3.648  16.684 -0.3144  0.5638  0.9151
15451TIP3    H267845   1.682   3.567  16.773 -0.9257 -0.5230  0.5675
15452TIP3   OH267846   5.793   3.838  10.502 -0.6528  0.0782 -0.6221
15452TIP3    H167847   5.766   3.925  10.474 -2.0506 -0.1622 -0.0905
15452TIP3    H267848   5.806   3.846  10.597  0.9255  0.1060 -0.8007
15453TIP3   OH267849   6.225   4.592   4.708  0.6145 -0.1151  0.1220
15453TIP3    H167850   6.242   4.586   4.614 -0.5622 -0.9537 -0.0582
15453TIP3    H267851   6.178   4.511   4.729  3.2305 -1.3144  1.9814
15454TIP3   OH267852   2.890   6.557  11.137 -0.4189  0.2777  0.4694
15454TIP3    H167853   2.980   6.533  11.157 -0.4710  0.6056  1.1355
15454TIP3    H267854   2.872   6.517  11.052  0.5251  0.6640  0.0800
15455TIP3   OH267855   4.867   5.916   5.734 -0.1079  0.5740 -0.5658
15455TIP3    H167856   4.906   5.923   5.647  1.1669  0.1267 -0.0415
15455TIP3    H267857   4.937   5.940   5.794 -0.9997  0.9714  0.3530
15456TIP3   OH267858   1.612   1.309  16.875  0.0422 -0.1152 -0.3555
15456TIP3    H167859   1.568   1.283  16.956  0.4231  3.8921  1.3563
15456TIP3    H267860   1.706   1.305  16.896  0.2189  4.9724  1.2547
15457TIP3   OH267861   5.891   0.753  16.603 -0.3319 -0.0068 -0.2564
15457TIP3    H167862   5.917   0.729  16.515  0.7655 -1.4704  0.4213
15457TIP3    H267863   5.943   0.831  16.623 -1.7524  1.2914 -1.4286
15458TIP3   OH267864   3.137   5.912   5.503  0.4306  0.0781  0.3031
15458TIP3    H167865   3.198   5.977   5.537  0.3118 -0.1108  0.8960
15458TIP3    H267866   3.175   5.884   5.420 -0.4893  2.3150 -0.9527
15459TIP3   OH267867   5.795   4.868  12.417 -0.2251  0.0170 -0.0596
15459TIP3    H167868   5.876   4.911  12.387 -0.8295 -0.3264 -2.3970
15459TIP3    H267869   5.740   4.864  12.339 -2.0537 -0.8101  1.2086
15460TIP3   OH267870   1.085   6.814  13.035  0.1289 -0.0100 -0.2509
15460TIP3    H167871   1.149   6.754  12.997 -0.3229  0.3296 -1.5781
15460TIP3    H267872   1.004   6.796  12.987 -0.9491 -0.7924  1.7293
15461TIP3   OH267873   5.011   6.522  15.349 -0.5415  0.4583  0.2424
15461TIP3    H167874   4.921   6.550  15.369 -0.8820  0.7118 -1.4812
15461TIP3    H267875   5.013   6.430  15.375 -0.5335  1.0429  2.5144
15462TIP3   OH267876   3.147   2.775   2.215  0.6813 -0.3396 -0.1397
15462TIP3    H167877   3.238   2.794   2.238  0.0347  2.1642  0.6565
15462TIP3    H267878   3.139   2.799   2.123 -0.0055  3.3162  0.7322
15463TIP3   OH267879   4.187   6.637   3.154 -0.1030 -0.0900 -0.1012
15463TIP3    H167880   4.244   6.567   3.187 -1.2163 -0.6211  0.7142
15463TIP3    H267881   4.232   6.667   3.074  0.5028 -1.5891 -0.3662
15464TIP3   OH267882   1.384   1.699   3.632  0.3001 -0.5875  0.2334
15464TIP3    H167883   1.372   1.792   3.654 -1.2399 -0.7342  0.0858
15464TIP3    H267884   1.315   1.680   3.569  1.2693 -1.5845 -0.5593
15465TIP3   OH267885   2.649   5.924   5.767  0.4216  0.2801  0.2697
15465TIP3    H167886   2.612   5.899   5.851 -1.6817  0.8801 -0.4081
15465TIP3    H267887   2.647   5.844   5.715  0.2727  0.2628  0.3026
15466TIP3   OH267888   2.446   4.679  15.018 -0.2156  0.1442  0.3305
15466TIP3    H167889   2.496   4.603  14.987  1.7478  0.8049  1.6756
15466TIP3    H267890   2.397   4.708  14.941 -1.1575 -2.5289 -0.1875
15467TIP3   OH267891   6.835   4.947  13.514 -0.7887  1.0375 -0.2640
15467TIP3    H167892   6.802   4.888  13.583 -1.1548  2.5118  0.8733
15467TIP3    H267893   6.871   4.888  13.448 -0.4082 -0.4441  1.1908
15468TIP3   OH267894   4.978   2.724  13.187 -0.1360  0.3120 -0.2297
15468TIP3    H167895   4.899   2.705  13.136 -0.8021 -0.0668  0.9128
15468TIP3    H267896   4.956   2.803  13.236 -0.8530 -1.2669  2.1473
15469TIP3   OH267897   3.464   5.600  12.354  0.0186  0.0912 -0.0857
15469TIP3    H167898   3.421   5.537  12.411 -1.0588  0.0577 -0.8971
15469TIP3    H267899   3.461   5.683  12.402 -0.3355 -0.0616  0.1589
15470TIP3   OH267900   5.745   3.898   1.782  0.8468 -0.0609  0.7336
15470TIP3    H167901   5.802   3.897   1.859  0.2111 -2.1103  1.2431
15470TIP3    H267902   5.803   3.880   1.709  1.1620 -0.1084  0.9938
15471TIP3   OH267903   1.500   1.317   5.451  0.3946  0.1917  0.2295
15471TIP3    H167904   1.498   1.369   5.371 -0.0649 -0.8851 -0.4727
15471TIP3    H267905   1.570   1.253   5.436 -0.0785 -0.3789  0.4518
15472TIP3   OH267906   3.084   0.046  10.239  0.0730 -0.3345 -0.1378
15472TIP3    H167907   3.154   0.081  10.183 -0.1837 -0.5147 -0.5707
15472TIP3    H267908   3.067   0.116  10.302  0.1873 -0.0317 -0.4406
15473TIP3   OH267909   1.777   4.859   1.885  0.0322 -0.2934 -0.4043
15473TIP3    H167910   1.744   4.940   1.847 -0.5746 -1.7590 -3.3620
15473TIP3    H267911   1.869   4.855   1.856 -0.0542 -0.8101 -0.6190
15474TIP3   OH267912   6.027   0.802   3.425  0.0394 -0.0854  0.5272
15474TIP3    H167913   6.111   0.758   3.407  0.0050 -0.4842  1.2879
15474TIP3    H267914   6.034   0.830   3.516 -0.9861 -0.9046  0.8822
15475TIP3   OH267915   5.228   5.358  13.104 -0.3734  0.3291 -0.0802
15475TIP3    H167916   5.139   5.355  13.069 -0.1879 -0.6417 -0.5049
15475TIP3    H267917   5.267   5.437  13.066 -0.7043  0.1614 -0.7855
15476TIP3   OH267918   1.143   2.480  14.451  0.2849 -0.1774  0.1705
15476TIP3    H167919   1.189   2.557  14.417 -0.0902  1.2503  2.6322
15476TIP3    H267920   1.205   2.440  14.512  0.1766 -1.4022 -0.4856
15477TIP3   OH267921   3.633   1.229  15.630 -0.1178  0.4683  0.2980
15477TIP3    H167922   3.626   1.209  15.536  0.3827  0.8246  0.1849
15477TIP3    H267923   3.725   1.213  15.651 -0.4918 -0.8758  1.0223
15478TIP3   OH267924   4.244   5.940  17.060 -0.1989  0.3789 -0.1667
15478TIP3    H167925   4.213   6.019  17.105 -0.5277  0.3898 -0.4131
15478TIP3    H267926   4.339   5.949  17.061 -0.2232  0.6578  0.0287
15479TIP3   OH267927   3.080   4.167  15.282 -0.3670 -0.0567  0.9508
15479TIP3    H167928   3.017   4.096  15.287  0.3972 -0.8734 -0.5485
15479TIP3    H267929   3.064   4.218  15.362 -1.3083 -1.5630  1.7735
15480TIP3   OH267930   6.726   5.940   4.293 -0.5136 -0.1602 -0.0439
15480TIP3    H167931   6.654   5.974   4.346  1.1690  2.3776  0.8628
15480TIP3    H267932   6.715   5.982   4.208  0.2650  0.8667  0.3395
15481TIP3   OH267933   3.250   4.796  11.297  0.6686  0.6320 -0.2218
15481TIP3    H167934   3.232   4.703  11.287  0.3308  0.6317  0.3846
15481TIP3    H267935   3.255   4.829  11.207 -1.3218  0.4391 -0.4458
15482TIP3   OH267936   0.665   5.099  12.534 -0.1200 -0.3021  0.2060
15482TIP3    H167937   0.672   5.049  12.615 -0.0558 -2.1354 -0.8896
15482TIP3    H267938   0.725   5.056  12.473  1.1188  2.0678 -0.3659
15483TIP3   OH267939   2.636   4.595  13.498 -0.1255 -0.1289  0.2437
15483TIP3    H167940   2.644   4.512  13.451  1.3950 -0.4765  1.0164
15483TIP3    H267941   2.624   4.569  13.590  0.0098  0.4931  0.4452
15484TIP3   OH267942   1.818   1.710   6.663 -0.0239  0.1625 -0.2326
15484TIP3    H167943   1.824   1.634   6.605 -0.5100 -0.3384  0.3617
15484TIP3    H267944   1.724   1.721   6.678 -0.0515  1.6318 -1.2787
15485TIP3   OH267945   6.645   0.939  13.897  0.0454  0.0286  0.6446
15485TIP3    H167946   6.673   0.888  13.822  0.5474 -0.9163  1.4576
15485TIP3    H267947   6.632   0.875  13.967  0.2542  0.9591  1.5651
15486TIP3   OH267948   1.666   1.483  14.077 -0.3640 -0.3113 -0.4284
15486TIP3    H167949   1.725   1.442  14.013 -0.3188 -0.3276 -0.3761
15486TIP3    H267950   1.724   1.534  14.133 -0.3790 -0.4813 -0.2580
15487TIP3   OH267951   4.341   0.523  10.935 -0.0136 -0.2920  0.3316
15487TIP3    H167952   4.420   0.555  10.892 -0.8239 -0.5047 -1.4279
15487TIP3    H267953   4.286   0.601  10.947 -0.6956 -0.5095 -1.1095
15488TIP3   OH267954   6.498   4.895   3.669  0.3423  0.1050 -0.5567
15488TIP3    H167955   6.540   4.823   3.715 -2.7950 -0.5872  1.5601
15488TIP3    H267956   6.522   4.973   3.719  1.0246  0.0745 -0.8286
15489TIP3   OH267957   0.043   4.423  11.240  0.5110 -0.3613  0.0046
15489TIP3    H167958   0.088   4.446  11.322 -2.5757  0.3925  1.6661
15489TIP3    H267959  -0.025   4.490  11.231 -1.9131 -2.7591 -0.8818
15490TIP3   OH267960   1.729   2.313  13.704  0.5192 -0.0511 -0.2406
15490TIP3    H167961   1.790   2.374  13.661 -0.1107  1.2419  0.6498
15490TIP3    H267962   1.646   2.326  13.657  0.2560  0.1348  0.2787
15491TIP3   OH267963   5.941   1.118  15.707 -1.1699  0.1032 -0.2720
15491TIP3    H167964   5.883   1.177  15.658 -0.6943 -0.4269 -1.5358
15491TIP3    H267965   6.006   1.091  15.642  0.3732  0.5197  1.0537
15492TIP3   OH267966   4.455   0.556  13.219  0.3337  0.2017  0.6321
15492TIP3    H167967   4.415   0.612  13.152  0.0537  1.1173  1.5461
15492TIP3    H267968   4.546   0.586  13.222 -0.1741  1.7419  2.2196
15493TIP3   OH267969   2.272   4.281   1.594  0.4698 -0.4182 -0.0784
15493TIP3    H167970   2.251   4.188   1.586 -1.8931  0.1303 -0.8361
15493TIP3    H267971   2.189   4.323   1.615  1.3950  1.5975 -0.2644
15494TIP3   OH267972   1.970   5.845  11.218  0.3908 -0.0807 -0.5283
15494TIP3    H167973   2.018   5.928  11.212 -0.0422  0.2354  0.1941
15494TIP3    H267974   2.033   5.785  11.259  0.8730 -0.2532 -1.5027
15495TIP3   OH267975   3.903   3.005   4.304  0.0264 -0.4592 -0.2590
15495TIP3    H167976   3.948   3.090   4.306 -2.5237  1.0185  1.0980
15495TIP3    H267977   3.927   2.964   4.387  1.7325 -1.3943 -1.1760
15496TIP3   OH267978   4.514   3.225   0.402 -0.3410 -0.1529  0.5363
15496TIP3    H167979   4.582   3.187   0.346 -0.9634 -2.3933  1.2106
15496TIP3    H267980   4.495   3.309   0.362  3.0504  0.7468  0.5185
15497TIP3   OH267981   5.130   6.575   3.758 -0.5326  0.6558 -0.1183
15497TIP3    H167982   5.137   6.504   3.822 -1.4256  0.0228 -0.6914
15497TIP3    H267983   5.220   6.598   3.737 -0.2168 -0.5832 -0.1965
15498TIP3   OH267984   1.410   6.485  13.800  0.1380  0.4850 -0.5575
15498TIP3    H167985   1.356   6.556  13.765 -0.4767 -0.4392 -1.5520
15498TIP3    H267986   1.452   6.522  13.877 -0.3472  1.8557 -0.9304
15499TIP3   OH267987   0.659   3.164   4.473  0.3229 -0.2878 -0.2284
15499TIP3    H167988   0.656   3.209   4.388 -1.2348  0.6829  0.2873
15499TIP3    H267989   0.719   3.091   4.459  0.5051  0.1424 -2.0210
15500TIP3   OH267990   0.760   3.091  11.268  0.0020  0.5084  0.2825
15500TIP3    H167991   0.773   3.001  11.298 -0.0947  0.5339  0.3994
15500TIP3    H267992   0.675   3.089  11.224  0.2654  0.4049 -0.2395
15501TIP3   OH267993   2.802   4.261  15.877  0.3370  0.6946 -0.3539
15501TIP3    H167994   2.846   4.311  15.946  0.8940 -0.3841  0.0955
15501TIP3    H267995   2.871   4.242  15.813 -0.2547  2.0146 -1.4376
15502TIP3   OH267996   4.677   1.161  14.549 -0.5550  0.4866 -0.6369
15502TIP3    H167997   4.691   1.084  14.495  1.3621  0.6162 -0.4037
15502TIP3    H267998   4.596   1.199  14.516 -0.4751 -0.5239 -2.0938
15503TIP3   OH267999   4.339   2.452  15.808 -0.0740  0.3243 -0.0488
15503TIP3    H168000   4.270   2.493  15.756 -2.2082 -1.2704  1.3741
15503TIP3    H268001   4.345   2.363  15.773 -0.3523 -0.2393  1.2994
15504TIP3   OH268002   6.007   2.195  15.679 -0.2839  0.1032 -0.5190
15504TIP3    H168003   6.057   2.214  15.757 -1.6635  0.6081  0.2883
15504TIP3    H268004   6.024   2.269  15.620 -2.6510  2.1046  1.1062
15505TIP3   OH268005   5.920   2.341  14.339 -0.6561  0.3931 -0.1166
15505TIP3    H168006   5.868   2.385  14.406 -0.9795  0.0105 -0.1171
15505TIP3    H268007   5.889   2.251  14.338  1.2813 -0.3516  1.2079
15506TIP3   OH268008   0.983   2.124   2.132 -0.6374 -0.2599  0.2051
15506TIP3    H168009   1.037   2.084   2.201  0.4422 -0.0712 -0.5126
15506TIP3    H268010   0.923   2.181   2.179 -0.2266 -0.4906  1.0323
15507TIP3   OH268011   0.357   5.142  14.336  0.1458  0.2946  0.1004
15507TIP3    H168012   0.453   5.137  14.333  0.2421 -0.4068  2.5235
15507TIP3    H268013   0.329   5.052  14.350 -0.7324  0.7516  1.4416
15508TIP3   OH268014   0.170   1.214  12.088  0.8108 -0.5190  0.6571
15508TIP3    H168015   0.113   1.144  12.120  1.9657 -2.0196 -0.4310
15508TIP3    H268016   0.110   1.281  12.055 -0.4104 -2.4614 -1.3662
15509TIP3   OH268017   0.452   5.825  12.846 -0.2765  0.8086 -0.1833
15509TIP3    H168018   0.521   5.826  12.911 -0.0929  0.5352 -0.3717
15509TIP3    H268019   0.374   5.854  12.893 -0.4003 -0.5039  0.4509
15510TIP3   OH268020   0.215   2.214   5.208  0.2178  0.6805  0.0355
15510TIP3    H168021   0.267   2.214   5.127 -1.9876  1.1305 -1.4635
15510TIP3    H268022   0.164   2.133   5.203  1.3715 -0.2376  1.9542
15511TIP3   OH268023   5.183   0.137   5.619 -0.1854  0.4067 -0.5789
15511TIP3    H168024   5.135   0.090   5.688 -0.0248  0.1758 -0.6241
15511TIP3    H268025   5.115   0.182   5.569 -0.1837  2.4719  1.0971
15512TIP3   OH268026   0.005   6.348   5.937  0.0425 -0.5006  0.4475
15512TIP3    H168027   0.064   6.272   5.929  0.5159 -0.0234 -0.9437
15512TIP3    H268028  -0.072   6.313   5.981  0.3685 -1.7305  0.1107
15513TIP3   OH268029   5.123   5.114   3.612  0.1211  0.0478 -0.0216
15513TIP3    H168030   5.115   5.029   3.570 -1.3083 -0.6397  1.5306
15513TIP3    H268031   5.104   5.177   3.543  1.9588 -0.7999 -1.3903
15514TIP3   OH268032   3.736   6.125  15.907  0.4106  0.2019  0.1387
15514TIP3    H168033   3.817   6.166  15.879  0.4557  0.0708  0.0746
15514TIP3    H268034   3.747   6.032  15.885  0.9736 -0.1411  1.7549
15515TIP3   OH268035   3.982   0.493  13.534 -0.4768  0.2801  0.4783
15515TIP3    H168036   3.908   0.552  13.522 -2.2504 -2.2859 -2.8509
15515TIP3    H268037   4.048   0.524  13.472 -0.9028 -0.4496 -0.3533
15516TIP3   OH268038   0.352   5.935   4.540  0.0149 -0.0169  0.0485
15516TIP3    H168039   0.408   5.992   4.486  0.5873 -1.5341 -1.0220
15516TIP3    H268040   0.278   5.914   4.482 -1.5545  1.6570  1.3151
15517TIP3   OH268041   3.888   3.484   1.689  0.2365 -0.7075 -0.3835
15517TIP3    H168042   3.842   3.405   1.717  0.3367 -0.5547  0.2294
15517TIP3    H268043   3.975   3.476   1.728  0.7817 -1.0441 -1.6202
15518TIP3   OH268044   1.507   3.147  15.331  0.4019 -0.0025  0.6161
15518TIP3    H168045   1.436   3.152  15.394 -1.1222  0.3584 -1.0625
15518TIP3    H268046   1.539   3.237  15.323 -1.2240  0.4803 -1.0646
15519TIP3   OH268047   0.828   1.422   2.574 -0.0479 -0.7810  0.0422
15519TIP3    H168048   0.897   1.380   2.522 -1.1908 -2.2554 -0.3512
15519TIP3    H268049   0.864   1.425   2.663  1.5077  0.7990 -0.5903
15520TIP3   OH268050   0.094   4.644  13.064  0.2070  0.1903  0.0031
15520TIP3    H168051   0.030   4.689  13.009 -2.3159 -1.6934  1.1862
15520TIP3    H268052   0.148   4.595  13.002 -2.8450 -2.2552 -1.0053
15521TIP3   OH268053   6.343   2.711  13.842 -0.2332  0.1766  1.0000
15521TIP3    H168054   6.398   2.633  13.852 -2.3247 -1.3795  0.8563
15521TIP3    H268055   6.390   2.765  13.779  0.8044 -1.4078  0.3596
15522TIP3   OH268056   4.110   2.539   3.260 -0.8763  0.1224  0.3936
15522TIP3    H168057   4.068   2.603   3.202 -1.2648 -1.2321 -0.8729
15522TIP3    H268058   4.047   2.524   3.330 -2.1136 -1.0861 -0.9130
15523TIP3   OH268059   5.726   5.457   2.233 -0.1225  0.5976  0.5207
15523TIP3    H168060   5.636   5.474   2.206 -0.1966 -1.9105 -1.1513
15523TIP3    H268061   5.779   5.509   2.172 -0.4109  1.5805  1.0961
15524TIP3   OH268062   1.035   0.402  12.795  0.1295 -0.4999  0.0586
15524TIP3    H168063   1.095   0.418  12.723  3.0534 -1.2129  2.1217
15524TIP3    H268064   1.073   0.327  12.841 -2.3874 -0.9875  1.5429
15525TIP3   OH268065   5.679   4.927  11.701  0.2742  0.4863  0.4914
15525TIP3    H168066   5.708   4.877  11.625 -2.8029  0.5049 -0.8422
15525TIP3    H268067   5.755   4.927  11.760  2.0147 -1.5092 -1.5506
15526TIP3   OH268068   3.640   0.236   3.216  0.3656  0.3119  0.1578
15526TIP3    H168069   3.707   0.248   3.284  0.4048 -1.5595  0.5090
15526TIP3    H268070   3.682   0.263   3.135  1.1888  0.1925  0.5352
15527TIP3   OH268071   5.199   1.889  14.526 -0.2474 -0.9255 -0.9024
15527TIP3    H168072   5.174   1.967  14.575 -2.6232 -0.5551 -2.4992
15527TIP3    H268073   5.271   1.851  14.575  0.7534  2.0469  0.1272
15528TIP3   OH268074   6.805   3.424  13.572  0.5126  0.2747  0.3000
15528TIP3    H168075   6.872   3.464  13.628  1.3279  0.7896 -0.9909
15528TIP3    H268076   6.831   3.448  13.483 -0.4228 -0.9928 -0.3512
15529TIP3   OH268077   1.105   1.939   0.630 -0.4233  0.2744  0.1405
15529TIP3    H168078   1.078   1.950   0.538  1.4785  4.2935 -0.1502
15529TIP3    H268079   1.182   1.882   0.626 -0.8739 -0.3007 -0.6239
15530TIP3   OH268080   5.476   3.022   0.846  0.5110  0.4440  0.4392
15530TIP3    H168081   5.563   3.023   0.805  0.6745  0.4132  0.7823
15530TIP3    H268082   5.422   2.971   0.785  0.2926  1.9171 -0.6534
15531TIP3   OH268083   2.444   4.087  15.680 -0.7461 -0.1994  0.0413
15531TIP3    H168084   2.385   4.120  15.749  0.4921 -0.9560  1.5226
15531TIP3    H268085   2.387   4.036  15.623 -1.9359  0.9977  0.0847
15532TIP3   OH268086   2.789   2.289   4.947  0.4498 -0.1907 -0.0609
15532TIP3    H168087   2.722   2.319   4.887  0.7668 -0.2541 -0.4482
15532TIP3    H268088   2.800   2.196   4.929 -0.4271 -0.5370  1.0429
15533TIP3   OH268089   6.430   3.249   1.945 -0.0929 -0.0654  0.6255
15533TIP3    H168090   6.340   3.250   1.912  0.4941  0.8418 -1.0555
15533TIP3    H268091   6.481   3.294   1.878  1.5989 -0.3666  1.6458
15534TIP3   OH268092   6.691   2.432   3.021  0.2279  0.0979  0.3548
15534TIP3    H168093   6.723   2.342   3.031 -0.5905 -0.1575  0.7543
15534TIP3    H268094   6.718   2.477   3.101 -1.6351 -0.5133  1.3963
15535TIP3   OH268095   3.781   5.701  13.760 -0.8301  0.1800 -0.6902
15535TIP3    H168096   3.779   5.626  13.820  0.1605 -0.8206 -1.8443
15535TIP3    H268097   3.690   5.710  13.730 -1.4331  0.9964  1.2682
15536TIP3   OH268098   2.086   1.975  12.357  0.3738  0.0509 -0.6460
15536TIP3    H168099   2.033   1.919  12.414  0.7972 -0.5403 -0.8198
15536TIP3    H268100   2.022   2.021  12.302  0.0560 -1.7265 -1.8544
15537TIP3   OH268101   2.242   2.566  16.282 -0.5017 -0.9584 -0.2065
15537TIP3    H168102   2.184   2.641  16.271 -1.6931 -2.1065 -2.3462
15537TIP3    H268103   2.226   2.536  16.371 -2.4993 -0.6676 -0.4328
15538TIP3   OH268104   0.405   0.896  12.558 -0.8564  0.6790  0.5139
15538TIP3    H168105   0.339   0.897  12.488 -1.0538  1.4473  0.6989
15538TIP3    H268106   0.487   0.917  12.514 -1.1142  1.9956  0.6229
15539TIP3   OH268107   0.007   5.841  16.228  0.5508  0.1348  0.4343
15539TIP3    H168108   0.003   5.787  16.307 -1.6567  1.0593  1.0086
15539TIP3    H268109  -0.021   5.783  16.157 -0.7801  0.2158  0.8793
15540TIP3   OH268110   3.732   2.724  15.496  0.5425 -0.4169 -0.4864
15540TIP3    H168111   3.697   2.636  15.483  0.3347 -0.4888  0.4854
15540TIP3    H268112   3.658   2.783  15.479  1.1536 -0.2799 -3.0743
15541TIP3   OH268113   4.823   4.417  13.237 -0.6964  1.0424  0.0717
15541TIP3    H168114   4.840   4.323  13.228  0.4329  1.3224 -1.0634
15541TIP3    H268115   4.884   4.446  13.304 -0.0259  1.2029 -0.5961
15542TIP3   OH268116   4.685   2.193   5.819 -0.0245  0.6267  0.8719
15542TIP3    H168117   4.705   2.168   5.909  0.8168  1.0935  0.8311
15542TIP3    H268118   4.621   2.263   5.826  0.2186  0.8256  1.1183
15543TIP3   OH268119   5.166   2.756  10.878 -0.4351  0.3467  0.2447
15543TIP3    H168120   5.106   2.764  10.803 -0.7558 -2.0822  0.1583
15543TIP3    H268121   5.252   2.744  10.838  0.0154  2.7586  0.3629
15544TIP3   OH268122   2.392   2.008   4.084  0.7119 -0.5362  0.4327
15544TIP3    H168123   2.322   1.953   4.118 -0.5460  1.1398  0.6821
15544TIP3    H268124   2.401   1.983   3.992  0.7301 -1.7002  0.7431
15545TIP3   OH268125   5.106   6.523   0.167 -0.0392 -0.1609  0.5324
15545TIP3    H168126   5.151   6.540   0.084 -1.1477 -0.4365 -0.1469
15545TIP3    H268127   5.128   6.432   0.188 -0.4283 -0.3626  0.0943
15546TIP3   OH268128   0.361   3.445   4.841  0.4155 -0.2672 -0.1621
15546TIP3    H168129   0.295   3.509   4.813 -0.4260 -0.9507  0.2243
15546TIP3    H268130   0.434   3.499   4.872  1.1367  0.5479 -2.9464
15547TIP3   OH268131   5.936   5.122   6.207 -0.0317 -0.3391 -0.1508
15547TIP3    H168132   5.950   5.036   6.245 -1.9922 -0.6957 -0.1587
15547TIP3    H268133   5.986   5.181   6.263 -1.5129 -1.0553  2.0230
15548TIP3   OH268134   5.918   4.446   6.334 -0.0844  0.5857  0.1308
15548TIP3    H168135   5.972   4.512   6.378 -0.2172 -1.1602  3.1531
15548TIP3    H268136   5.982   4.388   6.292  0.2435  0.5654  0.6395
15549TIP3   OH268137   1.337   0.214   0.580  0.5059  0.4056 -0.1071
15549TIP3    H168138   1.333   0.228   0.486 -1.5198 -0.3845 -0.1871
15549TIP3    H268139   1.250   0.237   0.612  1.4566  1.7380  1.7742
15550TIP3   OH268140   1.868   2.175   4.915 -0.7077  0.3301 -0.0463
15550TIP3    H168141   1.865   2.177   4.819 -0.1992  2.7838 -0.0797
15550TIP3    H268142   1.801   2.237   4.942  0.4459  1.1179  1.1148
15551TIP3   OH268143   1.587   6.431   3.461 -0.9038  0.4067 -0.0944
15551TIP3    H168144   1.510   6.405   3.512 -1.3689  1.5211 -0.2083
15551TIP3    H268145   1.589   6.526   3.467 -0.4702  0.5010 -1.4519
15552TIP3   OH268146   6.443   2.519   2.846  0.5057  0.1914  0.4300
15552TIP3    H168147   6.458   2.466   2.768  1.4540  0.8081  0.1837
15552TIP3    H268148   6.485   2.470   2.917 -2.2383 -1.5037  1.0268
15553TIP3   OH268149   0.631   5.522   4.007 -0.7104  0.0468  0.9130
15553TIP3    H168150   0.636   5.612   3.976 -0.9003 -0.9038 -2.2235
15553TIP3    H268151   0.707   5.512   4.064 -0.6624  2.1499  1.2786
15554TIP3   OH268152   6.314   3.316  14.881 -0.1310 -0.1119 -0.3162
15554TIP3    H168153   6.344   3.227  14.898  1.3198  0.3478 -0.3431
15554TIP3    H268154   6.295   3.352  14.968  1.1643  0.1715 -0.1343
15555TIP3   OH268155   6.507   1.234   1.755 -0.1304 -0.1478 -0.4305
15555TIP3    H168156   6.472   1.290   1.686  2.5642 -0.9084 -2.5905
15555TIP3    H268157   6.430   1.190   1.791 -1.5919 -1.2833 -4.3865
15556TIP3   OH268158   5.420   5.154   1.221 -0.0055  0.7594  0.1223
15556TIP3    H168159   5.365   5.083   1.187 -0.0800  0.5718  0.6344
15556TIP3    H268160   5.366   5.232   1.214 -0.1837  0.6447  0.2322
15557TIP3   OH268161   0.024   4.188   2.134 -0.0280  0.4354  0.0161
15557TIP3    H168162  -0.011   4.109   2.093 -0.3340  0.5702  0.0155
15557TIP3    H268163  -0.029   4.259   2.098  1.1118  0.8044 -1.0311
15558TIP3   OH268164   0.786   4.801   4.596  0.4187  0.0962 -0.4002
15558TIP3    H168165   0.760   4.756   4.516 -1.5077  1.1015 -0.3951
15558TIP3    H268166   0.823   4.884   4.566  0.8065 -0.0250 -0.2723
15559TIP3   OH268167   4.411   3.661  15.974  0.0954 -0.6436 -0.0845
15559TIP3    H168168   4.365   3.742  15.956 -1.4972 -1.3361  0.6647
15559TIP3    H268169   4.456   3.639  15.893 -0.2184  0.4937 -0.5737
15560TIP3   OH268170   0.336   2.819   4.009 -0.0039  0.2875 -0.0854
15560TIP3    H168171   0.292   2.838   4.092 -1.9800 -0.4308 -0.9041
15560TIP3    H268172   0.422   2.860   4.017  0.4928 -1.0412  2.9272
15561TIP3   OH268173   3.709   4.046   1.459  0.4243  0.3215  0.2097
15561TIP3    H168174   3.708   3.991   1.381  0.7788  0.4201  0.1310
15561TIP3    H268175   3.802   4.058   1.478  0.3366 -0.0039  0.8627
15562TIP3   OH268176   1.576   3.349  13.003  0.1784 -0.0064 -0.3519
15562TIP3    H168177   1.615   3.436  13.002  0.3956 -0.1035 -1.3681
15562TIP3    H268178   1.530   3.343  12.919 -0.5612 -0.5452  0.0821
15563TIP3   OH268179   5.259   0.726  15.952 -0.1023 -0.4039  0.5581
15563TIP3    H168180   5.314   0.658  15.992  1.0975 -0.0896 -0.4900
15563TIP3    H268181   5.203   0.756  16.023 -1.8982 -3.6329  0.6825
15564TIP3   OH268182   6.266   6.002  15.003  0.3626  0.3076  0.0394
15564TIP3    H168183   6.223   6.012  14.918 -0.4435 -0.4054  0.3518
15564TIP3    H268184   6.228   6.071  15.057  1.0588  0.9200 -0.2470
15565TIP3   OH268185   4.070   5.119  15.952  0.1060 -0.1151  0.1333
15565TIP3    H168186   4.074   5.150  15.862 -0.6741  0.9706  0.4580
15565TIP3    H268187   4.161   5.116  15.981  0.4149 -1.1045 -0.8854
15566TIP3   OH268188   5.214   6.670   1.863 -0.4518 -0.7141  0.0777
15566TIP3    H168189   5.164   6.611   1.919 -0.0066  0.1544  1.4484
15566TIP3    H268190   5.171   6.755   1.874 -0.6490 -0.6202 -1.2969
15567TIP3   OH268191   6.713   1.332  15.805 -0.4652  0.3716 -0.2134
15567TIP3    H168192   6.750   1.408  15.851 -0.2447  0.5450 -0.6688
15567TIP3    H268193   6.775   1.261  15.821 -0.6925  0.2773  0.2473
15568TIP3   OH268194   0.029   6.457  13.390  0.4730  0.0679 -0.1889
15568TIP3    H168195   0.017   6.450  13.485  1.5477 -0.2251 -0.0593
15568TIP3    H268196  -0.059   6.470  13.355 -0.1326 -1.3570  0.7172
15569TIP3   OH268197   4.074   1.315  15.702 -0.1363 -1.1174  0.3903
15569TIP3    H168198   4.056   1.270  15.785  0.1818 -0.3699  0.8676
15569TIP3    H268199   4.113   1.247  15.647 -1.1191 -1.8434  0.5514
15570TIP3   OH268200   1.760   5.123   1.784  0.9369  0.2358  0.7566
15570TIP3    H168201   1.820   5.190   1.815  1.3246  0.8908 -1.2790
15570TIP3    H268202   1.784   5.109   1.693  0.1330 -1.8890  0.8181
15571TIP3   OH268203   5.193   6.024  16.740  0.1389 -0.1536  0.1138
15571TIP3    H168204   5.186   6.012  16.835 -0.2005  2.3814  0.4763
15571TIP3    H268205   5.272   5.976  16.715 -0.3004 -1.6589  1.4948
15572TIP3   OH268206   6.613   3.619   0.489  0.2900  0.3177 -0.1159
15572TIP3    H168207   6.624   3.712   0.472  2.1408  0.0963 -0.3224
15572TIP3    H268208   6.542   3.592   0.430 -1.6385  1.9266  1.3344
15573TIP3   OH268209   4.532   4.758   4.903  0.0407 -0.2275  0.3119
15573TIP3    H168210   4.602   4.819   4.880 -0.7208  0.2071 -0.9463
15573TIP3    H268211   4.550   4.679   4.852 -0.4435 -0.0779 -0.0925
15574TIP3   OH268212   4.523   1.279  13.537 -0.1604 -0.0917  0.2082
15574TIP3    H168213   4.540   1.194  13.577  1.3695  0.3334  0.4922
15574TIP3    H268214   4.543   1.267  13.444  1.8311  0.3972  0.5343
15575TIP3   OH268215   1.382   6.626  12.488  0.5718  0.6593 -0.7208
15575TIP3    H168216   1.341   6.540  12.482  0.1795  0.8811 -1.2740
15575TIP3    H268217   1.464   6.610  12.535 -0.2196  0.2448  0.5682
15576TIP3   OH268218   4.596   0.099  10.881 -0.1751 -0.0775  0.5650
15576TIP3    H168219   4.568   0.008  10.875 -0.9805  0.1955  0.0140
15576TIP3    H268220   4.672   0.105  10.823 -1.7147  0.1765 -1.5305
15577TIP3   OH268221   4.843   2.060   0.416  0.0251  0.2405 -0.4338
15577TIP3    H168222   4.878   1.999   0.352  1.3431 -0.5978  1.0026
15577TIP3    H268223   4.778   2.009   0.464 -0.2249  0.5496 -0.4398
15578TIP3   OH268224   1.186   0.465  10.925  0.2357  0.3646 -0.2665
15578TIP3    H168225   1.221   0.547  10.960  1.1160  0.7856 -2.0202
15578TIP3    H268226   1.244   0.443  10.852 -0.6431 -1.2346 -0.5285
15579TIP3   OH268227   5.769   3.433   2.480  0.7440  0.0611  0.4983
15579TIP3    H168228   5.773   3.512   2.535  0.2255  0.8286 -0.5455
15579TIP3    H268229   5.679   3.403   2.487  0.2384  1.0866 -1.1696
15580TIP3   OH268230   3.329   2.508   5.679 -0.2649  0.7129 -0.6154
15580TIP3    H168231   3.308   2.415   5.694 -0.7778  0.7087 -1.3213
15580TIP3    H268232   3.365   2.510   5.590 -0.3651  1.2048 -0.6486
15581TIP3   OH268233   4.149   2.800  11.725 -0.6707 -0.0961 -0.0521
15581TIP3    H168234   4.142   2.868  11.659  0.6089  0.5845  0.4725
15581TIP3    H268235   4.243   2.782  11.731 -1.0013 -2.5951 -0.8497
15582TIP3   OH268236   2.729   2.305  11.622  0.1455  0.3912  0.0264
15582TIP3    H168237   2.657   2.251  11.656  1.0274 -0.4758  0.5530
15582TIP3    H268238   2.788   2.315  11.696  1.6580 -0.7712 -0.9747
15583TIP3   OH268239   5.514   1.607   0.236  0.4388 -0.1122 -0.0194
15583TIP3    H168240   5.511   1.650   0.150  0.0227 -3.0033 -1.5440
15583TIP3    H268241   5.423   1.605   0.265  0.4954  0.2622  0.1912
15584TIP3   OH268242   0.289   2.322  16.984  0.8024 -0.3986  0.1547
15584TIP3    H168243   0.193   2.320  16.983  0.7547  0.7929 -1.0914
15584TIP3    H268244   0.314   2.232  17.006 -0.5938 -0.8713 -0.0398
15585TIP3   OH268245   2.540   5.789   5.180 -0.4743  0.0215 -0.2635
15585TIP3    H168246   2.605   5.819   5.244 -0.7249 -2.4007  1.2709
15585TIP3    H268247   2.462   5.841   5.198 -0.8265 -1.1855  2.1167
15586TIP3   OH268248   5.716   1.971  15.353 -0.0236 -0.6248 -0.0973
15586TIP3    H168249   5.662   2.040  15.393  0.3016 -0.5342  0.1923
15586TIP3    H268250   5.656   1.926  15.294 -0.3170 -0.2765 -0.0749
15587TIP3   OH268251   3.979   5.738  13.387 -0.1081  0.2010 -0.1282
15587TIP3    H168252   3.965   5.822  13.429  1.8192  0.4706  0.0760
15587TIP3    H268253   3.893   5.696  13.387 -1.7249  3.1231 -2.4776
15588TIP3   OH268254   0.154   3.041  11.573  0.0976 -0.2068 -0.4519
15588TIP3    H168255   0.155   3.105  11.501  1.4195 -1.0446 -1.2275
15588TIP3    H268256   0.149   2.956  11.529  0.5120 -0.7154  0.4656
15589TIP3   OH268257   6.297   2.354  16.870  0.4853 -0.5254  0.1990
15589TIP3    H168258   6.333   2.432  16.913  0.6458  0.4163 -1.5364
15589TIP3    H268259   6.257   2.304  16.940  0.5221  1.0460  1.3956
15590TIP3   OH268260   2.562   4.904   0.308  0.4823 -0.1338  0.1442
15590TIP3    H168261   2.625   4.959   0.262  0.0142  0.5562  0.3067
15590TIP3    H268262   2.571   4.818   0.268 -0.2026  0.5474 -1.5399
15591TIP3   OH268263   1.605   6.296   4.818 -1.1692 -0.6730  0.0251
15591TIP3    H168264   1.544   6.355   4.774 -0.4493 -0.2816 -0.4683
15591TIP3    H268265   1.549   6.230   4.860 -1.8841 -1.1916 -1.6457
15592TIP3   OH268266   2.882   0.861   1.925 -0.4337 -0.1374 -0.5331
15592TIP3    H168267   2.870   0.933   1.863 -2.0924 -1.0185 -1.2980
15592TIP3    H268268   2.799   0.857   1.973 -0.3966 -1.5640 -0.5488
15593TIP3   OH268269   5.242   4.583  10.517  0.3682 -0.1291  0.2194
15593TIP3    H168270   5.158   4.606  10.477  1.0236 -1.1068 -1.8704
15593TIP3    H268271   5.308   4.626  10.461  1.3179 -1.1960  0.4782
15594TIP3   OH268272   5.322   4.657   5.338 -0.0893  0.3305 -0.3826
15594TIP3    H168273   5.374   4.587   5.299  0.8062  1.1714 -0.7188
15594TIP3    H268274   5.231   4.628   5.328  0.2845 -0.9224 -0.2211
15595TIP3   OH268275   2.013   2.734  16.220 -0.7432  0.1566 -0.6625
15595TIP3    H168276   2.028   2.782  16.301 -0.7528  0.0060 -0.5715
15595TIP3    H268277   2.040   2.795  16.151 -0.5568  0.2164 -0.5388
15596TIP3   OH268278   3.688   6.753  16.395  0.4546 -0.0519  0.1115
15596TIP3    H168279   3.720   6.802  16.319  1.9251 -0.6667  0.2971
15596TIP3    H268280   3.626   6.690  16.358 -0.7575  1.2909 -0.2352
15597TIP3   OH268281   6.620   6.110  11.938 -0.5487 -0.4691  0.8052
15597TIP3    H168282   6.606   6.075  11.850 -0.7850 -0.2123  0.7378
15597TIP3    H268283   6.715   6.123  11.944 -0.6256  0.5459  0.1843
15598TIP3   OH268284   1.481   4.405  13.890 -0.1596 -0.1978  0.2393
15598TIP3    H168285   1.496   4.433  13.981  0.9209  0.6023 -0.1676
15598TIP3    H268286   1.560   4.431  13.844 -1.2386  0.6040 -1.2138
15599TIP3   OH268287   2.904   1.876   3.411  0.3141 -0.3682 -0.2811
15599TIP3    H168288   2.949   1.800   3.448  1.6286  0.1844 -0.6919
15599TIP3    H268289   2.937   1.950   3.462  0.1510  0.0987 -0.8413
15600TIP3   OH268290   2.875   3.442   3.860 -0.3251 -0.2153  0.7045
15600TIP3    H168291   2.962   3.431   3.899  0.4530  1.0166 -0.5956
15600TIP3    H268292   2.819   3.383   3.910  1.1955 -0.8268  1.7648
15601TIP3   OH268293   1.147   0.491  13.042  0.1454  0.0954 -0.5412
15601TIP3    H168294   1.169   0.399  13.030 -0.7917 -0.1388 -0.5283
15601TIP3    H268295   1.100   0.494  13.126 -0.2510  0.5065 -0.7690
15602TIP3   OH268296   3.840   6.112   5.864 -0.1275 -0.2194 -0.0247
15602TIP3    H168297   3.852   6.201   5.831  1.4678 -0.2213  0.4569
15602TIP3    H268298   3.908   6.060   5.820 -1.1156 -1.2400 -0.3975
15603TIP3   OH268299   4.901   0.901  11.878 -0.3416  0.4164 -0.6342
15603TIP3    H168300   4.809   0.891  11.853  0.0792 -0.5603 -1.9499
15603TIP3    H268301   4.940   0.947  11.803  0.2499  0.8041 -0.0942
15604TIP3   OH268302   6.494   4.610  11.442 -0.1885 -0.5415 -0.4458
15604TIP3    H168303   6.550   4.534  11.428 -1.0702 -1.0394 -1.4286
15604TIP3    H268304   6.411   4.573  11.473 -0.1793  0.1345  0.4150
15605TIP3   OH268305   3.895   2.888   2.498  0.2875  0.0105 -0.1022
15605TIP3    H168306   3.942   2.806   2.481  0.1522 -0.2495  0.7535
15605TIP3    H268307   3.923   2.914   2.586 -1.3617 -0.2862  0.5491
15606TIP3   OH268308   4.656   0.339   5.407  0.2237  0.0521 -0.0007
15606TIP3    H168309   4.610   0.415   5.372  0.7684  1.1083  1.4438
15606TIP3    H268310   4.747   0.368   5.416  0.3883 -0.6615  0.8382
15607TIP3   OH268311   5.752   1.628  10.990 -0.4196 -0.0520  0.5128
15607TIP3    H168312   5.750   1.544  10.943 -0.1881  0.3060 -0.1510
15607TIP3    H268313   5.833   1.625  11.041  0.5339  0.4909 -0.9003
15608TIP3   OH268314   0.164   6.590  11.863 -1.0844  0.4439  0.8169
15608TIP3    H168315   0.210   6.545  11.934 -1.0075  0.2918  0.6703
15608TIP3    H268316   0.071   6.583  11.887 -1.1499 -0.6386  0.3158
15609TIP3   OH268317   0.359   1.128  14.647  0.0825  0.8565 -0.4421
15609TIP3    H168318   0.310   1.123  14.729 -1.0429  1.1851 -1.0784
15609TIP3    H268319   0.433   1.185  14.667 -1.0724  2.3014 -0.0780
15610TIP3   OH268320   5.063   5.384   0.298 -0.1073 -0.2545  0.4111
15610TIP3    H168321   5.085   5.394   0.205 -0.2643  1.1165  0.4937
15610TIP3    H268322   5.017   5.466   0.320 -0.3644 -0.7065  1.6144
15611TIP3   OH268323   1.930   5.962   2.724 -0.2763 -0.5448 -0.1803
15611TIP3    H168324   1.864   5.914   2.775  0.6032 -0.0897  1.4532
15611TIP3    H268325   1.979   5.893   2.678 -2.0319 -0.8815 -1.7128
15612TIP3   OH268326   2.684   3.370   2.399  0.2850  0.6711 -0.3499
15612TIP3    H168327   2.653   3.288   2.361 -0.1222  0.7317 -0.1545
15612TIP3    H268328   2.704   3.348   2.491  1.9545  0.3462 -0.7446
15613TIP3   OH268329   2.163   2.138   4.614  0.4454 -0.0707  0.2790
15613TIP3    H168330   2.171   2.044   4.630  2.1233 -0.0407 -0.1858
15613TIP3    H268331   2.214   2.153   4.534  0.5130  1.3072  0.5550
15614TIP3   OH268332   4.108   4.354  13.554  0.4132  0.2630 -0.2282
15614TIP3    H168333   4.183   4.358  13.613  1.0752  0.4988 -1.0709
15614TIP3    H268334   4.071   4.442  13.557  1.7068  0.8977 -1.7517
15615TIP3   OH268335   1.565   5.086  14.708  0.2372  0.1066  1.2062
15615TIP3    H168336   1.491   5.057  14.761 -2.2087  1.5694 -1.1638
15615TIP3    H268337   1.539   5.172  14.674  2.2278 -0.0919 -1.1695
15616TIP3   OH268338   3.479   2.237   3.597  0.0883  0.3869  0.4252
15616TIP3    H168339   3.490   2.271   3.508  2.4974 -0.5653  0.2899
15616TIP3    H268340   3.564   2.249   3.638 -0.0153 -2.1349  1.5469
15617TIP3   OH268341   4.915   4.119   0.331 -0.0988 -0.7158  0.2524
15617TIP3    H168342   4.836   4.173   0.324  0.3902 -0.1073 -0.8944
15617TIP3    H268343   4.926   4.082   0.243  1.4360  0.0407  0.0934
15618TIP3   OH268344   6.679   4.228   3.355  0.5407 -0.3914 -0.4218
15618TIP3    H168345   6.615   4.174   3.402 -0.3126  1.3382  0.4715
15618TIP3    H268346   6.704   4.296   3.417 -0.9959  2.3116 -2.5169
15619TIP3   OH268347   1.593   5.096  13.800 -0.5041 -0.1378 -0.4632
15619TIP3    H168348   1.521   5.144  13.841 -1.6901 -1.4878 -0.9068
15619TIP3    H268349   1.669   5.155  13.809 -1.4278  0.9128  0.8494
15620TIP3   OH268350   1.055   1.782  10.631  0.5240 -0.1078 -0.2441
15620TIP3    H168351   1.150   1.770  10.637  0.5689  0.2285 -0.2148
15620TIP3    H268352   1.028   1.727  10.558  0.7276 -0.2889 -0.1814
15621TIP3   OH268353   1.983   1.113  11.145  0.1217 -0.4357 -0.3403
15621TIP3    H168354   2.048   1.119  11.214 -1.7070  3.0306  1.3268
15621TIP3    H268355   1.926   1.189  11.158 -1.0107 -0.1247 -5.0278
15622TIP3   OH268356   3.772   0.699   2.420  0.0039 -0.1045  0.2350
15622TIP3    H168357   3.725   0.742   2.492 -0.0573 -1.8436  1.2793
15622TIP3    H268358   3.703   0.664   2.364  0.0221 -1.4317  1.0122
15623TIP3   OH268359   5.692   1.304  11.154 -0.6940 -0.5689  0.1264
15623TIP3    H168360   5.613   1.350  11.128  0.0007  0.1181 -0.8466
15623TIP3    H268361   5.758   1.373  11.165  0.1367 -1.2331 -0.5128
15624TIP3   OH268362   2.077   4.329   1.827 -0.4084  0.2248 -0.6571
15624TIP3    H168363   2.064   4.272   1.902  0.4108  0.4386 -0.3375
15624TIP3    H268364   1.989   4.361   1.805 -0.7236 -0.2839 -0.1518
15625TIP3   OH268365   2.753   4.477   6.039 -0.0457 -0.0059 -0.0411
15625TIP3    H168366   2.820   4.535   6.074 -0.4607  0.2827  0.2751
15625TIP3    H268367   2.780   4.390   6.069 -0.5078  0.2573  1.1882
15626TIP3   OH268368   6.277   4.654  13.634 -0.2933  0.9070 -0.2245
15626TIP3    H168369   6.271   4.741  13.593  1.9699  1.4173  0.3971
15626TIP3    H268370   6.287   4.594  13.560  2.4115  1.6699 -0.5655
15627TIP3   OH268371   3.866   5.980  13.156 -0.3976 -0.7970 -0.5654
15627TIP3    H168372   3.937   5.917  13.145  1.6332  1.1759  0.4433
15627TIP3    H268373   3.864   6.029  13.074 -0.1217 -0.4295 -0.3582
15628TIP3   OH268374   5.610   4.442  14.978  0.4721 -0.1859  0.3821
15628TIP3    H168375   5.603   4.465  14.886 -0.7020 -0.1379  0.4693
15628TIP3    H268376   5.699   4.408  14.988  0.4877 -0.5299 -0.8408
15629TIP3   OH268377   1.186   0.269   2.475  0.5555 -0.4771  0.1632
15629TIP3    H168378   1.199   0.275   2.569 -2.5664 -1.6685  0.7963
15629TIP3    H268379   1.149   0.354   2.450  3.8602  0.9068 -0.6544
15630TIP3   OH268380   3.571   5.703   5.264  0.3022 -0.3656 -0.2110
15630TIP3    H168381   3.596   5.680   5.353 -0.5305  0.9580  0.4056
15630TIP3    H268382   3.503   5.770   5.275  0.8472  0.5193 -1.8372
15631TIP3   OH268383   3.639   4.683  14.934 -0.3396 -0.5989  0.0667
15631TIP3    H168384   3.719   4.731  14.957 -0.5451 -0.6251  0.8593
15631TIP3    H268385   3.572   4.749  14.925 -0.5956 -0.7210  1.0395
15632TIP3   OH268386   2.905   2.742   3.037 -0.2349  0.1732 -0.1092
15632TIP3    H168387   2.897   2.724   3.130 -0.3421  0.3844 -0.0765
15632TIP3    H268388   2.819   2.721   3.001 -0.1641 -0.0033 -0.1778
15633TIP3   OH268389   4.153   4.530  17.142 -0.1405 -0.6131  0.3159
15633TIP3    H168390   4.200   4.464  17.194  0.2813 -0.8801 -0.3825
15633TIP3    H268391   4.108   4.585  17.207 -0.2660 -1.4121  0.9215
15634TIP3   OH268392   5.266   0.482   3.542  0.3497  0.2724  0.7436
15634TIP3    H168393   5.340   0.510   3.488  0.0538  0.7424  0.5667
15634TIP3    H268394   5.252   0.555   3.603  2.6179 -1.4868  3.5727
15635TIP3   OH268395   2.968   5.729   2.409  0.2648  0.2253  0.3385
15635TIP3    H168396   2.923   5.794   2.464  1.5757  0.7082  0.8828
15635TIP3    H268397   3.034   5.780   2.362  0.8575 -0.6097  0.2542
15636TIP3   OH268398   2.434   3.420   1.025  0.4921  0.0348 -0.2564
15636TIP3    H168399   2.420   3.503   0.980  1.0187  0.3189  0.1029
15636TIP3    H268400   2.415   3.439   1.117 -2.8487 -1.0665 -0.5838
15637TIP3   OH268401   2.713   0.359  13.466 -0.1380 -0.4194 -0.5967
15637TIP3    H168402   2.622   0.381  13.445 -1.1173 -0.9493  2.5483
15637TIP3    H268403   2.732   0.282  13.413 -1.6425 -0.5430 -1.0025
15638TIP3   OH268404   5.428   4.795  16.854 -0.4236 -0.4152 -0.0102
15638TIP3    H168405   5.487   4.852  16.902 -1.7072  0.6320  0.3844
15638TIP3    H268406   5.484   4.748  16.793  1.0754 -0.8610  1.6353
15639TIP3   OH268407   4.347   1.188   5.595 -0.2092  0.0385 -0.1374
15639TIP3    H168408   4.339   1.095   5.576 -0.1906 -0.5772  2.4923
15639TIP3    H268409   4.420   1.217   5.541 -1.0243 -1.1403 -1.9628
15640TIP3   OH268410   4.788   3.599   0.866 -0.2537  0.4720  0.4445
15640TIP3    H168411   4.739   3.535   0.814  0.5973 -0.7753  1.1329
15640TIP3    H268412   4.879   3.590   0.834  0.9730 -2.5385  4.0149
15641TIP3   OH268413   1.388   2.097  13.076 -0.0029  0.5969 -0.6053
15641TIP3    H168414   1.367   2.004  13.083  0.3268  0.5573 -0.1454
15641TIP3    H268415   1.404   2.110  12.982 -0.5160  0.2946 -0.7398
15642TIP3   OH268416   6.198   4.586  12.161  0.1783 -0.2310  0.3685
15642TIP3    H168417   6.186   4.681  12.162 -1.2411 -0.3751 -0.0873
15642TIP3    H268418   6.259   4.569  12.232  1.1006  1.0882 -0.0611
15643TIP3   OH268419   0.852   1.688  15.307  0.3778  0.9065  0.3996
15643TIP3    H168420   0.918   1.756  15.324  1.3307  0.5441 -1.5648
15643TIP3    H268421   0.786   1.702  15.375  1.7649  2.1906  1.5797
15644TIP3   OH268422   4.516   2.730   5.535 -0.2047  0.3853 -0.9030
15644TIP3    H168423   4.490   2.812   5.493 -0.5651  0.2992 -0.8510
15644TIP3    H268424   4.477   2.735   5.622 -0.6711 -0.0692 -1.0770
15645TIP3   OH268425   1.884   0.922   3.117 -0.1625 -0.6990  0.3264
15645TIP3    H168426   1.897   0.873   3.198  1.9210 -1.0494 -0.1652
15645TIP3    H268427   1.833   0.863   3.061 -1.4595 -0.5245  1.2848
15646TIP3   OH268428   5.892   2.001  11.115 -0.2946  0.4419 -0.3731
15646TIP3    H168429   5.920   2.091  11.097 -0.8160  0.3240 -2.0309
15646TIP3    H268430   5.850   2.005  11.201  2.7758  1.0299  1.2370
15647TIP3   OH268431   1.704   1.654  14.304 -0.4254 -0.5368 -0.3907
15647TIP3    H168432   1.721   1.746  14.321 -0.8577 -0.3328 -1.0708
15647TIP3    H268433   1.759   1.608  14.368 -1.1831  0.1965  0.8166
15648TIP3   OH268434   3.632   1.000  11.204 -0.3145 -0.5434 -0.0336
15648TIP3    H168435   3.541   1.001  11.237 -0.4062 -0.0662 -0.2951
15648TIP3    H268436   3.630   0.940  11.130 -0.2995 -0.9455  0.2878
15649TIP3   OH268437   2.335   0.887   1.368 -0.3604  0.2960 -0.0342
15649TIP3    H168438   2.381   0.861   1.288 -0.6340 -0.1639 -0.0471
15649TIP3    H268439   2.245   0.859   1.354 -0.2979 -0.2831  0.6452
15650TIP3   OH268440   1.136   4.346   0.551  0.7584 -0.3637  0.2670
15650TIP3    H168441   1.042   4.334   0.561  0.8740 -1.8247 -0.0544
15650TIP3    H268442   1.164   4.268   0.502  1.6037  1.7176 -2.8545
15651TIP3   OH268443   0.713   6.828   3.648  0.1827 -0.0656  0.3202
15651TIP3    H168444   0.624   6.863   3.658  0.0649 -0.0900 -0.5148
15651TIP3    H268445   0.744   6.867   3.566  0.9499 -0.0471  0.6166
15652TIP3   OH268446   3.765   3.126  13.174  0.2289  0.6755 -0.3119
15652TIP3    H168447   3.759   3.030  13.171  0.8507  0.5662  1.1150
15652TIP3    H268448   3.674   3.155  13.184  0.1735  0.1392  0.8676
15653TIP3   OH268449   4.628   6.177   0.620  0.4199  0.5644  0.0873
15653TIP3    H168450   4.688   6.237   0.576  0.5049  1.0912  0.9205
15653TIP3    H268451   4.684   6.108   0.654  0.5406  0.9825  0.7416
15654TIP3   OH268452   6.726   6.105  15.281 -0.1687  0.0561  0.2878
15654TIP3    H168453   6.743   6.027  15.334  0.6720  0.0379  0.0095
15654TIP3    H268454   6.750   6.078  15.192 -1.3000  0.1706 -0.0658
15655TIP3   OH268455   5.587   3.218   1.777  0.7546  0.2400 -0.1603
15655TIP3    H168456   5.593   3.140   1.722  0.3068  0.4564 -0.5268
15655TIP3    H268457   5.595   3.185   1.866 -1.8448 -0.5518 -0.1441
15656TIP3   OH268458   2.657   5.955  13.580  0.2354 -0.2646 -0.2946
15656TIP3    H168459   2.600   5.931  13.653 -0.1267 -0.5846 -0.6812
15656TIP3    H268460   2.629   5.899  13.508  1.2256 -0.6244 -0.4097
15657TIP3   OH268461   5.615   2.459  16.094 -0.2607 -0.2736  0.1164
15657TIP3    H168462   5.567   2.486  16.016 -1.6281 -1.4626  0.4967
15657TIP3    H268463   5.705   2.446  16.065 -0.0346  2.2700 -0.5750
15658TIP3   OH268464   1.634   1.079  15.416  0.4313  0.1984 -0.7230
15658TIP3    H168465   1.704   1.042  15.363  2.3434  1.0958  1.0485
15658TIP3    H268466   1.608   1.008  15.475  2.8699  0.9801  1.4692
15659TIP3   OH268467   6.362   6.830  13.441  0.6311  0.1159 -0.0041
15659TIP3    H168468   6.445   6.875  13.458  0.9950 -0.1197 -1.0822
15659TIP3    H268469   6.386   6.757  13.385 -0.2415 -0.2664  0.1134
15660TIP3   OH268470   5.275   2.072  10.550  0.6864 -0.6886  0.3637
15660TIP3    H168471   5.199   2.020  10.523  1.4069 -1.9950  0.7697
15660TIP3    H268472   5.338   2.061  10.479  1.1145 -0.9636  0.7805
15661TIP3   OH268473   6.686   4.597  11.192  0.4304 -0.1179 -0.3435
15661TIP3    H168474   6.666   4.578  11.100 -2.0340 -1.3995  0.3452
15661TIP3    H268475   6.627   4.669  11.215  0.0897 -0.6556  0.5306
15662TIP3   OH268476   0.289   0.761  12.192 -0.2645 -0.2585 -0.2664
15662TIP3    H168477   0.332   0.839  12.229 -1.3883  0.1226  0.2869
15662TIP3    H268478   0.268   0.707  12.268  0.0763 -0.8812 -0.6105
15663TIP3   OH268479   6.304   5.465  15.191 -0.2344 -0.2200  0.3016
15663TIP3    H168480   6.259   5.548  15.175  0.4077  0.0168 -0.3103
15663TIP3    H268481   6.307   5.422  15.105  0.9824 -0.0824  0.2543
15664TIP3   OH268482   2.853   5.893   6.225 -0.9363 -0.4424 -0.1817
15664TIP3    H168483   2.759   5.873   6.229 -0.9833 -0.0543  1.4051
15664TIP3    H268484   2.886   5.835   6.157 -2.4147 -0.1881 -1.1731
15665TIP3   OH268485   3.482   5.179  14.102  0.0335 -0.0538  0.2229
15665TIP3    H168486   3.429   5.153  14.027 -2.5505  0.7736  1.6464
15665TIP3    H268487   3.515   5.266  14.080  0.0572 -0.1980 -0.3232
15666TIP3   OH268488   6.666   2.183   4.435 -0.3004 -0.0276  0.0613
15666TIP3    H168489   6.628   2.127   4.367  0.3927 -0.7173  0.2250
15666TIP3    H268490   6.760   2.167   4.429 -0.1020  1.0205  0.2138
15667TIP3   OH268491   0.646   5.692  13.325  0.3360  0.1813  0.2835
15667TIP3    H168492   0.716   5.641  13.284 -0.8054 -2.0604  0.9492
15667TIP3    H268493   0.688   5.737  13.398  1.3655  0.1318 -0.2564
15668TIP3   OH268494   6.704   5.565  13.356  0.1241  0.2562 -0.1491
15668TIP3    H168495   6.790   5.608  13.364  0.3234 -0.5005  2.4517
15668TIP3    H268496   6.641   5.637  13.357  0.6406  0.7928 -1.6907
15669TIP3   OH268497   2.512   4.463  14.813 -0.3210 -0.2828  0.1854
15669TIP3    H168498   2.503   4.463  14.718 -0.8415 -1.7132  0.2049
15669TIP3    H268499   2.587   4.519  14.831 -2.2230  2.8102 -0.8314
15670TIP3   OH268500   2.652   1.355   1.025 -0.0820  0.6418 -0.1567
15670TIP3    H168501   2.614   1.441   1.006 -0.2167  0.4303 -0.8976
15670TIP3    H268502   2.743   1.373   1.046 -0.5281  1.1431  1.4962
15671TIP3   OH268503   1.038   5.145  14.192 -0.4718  0.1278  0.6529
15671TIP3    H168504   0.993   5.190  14.264 -1.3018 -0.4053  0.4812
15671TIP3    H268505   0.993   5.061  14.185 -0.4458  0.2058 -0.5455
15672TIP3   OH268506   0.060   3.653   3.062  0.4003  0.0823 -0.3567
15672TIP3    H168507   0.097   3.640   3.150  0.5897 -0.1168 -0.4647
15672TIP3    H268508   0.105   3.731   3.029 -0.0017  0.4209 -0.0997
15673TIP3   OH268509   0.921   4.246  16.161  0.0203  0.4513  0.2016
15673TIP3    H168510   0.876   4.197  16.091 -0.9155 -2.2527  2.5198
15673TIP3    H268511   0.856   4.310  16.190  0.8889  2.5755 -2.1626
15674TIP3   OH268512   0.133   2.462  12.946 -0.4617 -0.6958  0.7162
15674TIP3    H168513   0.165   2.386  12.994 -0.1836 -0.6305  0.6388
15674TIP3    H268514   0.065   2.499  13.002  0.2974 -0.2503  1.3731
15675TIP3   OH268515   6.841   6.360   2.759  0.2288  0.2909 -0.0711
15675TIP3    H168516   6.778   6.432   2.763 -0.7342 -0.4328 -1.4512
15675TIP3    H268517   6.805   6.294   2.818 -0.7178 -0.4105 -1.4018
15676TIP3   OH268518   1.842   4.260  13.591  0.2541  0.4412 -0.0070
15676TIP3    H168519   1.818   4.265  13.498 -0.1454  0.3105  0.0848
15676TIP3    H268520   1.795   4.332  13.632 -2.1886 -1.3646  0.6146
15677TIP3   OH268521   3.603   3.033  15.795  0.2159 -0.3856  0.2741
15677TIP3    H168522   3.552   2.956  15.772  0.1920  0.4252 -2.7455
15677TIP3    H268523   3.539   3.104  15.803 -0.0264 -0.7973  4.8873
15678TIP3   OH268524   3.340   6.813   2.543  0.1895 -0.6610  0.4149
15678TIP3    H168525   3.273   6.755   2.508  1.3409 -1.9172  0.2070
15678TIP3    H268526   3.363   6.777   2.628  1.4545 -0.9991 -0.0404
15679TIP3   OH268527   1.455   0.791   2.513  0.1322  0.2937 -0.4761
15679TIP3    H168528   1.390   0.729   2.546  0.7109 -0.5319 -0.8641
15679TIP3    H268529   1.539   0.749   2.529  0.5272  0.9114 -0.8824
15680TIP3   OH268530   6.802   4.504   3.695  0.5946 -0.0845 -0.1076
15680TIP3    H168531   6.765   4.502   3.607  1.0020 -0.3942 -0.2761
15680TIP3    H268532   6.731   4.473   3.751 -0.0477  1.1940 -0.1769
15681TIP3   OH268533   4.143   0.955   5.646 -0.0133  0.1272 -0.0659
15681TIP3    H168534   4.118   1.000   5.726  0.2994 -1.1937  0.8076
15681TIP3    H268535   4.129   0.862   5.664  0.4499 -0.2379 -1.3991
15682TIP3   OH268536   4.528   3.001  14.261  0.3249 -0.4685  0.1658
15682TIP3    H168537   4.468   2.936  14.298  0.4573 -0.1260  0.9875
15682TIP3    H268538   4.614   2.978  14.297  0.5263 -0.3655 -0.2410
15683TIP3   OH268539   5.234   4.793   0.376  0.0013  0.6395 -0.7269
15683TIP3    H168540   5.161   4.844   0.342  0.3267  1.5984 -0.0089
15683TIP3    H268541   5.257   4.835   0.459  0.0052 -0.9263  0.1076
15684TIP3   OH268542   2.773   1.533  11.404 -0.3551  0.2778  0.2062
15684TIP3    H168543   2.806   1.527  11.314  0.2254  0.8246  0.3737
15684TIP3    H268544   2.737   1.446  11.422  1.4650 -0.5315  0.1781
15685TIP3   OH268545   0.752   3.718   0.914 -0.8533  0.6218 -0.0272
15685TIP3    H168546   0.664   3.714   0.875 -0.4752 -1.0137 -0.7946
15685TIP3    H268547   0.747   3.660   0.990 -0.7484  1.4607  0.6307
15686TIP3   OH268548   1.600   5.662   4.133  0.2735  0.1350  0.2807
15686TIP3    H168549   1.647   5.605   4.073  0.6546 -1.0697  1.6922
15686TIP3    H268550   1.535   5.606   4.174 -2.6615  1.7510 -1.7071
15687TIP3   OH268551   2.521   1.971   0.668  0.1730  0.2842  0.1159
15687TIP3    H168552   2.495   1.879   0.664 -1.7059  0.8105 -0.8351
15687TIP3    H268553   2.537   1.995   0.577 -0.0769  1.0881  0.2777
15688TIP3   OH268554   6.163   1.333  14.841 -0.1276  0.2452 -0.1071
15688TIP3    H168555   6.103   1.278  14.790 -0.4719  1.0123 -0.5446
15688TIP3    H268556   6.106   1.398  14.882 -0.0651 -1.1518  2.4207
15689TIP3   OH268557   1.965   4.598  15.288 -0.3300  0.1539  0.5295
15689TIP3    H168558   1.933   4.579  15.376  0.1898  0.1745  0.7277
15689TIP3    H268559   1.954   4.515  15.241 -1.9596  0.5317  0.1786
15690TIP3   OH268560   2.042   3.601  16.847  0.0156  0.0983 -0.4857
15690TIP3    H168561   1.957   3.633  16.879 -0.2425 -0.4567 -0.5871
15690TIP3    H268562   2.049   3.636  16.759  0.3217  0.9122 -0.1403
15691TIP3   OH268563   6.613   3.216  16.654 -0.8199  0.6704 -0.1599
15691TIP3    H168564   6.683   3.267  16.612 -0.7499  1.0743  0.4332
15691TIP3    H268565   6.535   3.270  16.644 -1.8851 -1.1830 -3.7839
15692TIP3   OH268566   0.245   0.246   2.697 -0.0044  0.2455 -0.1295
15692TIP3    H168567   0.172   0.282   2.747 -0.5941 -1.7382  0.5301
15692TIP3    H268568   0.206   0.181   2.639  0.7145  2.3118 -3.0940
15693TIP3   OH268569   2.785   6.627  10.293 -0.2270  0.5144 -0.0296
15693TIP3    H168570   2.755   6.718  10.294 -0.8119  0.3448 -1.1672
15693TIP3    H268571   2.877   6.632  10.319 -0.0945  1.4915 -0.6411
15694TIP3   OH268572   4.890   5.736   4.577 -0.2635  0.1268  0.1396
15694TIP3    H168573   4.849   5.793   4.511  1.7783  2.0892  0.4265
15694TIP3    H268574   4.834   5.744   4.654 -1.8396 -0.9903 -0.8338
15695TIP3   OH268575   6.020   1.066  12.125 -0.2403 -1.0213 -0.1357
15695TIP3    H168576   6.071   1.053  12.046 -0.8711 -1.1132 -0.5390
15695TIP3    H268577   5.997   1.159  12.124  0.2831 -0.8862  0.2706
15696TIP3   OH268578   6.502   3.582   3.359 -0.2423 -0.9081  0.1590
15696TIP3    H168579   6.511   3.647   3.289  0.6698  0.7897  1.7630
15696TIP3    H268580   6.561   3.511   3.334  0.3338 -0.1721 -0.6198
15697TIP3   OH268581   0.644   1.273   3.931  0.6802 -0.5379  0.2692
15697TIP3    H168582   0.706   1.211   3.892 -0.1387 -1.2694  0.1120
15697TIP3    H268583   0.559   1.247   3.897 -0.1457 -1.4501  2.8292
15698TIP3   OH268584   0.010   6.552   2.999 -0.4510 -0.3246  0.3616
15698TIP3    H168585  -0.041   6.593   2.929 -0.4610 -0.4591  0.2898
15698TIP3    H268586  -0.025   6.463   3.005  1.9431 -1.5605 -1.9361
15699TIP3   OH268587   5.581   0.058   1.548 -0.3842 -0.0546 -0.7869
15699TIP3    H168588   5.494   0.079   1.582  0.3457  1.5994  0.2103
15699TIP3    H268589   5.617   0.142   1.519  0.6102 -0.8217 -1.8720
15700TIP3   OH268590   2.600   4.917  11.718  0.0520 -0.1076  0.1173
15700TIP3    H168591   2.676   4.951  11.767 -0.6992 -1.1891  2.1591
15700TIP3    H268592   2.624   4.929  11.626  2.0470  0.9867  0.7078
15701TIP3   OH268593   6.668   0.894   0.669 -0.6685  0.9966 -0.5260
15701TIP3    H168594   6.659   0.892   0.764  3.3045 -1.4712  0.0111
15701TIP3    H268595   6.595   0.840   0.637 -1.3191  0.8032  1.1905
15702TIP3   OH268596   2.785   3.791  15.790  0.0723 -0.3543 -0.0357
15702TIP3    H168597   2.869   3.820  15.754  0.0145  0.3192  0.3478
15702TIP3    H268598   2.741   3.873  15.815 -0.7328 -0.7022 -0.3172
15703TIP3   OH268599   2.473   3.855  11.721  0.0267  0.8429  0.8732
15703TIP3    H168600   2.564   3.830  11.736  0.0549  1.2045  1.3422
15703TIP3    H268601   2.424   3.807  11.787 -0.8132 -3.3670 -2.4038
15704TIP3   OH268602   6.518   0.052  11.606 -0.6954  0.3123 -0.0322
15704TIP3    H168603   6.605   0.067  11.568 -0.6615 -0.8173 -0.4417
15704TIP3    H268604   6.482   0.140  11.620  0.2502  0.7799 -0.4612
15705TIP3   OH268605   4.270   6.148   5.483  0.5031  0.1537  0.5061
15705TIP3    H168606   4.249   6.164   5.391 -0.5371  0.0036  0.7030
15705TIP3    H268607   4.193   6.179   5.530  0.0916 -1.7832  1.1688
15706TIP3   OH268608   5.148   6.828   4.675  0.0523  0.1898 -0.1327
15706TIP3    H168609   5.193   6.908   4.701 -0.8616  1.4659 -2.2330
15706TIP3    H268610   5.213   6.780   4.623  0.9038 -0.9675  1.8554
15707TIP3   OH268611   3.534   1.367  12.224 -0.1371  0.3432  0.1664
15707TIP3    H168612   3.612   1.407  12.185 -1.5052  1.6051 -1.4280
15707TIP3    H268613   3.561   1.277  12.243  1.9007  0.9283  0.3119
15708TIP3   OH268614   3.779   6.654   4.073 -0.0837  0.5675  0.1437
15708TIP3    H168615   3.769   6.559   4.067  0.9641  0.4296  0.2558
15708TIP3    H268616   3.799   6.681   3.983  3.0430  0.1854  0.6037
15709TIP3   OH268617   5.857   6.593   3.834  0.5358 -0.3611 -0.2257
15709TIP3    H168618   5.836   6.581   3.927  0.5570 -0.1923 -0.2000
15709TIP3    H268619   5.783   6.555   3.788 -0.4430  1.3475 -0.1390
15710TIP3   OH268620   5.583   4.977  16.981  0.1912  0.6420  0.2264
15710TIP3    H168621   5.673   4.991  16.954 -0.1505  1.1271 -0.7376
15710TIP3    H268622   5.554   5.061  17.015 -0.4031  0.9850 -1.0702
15711TIP3   OH268623   3.998   1.710  15.258 -0.6756  0.5983  0.3809
15711TIP3    H168624   3.982   1.803  15.242 -3.5415  0.1084 -0.0647
15711TIP3    H268625   3.942   1.688  15.332  0.5065 -0.6674  0.9461
15712TIP3   OH268626   2.781   5.191  16.364  0.4495 -0.7671 -0.0843
15712TIP3    H168627   2.866   5.236  16.359 -0.0037  0.4008  1.7740
15712TIP3    H268628   2.804   5.099  16.378  1.3967 -0.7239 -1.1891
15713TIP3   OH268629   6.400   1.474   4.728  0.6272 -0.5019  0.3042
15713TIP3    H168630   6.317   1.446   4.689 -0.6753  0.8454  1.9450
15713TIP3    H268631   6.379   1.556   4.772  3.1800  0.5730 -0.3346
15714TIP3   OH268632   1.462   3.066   0.393 -0.2893 -1.0770  0.2474
15714TIP3    H168633   1.428   3.152   0.367 -1.4737 -1.5559  0.1288
15714TIP3    H268634   1.463   3.015   0.312  0.0818 -1.2799  0.3791
15715TIP3   OH268635   3.720   0.262   1.461 -0.3197 -0.8146 -0.6365
15715TIP3    H168636   3.630   0.232   1.469 -0.2904 -0.7926 -0.1735
15715TIP3    H268637   3.753   0.263   1.551 -0.3884  0.8116 -0.5887
15716TIP3   OH268638   4.149   4.059  10.811  0.5104  0.1398 -0.3602
15716TIP3    H168639   4.149   3.965  10.798  1.9314  0.2120 -1.0356
15716TIP3    H268640   4.216   4.074  10.878  0.7384  0.7160 -0.7080
15717TIP3   OH268641   3.890   3.372  13.181 -0.1142  0.2194 -0.2735
15717TIP3    H168642   3.963   3.394  13.124 -0.9527  2.1134 -0.6837
15717TIP3    H268643   3.861   3.286  13.150  0.7041  0.3181 -1.3679
15718TIP3   OH268644   5.919   5.644  17.016  0.0506 -0.0543  0.5135
15718TIP3    H168645   5.980   5.570  17.020 -1.5557 -1.4742  0.2949
15718TIP3    H268646   5.959   5.712  17.070  3.3053  0.3188 -2.0515
15719TIP3   OH268647   6.734   4.991  12.764 -0.2304  0.4642 -0.6491
15719TIP3    H168648   6.776   5.073  12.790  0.7378 -1.2113  4.0965
15719TIP3    H268649   6.649   5.017  12.730 -0.3325  3.4793  1.5252
15720TIP3   OH268650   0.384   3.394   0.435 -0.1771 -0.2622 -0.3708
15720TIP3    H168651   0.349   3.319   0.482 -0.4971  0.7744  1.1299
15720TIP3    H268652   0.436   3.357   0.364  2.1464 -1.9802  2.0559
15721TIP3   OH268653   6.693   5.989   3.055 -0.1275 -0.9092 -0.6926
15721TIP3    H168654   6.607   5.947   3.060 -0.2411 -0.5432  1.7255
15721TIP3    H268655   6.752   5.929   3.100 -0.3570  1.3577  3.1449
15722TIP3   OH268656   5.400   6.740  13.843 -0.2760  0.5753 -0.2471
15722TIP3    H168657   5.380   6.719  13.935 -1.4520  1.7459 -0.2072
15722TIP3    H268658   5.337   6.688  13.793 -1.5623  2.0496 -0.2411
15723TIP3   OH268659   6.239   3.366  16.202 -0.3359 -0.5303  0.2300
15723TIP3    H168660   6.163   3.308  16.201  0.8248 -2.2116 -2.7061
15723TIP3    H268661   6.313   3.308  16.217  1.0847 -0.3659 -4.7031
15724TIP3   OH268662   2.674   5.587   1.303  0.0848 -0.0531  0.4177
15724TIP3    H168663   2.672   5.674   1.263  0.2183  0.9272  2.3800
15724TIP3    H268664   2.607   5.591   1.372 -0.2793 -1.7046  0.1959
15725TIP3   OH268665   4.011   5.693   0.946  0.1862  0.3580  0.2334
15725TIP3    H168666   4.067   5.630   0.991  0.4238 -0.0208 -0.5722
15725TIP3    H268667   4.070   5.765   0.922 -0.2964  1.4376  2.1310
15726TIP3   OH268668   2.673   0.932  13.804  0.4017  0.0522  0.3296
15726TIP3    H168669   2.647   1.004  13.862  1.1598 -0.2768  1.0926
15726TIP3    H268670   2.647   0.853  13.851 -0.3734 -0.1890 -0.4790
15727TIP3   OH268671   6.508   0.045  12.170  0.4385  0.2016  0.3637
15727TIP3    H168672   6.479  -0.025  12.228 -2.9201  0.9112 -0.2690
15727TIP3    H268673   6.493   0.011  12.082 -2.8330  2.0926  0.0252
15728TIP3   OH268674   1.734   3.389  15.147 -0.2454 -0.1627  0.9703
15728TIP3    H168675   1.781   3.470  15.128 -2.4047  1.2607  1.4353
15728TIP3    H268676   1.796   3.320  15.123  1.4419  1.5884 -0.0071
15729TIP3   OH268677   3.953   1.909   0.336  0.3884  0.8346  0.1388
15729TIP3    H168678   3.935   1.882   0.426  0.2693  3.0541  0.8233
15729TIP3    H268679   3.962   2.004   0.340  1.5685  0.8775 -2.0058
15730TIP3   OH268680   1.920   5.396  13.348 -0.2061 -0.4099 -0.8865
15730TIP3    H168681   1.967   5.379  13.430  1.7879  1.5186 -1.5217
15730TIP3    H268682   1.829   5.409  13.375  0.3543 -0.0681  0.9916
15731TIP3   OH268683   4.887   2.358  16.528  0.2406  0.9332 -0.0947
15731TIP3    H168684   4.844   2.386  16.448 -0.0441 -1.6359 -0.9456
15731TIP3    H268685   4.922   2.271  16.507 -0.6692 -0.2431  2.8246
15732TIP3   OH268686   6.576   2.838   1.694 -0.2376  0.3100  0.3279
15732TIP3    H168687   6.496   2.812   1.648 -1.0812  2.1241  0.6703
15732TIP3    H268688   6.646   2.791   1.648 -1.3583 -0.3465 -0.7992
15733TIP3   OH268689   2.674   5.368   5.894  0.0768 -0.0714 -0.4958
15733TIP3    H168690   2.764   5.393   5.874  0.3891  0.2159  1.1411
15733TIP3    H268691   2.644   5.434   5.957 -0.5339 -1.3678  0.6343
15734TIP3   OH268692   5.659   1.345  12.809  0.4991 -0.3573  0.7971
15734TIP3    H168693   5.625   1.409  12.871  1.3403  0.7797  0.1299
15734TIP3    H268694   5.754   1.351  12.817  0.6192 -0.4435 -0.3166
15735TIP3   OH268695   6.625   0.509   0.312 -0.4167  0.1334  0.2960
15735TIP3    H168696   6.608   0.465   0.229 -0.9830  0.1875  0.3807
15735TIP3    H268697   6.715   0.540   0.304 -1.1021  1.9196 -1.1255
15736TIP3   OH268698   3.581   3.938  15.426  0.3674  0.2460  0.0238
15736TIP3    H168699   3.519   3.898  15.366  1.1608  0.1950 -0.7820
15736TIP3    H268700   3.546   4.026  15.442  0.3410  0.3969 -0.8202
15737TIP3   OH268701   1.600   3.602   1.069 -0.2966  0.4136 -0.0527
15737TIP3    H168702   1.579   3.528   1.125  1.9697 -0.0469  0.2851
15737TIP3    H268703   1.688   3.584   1.037 -0.5739  1.8779 -1.8034
15738TIP3   OH268704   4.649   4.121   2.565  0.1390  0.5432  0.2727
15738TIP3    H168705   4.681   4.048   2.512 -1.8419  0.4698 -0.9292
15738TIP3    H268706   4.611   4.079   2.642  1.7771  0.5661  1.1518
15739TIP3   OH268707   1.180   2.847  14.248 -0.2831 -0.0684 -0.0186
15739TIP3    H168708   1.262   2.893  14.234 -0.1367 -0.7802 -1.8216
15739TIP3    H268709   1.165   2.851  14.343  2.4430 -0.9416  0.5347
15740TIP3   OH268710   3.772   3.491   2.462 -1.0453  0.3999 -0.2102
15740TIP3    H168711   3.694   3.540   2.436 -1.3427  1.4857  2.3748
15740TIP3    H268712   3.748   3.451   2.546  0.8575 -0.0196  0.1818
15741TIP3   OH268713   0.971   4.820  12.414 -0.0211  0.0025  0.8730
15741TIP3    H168714   0.945   4.741  12.461 -0.0042  0.2932  1.3704
15741TIP3    H268715   1.053   4.847  12.455  0.7716 -0.5507 -0.2727
15742TIP3   OH268716   4.342   3.394   0.827 -0.5887 -0.8160 -0.1902
15742TIP3    H168717   4.391   3.321   0.789 -1.4301 -2.1795  1.2397
15742TIP3    H268718   4.259   3.394   0.780 -0.7371 -1.0340  0.0699
15743TIP3   OH268719   5.317   4.372   1.338  0.3451 -0.0680 -0.7328
15743TIP3    H168720   5.412   4.382   1.325  0.3315 -0.0734 -0.8383
15743TIP3    H268721   5.296   4.434   1.408  0.9927 -2.4802  1.7701
15744TIP3   OH268722   5.906   6.428   0.013 -0.0870  0.1623 -0.1134
15744TIP3    H168723   5.975   6.362   0.021 -0.0225  0.1553 -0.6835
15744TIP3    H268724   5.944   6.507   0.051  0.1392  0.0860 -0.1762
15745TIP3   OH268725   3.910   3.019  12.573  0.2684  0.3069  0.4719
15745TIP3    H168726   3.958   3.065  12.504  1.0286  0.4092  1.0417
15745TIP3    H268727   3.820   3.050  12.565  0.2103 -0.1708 -0.8647
15746TIP3   OH268728   2.926   6.726  14.798 -0.0780 -0.1316 -0.0568
15746TIP3    H168729   2.833   6.737  14.779 -0.1241  1.3684  0.8742
15746TIP3    H268730   2.928   6.677  14.881 -0.1347  1.6224  1.0344
15747TIP3   OH268731   3.732   4.257  13.557 -0.3573  0.0478  0.0937
15747TIP3    H168732   3.769   4.173  13.531  2.3387  1.5322 -1.2642
15747TIP3    H268733   3.727   4.252  13.653  1.2975 -1.0700  0.1593
15748TIP3   OH268734   2.895   1.045   0.229 -0.3623  0.5230  0.0163
15748TIP3    H168735   2.816   1.001   0.261 -0.7811  0.0613 -1.5912
15748TIP3    H268736   2.966   1.009   0.283 -0.8084 -1.4797 -0.6564
15749TIP3   OH268737   3.066   5.062  12.086 -0.0226 -0.2288 -0.0351
15749TIP3    H168738   3.084   4.983  12.137 -1.8268  1.0347  2.8217
15749TIP3    H268739   3.002   5.035  12.021 -1.0958 -1.0751  1.3068
15750TIP3   OH268740   3.613   4.411   1.975 -0.0829 -0.6719  0.5039
15750TIP3    H168741   3.612   4.348   2.048 -1.7234 -1.0734  0.1946
15750TIP3    H268742   3.647   4.492   2.013 -1.7140 -0.6168  1.9924
15751TIP3   OH268743   3.546   0.066   3.985 -0.9827 -0.1062 -0.6726
15751TIP3    H168744   3.513   0.141   4.035 -0.8984 -0.4902 -0.0446
15751TIP3    H268745   3.488  -0.006   4.009  0.4530 -0.8557  0.6359
15752TIP3   OH268746   5.313   1.148   0.233  0.1849 -0.3936 -0.4674
15752TIP3    H168747   5.376   1.142   0.306 -1.7279 -0.4369  1.2654
15752TIP3    H268748   5.273   1.234   0.243  0.7928  0.1308 -2.2942
15753TIP3   OH268749   5.019   0.043   2.344 -0.2433  0.3226 -0.0792
15753TIP3    H168750   5.093   0.092   2.380 -0.1638 -0.4484  0.8413
15753TIP3    H268751   4.946   0.062   2.405 -1.0074  1.5859 -1.3198
15754TIP3   OH268752   0.160   6.355  12.040 -0.4060  0.3716 -0.1586
15754TIP3    H168753   0.112   6.367  12.122 -0.3384 -0.9576  0.0953
15754TIP3    H268754   0.142   6.265  12.015  2.3771 -0.3829  0.2210
15755TIP3   OH268755   3.661   4.703   2.037  0.9219 -0.0095 -0.1819
15755TIP3    H168756   3.615   4.780   2.002 -0.4653 -0.7227  0.0320
15755TIP3    H268757   3.732   4.688   1.974 -0.0262  0.2278 -1.3350
15756TIP3   OH268758   1.245   1.901   2.004  0.4333 -0.7778  0.1976
15756TIP3    H168759   1.331   1.919   2.041  0.6594 -0.7073 -0.3610
15756TIP3    H268760   1.191   1.877   2.080  0.1009  2.2327  1.0181
15757TIP3   OH268761   0.676   4.700  12.353  0.1470 -0.8140  0.4545
15757TIP3    H168762   0.625   4.624  12.383  1.8842 -2.2476 -0.0251
15757TIP3    H268763   0.722   4.668  12.276  1.7247  0.4206  0.8479
15758TIP3   OH268764   5.525   1.103   4.251  0.2200  0.2914 -0.4508
15758TIP3    H168765   5.608   1.143   4.227  0.2415  1.1265  0.9604
15758TIP3    H268766   5.489   1.160   4.318 -2.1022  0.6558 -1.8824
15759TIP3   OH268767   0.766   3.257   4.993  0.3657 -0.6169  0.2587
15759TIP3    H168768   0.847   3.211   5.014  0.4207 -0.5347  0.2278
15759TIP3    H268769   0.760   3.253   4.898 -0.1117 -1.3739  0.3166
15760TIP3   OH268770   3.086   3.223  16.951 -0.0475  0.0590 -0.1941
15760TIP3    H168771   3.168   3.191  16.915  0.0092 -0.5818  0.4947
15760TIP3    H268772   3.027   3.147  16.948 -0.4936  0.4016 -0.3013
15761TIP3   OH268773   0.862   1.149   1.447  0.2923 -0.1998  0.0414
15761TIP3    H168774   0.881   1.110   1.532 -0.2209 -1.5464 -0.4461
15761TIP3    H268775   0.947   1.155   1.404  0.4115 -0.5587  0.2222
15762TIP3   OH268776   4.619   4.862  11.468 -0.3976 -0.4119  0.3986
15762TIP3    H168777   4.592   4.948  11.435  1.7622  0.7923  1.5977
15762TIP3    H268778   4.581   4.857  11.556 -1.3133 -1.1283 -0.0215
15763TIP3   OH268779   2.574   3.042   4.817 -0.7590 -0.0151 -0.6081
15763TIP3    H168780   2.663   3.077   4.816 -0.5309 -0.3397  1.9709
15763TIP3    H268781   2.586   2.947   4.808 -1.0921  0.1128 -3.0963
15764TIP3   OH268782   4.847   2.831   3.963  0.5870  0.0375 -0.1117
15764TIP3    H168783   4.841   2.905   4.023 -1.8423 -0.9256  0.9473
15764TIP3    H268784   4.878   2.758   4.017  2.2984  0.0377 -0.9992
15765TIP3   OH268785   4.618   0.088  10.498 -0.3469 -0.5629 -0.3155
15765TIP3    H168786   4.669   0.165  10.471 -1.1847  0.1333  0.0577
15765TIP3    H268787   4.529   0.105  10.468 -0.9107 -0.6195  1.1979
15766TIP3   OH268788   0.827   4.461   4.923  0.8713 -0.1656  0.2915
15766TIP3    H168789   0.766   4.533   4.938  0.4577 -0.4932  0.1795
15766TIP3    H268790   0.779   4.382   4.948  1.0084 -0.4872 -0.4273
15767TIP3   OH268791   1.044   3.653  16.729  0.3735 -0.4145 -0.6753
15767TIP3    H168792   1.090   3.635  16.647  1.8848  0.1700  0.0020
15767TIP3    H268793   1.052   3.572  16.779 -2.1328 -1.4339 -1.7346
15768TIP3   OH268794   6.742   5.697   4.627 -0.3004 -0.1075  0.4100
15768TIP3    H168795   6.650   5.682   4.650 -0.9733  1.6783 -0.8716
15768TIP3    H268796   6.771   5.764   4.688 -0.1187 -0.0324  0.2398
15769TIP3   OH268797   6.211   1.575  13.518 -0.4694 -0.3957 -0.5612
15769TIP3    H168798   6.142   1.540  13.575 -1.7812  3.1002  0.2431
15769TIP3    H268799   6.273   1.503  13.509 -2.1450 -2.3756  2.1063
15770TIP3   OH268800   6.837   3.023   6.005  0.0044 -0.3547 -0.2943
15770TIP3    H168801   6.758   3.075   6.014  1.3022  1.5774  0.4553
15770TIP3    H268802   6.822   2.970   5.926 -1.3136  1.2602 -1.1787
15771TIP3   OH268803   1.509   1.863  12.348 -0.6773  0.2428 -0.2958
15771TIP3    H168804   1.563   1.797  12.391 -0.1574 -0.2379 -1.6424
15771TIP3    H268805   1.475   1.819  12.270 -2.7905  0.6266  0.3355
15772TIP3   OH268806   6.548   4.161   4.260  0.4293 -0.2185 -0.0650
15772TIP3    H168807   6.487   4.175   4.187  0.3565  0.1995  0.0741
15772TIP3    H268808   6.515   4.081   4.303 -0.0047 -0.0151 -0.0109
15773TIP3   OH268809   1.123   3.060  12.034 -0.2259  0.0999 -0.7212
15773TIP3    H168810   1.069   3.126  11.990  1.4076  3.0168  1.3836
15773TIP3    H268811   1.197   3.047  11.975 -0.2222  0.6284 -0.8362
15774TIP3   OH268812   4.132   3.772  16.605  0.2478  0.0660 -0.1102
15774TIP3    H168813   4.135   3.679  16.582  1.5628 -0.1238  0.7232
15774TIP3    H268814   4.223   3.799  16.607  0.0093  0.8666  1.6365
15775TIP3   OH268815   1.566   5.902  12.926 -0.5648 -0.4905  0.5233
15775TIP3    H168816   1.537   5.825  12.878 -1.8047  0.6332 -0.6075
15775TIP3    H268817   1.514   5.901  13.006 -1.2200 -0.3573  0.1023
15776TIP3   OH268818   4.465   4.242  11.036  0.2269  0.6641  0.1145
15776TIP3    H168819   4.461   4.150  11.064 -2.0077 -0.0496 -2.2041
15776TIP3    H268820   4.555   4.268  11.054  1.4119 -2.4719 -0.5394
15777TIP3   OH268821   4.338   1.373  14.759 -0.0725 -0.3788  0.1728
15777TIP3    H168822   4.368   1.288  14.727  1.2727  0.1501 -0.0208
15777TIP3    H268823   4.300   1.415  14.682 -1.1512 -0.9582  0.3677
15778TIP3   OH268824   0.454   2.456   3.903 -0.0823 -0.0268 -0.2187
15778TIP3    H168825   0.430   2.542   3.868  0.9152  0.4045  0.1439
15778TIP3    H268826   0.543   2.467   3.935 -0.5524 -0.7404  1.4037
15779TIP3   OH268827   4.046   2.112   4.462 -0.1601  0.8632  0.2581
15779TIP3    H168828   3.981   2.175   4.493  0.3801  0.9748  1.2019
15779TIP3    H268829   4.126   2.134   4.510  0.0403 -0.5363  0.6015
15780TIP3   OH268830   2.586   4.447   3.461 -0.3998  0.6462 -0.7175
15780TIP3    H168831   2.682   4.450   3.460 -0.2265 -2.0995 -0.3266
15780TIP3    H268832   2.565   4.366   3.507 -2.9130  0.7261 -1.5591
15781TIP3   OH268833   5.787   6.459   3.072 -0.0519  0.5835 -0.5139
15781TIP3    H168834   5.693   6.444   3.079  0.1822 -0.5709  0.5435
15781TIP3    H268835   5.795   6.531   3.010 -1.5856  0.1026 -1.3312
15782TIP3   OH268836   4.804   6.452   0.818 -0.1655 -0.0770 -0.1978
15782TIP3    H168837   4.823   6.536   0.861  0.1436 -0.8415  1.2428
15782TIP3    H268838   4.712   6.459   0.792  0.4148  1.5019 -2.0726
15783TIP3   OH268839   5.400   1.521  14.190  0.2471  0.3773 -0.3921
15783TIP3    H168840   5.323   1.569  14.158 -0.9294  0.2028  1.9920
15783TIP3    H268841   5.436   1.577  14.259 -0.2638 -1.4182  1.4087
15784TIP3   OH268842   5.509   4.085   0.101 -0.0452 -0.5093 -0.0810
15784TIP3    H168843   5.503   4.143   0.026 -1.6333 -1.9080 -1.1052
15784TIP3    H268844   5.593   4.041   0.091  0.3952  0.3475 -0.2205
15785TIP3   OH268845   0.324   6.208  14.048  0.0493  0.8362 -0.2464
15785TIP3    H168846   0.311   6.178  13.958 -0.1094 -3.2340  0.9292
15785TIP3    H268847   0.343   6.128  14.097 -0.7768  2.7317  3.5294
15786TIP3   OH268848   4.580   3.869  13.390  0.3705 -0.0658  0.4326
15786TIP3    H168849   4.511   3.936  13.390  1.3266  0.9426 -0.5012
15786TIP3    H268850   4.543   3.797  13.339 -0.7366 -0.3744  1.5918
15787TIP3   OH268851   2.911   6.190  16.193 -0.0319  0.0285  0.5021
15787TIP3    H168852   2.908   6.226  16.105  0.3188 -2.0524 -0.4350
15787TIP3    H268853   2.993   6.142  16.197  0.0508  0.2489  2.0482
15788TIP3   OH268854   4.278   2.302  12.875  0.1670  0.1466 -0.1858
15788TIP3    H168855   4.236   2.378  12.835  0.6150  0.1588 -0.6408
15788TIP3    H268856   4.218   2.276  12.946 -0.1037  0.7740 -0.1782
15789TIP3   OH268857   3.879   5.418  10.252 -0.5146  0.2949 -0.5110
15789TIP3    H168858   3.931   5.344  10.223 -0.4310  0.1974 -0.1171
15789TIP3    H268859   3.905   5.432  10.343  1.3146  2.3777 -1.2698
15790TIP3   OH268860   0.156   5.878   5.117  0.6896  0.0269 -0.3459
15790TIP3    H168861   0.208   5.915   5.188 -0.0556 -0.7649  0.6413
15790TIP3    H268862   0.113   5.953   5.077 -1.3113  0.2900  2.0188
15791TIP3   OH268863   5.663   4.319   0.622 -0.1814 -0.1911  0.1911
15791TIP3    H168864   5.700   4.232   0.608 -0.3156 -0.2562  0.2342
15791TIP3    H268865   5.619   4.340   0.540  1.5394  0.6929 -0.5504
15792TIP3   OH268866   5.808   2.773   6.527 -0.0157  0.0652 -0.4820
15792TIP3    H168867   5.793   2.681   6.502  0.8927  0.5098 -3.0194
15792TIP3    H268868   5.746   2.823   6.473  0.7540  1.0383 -0.4933
15793TIP3   OH268869   5.947   0.518  11.685  0.3623 -0.3503 -0.6252
15793TIP3    H168870   6.038   0.536  11.711  0.6462 -0.1230 -1.6975
15793TIP3    H268871   5.951   0.514  11.589 -0.5156 -1.7436 -0.6238
15794TIP3   OH268872   2.767   1.353  12.773  0.1374 -0.3064 -0.0353
15794TIP3    H168873   2.851   1.365  12.818  0.7106  1.0775 -1.3589
15794TIP3    H268874   2.775   1.269  12.729  1.1485  0.1471 -0.7490
15795TIP3   OH268875   1.771   5.477  11.933  0.7490  0.6220  0.4186
15795TIP3    H168876   1.714   5.401  11.935  0.8413  0.4151 -1.7809
15795TIP3    H268877   1.825   5.465  11.855  0.4581  3.1316 -0.2809
15796TIP3   OH268878   5.092   2.033   2.850 -0.4561 -0.3650 -0.3392
15796TIP3    H168879   4.997   2.029   2.856 -0.5075  1.1037  0.1165
15796TIP3    H268880   5.110   2.040   2.756 -0.8284 -0.1056 -0.3932
15797TIP3   OH268881   6.258   1.447  12.985 -0.1767 -0.2374  0.6246
15797TIP3    H168882   6.347   1.414  12.968  0.1275  0.2060  1.2874
15797TIP3    H268883   6.201   1.388  12.936  0.6025  0.8207 -1.6953
15798TIP3   OH268884   0.752   3.395  14.354  0.2663 -0.3322  0.1445
15798TIP3    H168885   0.772   3.378  14.262 -1.9255 -0.5368 -0.3510
15798TIP3    H268886   0.700   3.475  14.352  0.9211  0.1475  1.3241
15799TIP3   OH268887   6.762   4.178   0.447 -0.1358 -0.2227  0.2520
15799TIP3    H168888   6.749   4.241   0.518 -0.0457 -0.4535  0.4755
15799TIP3    H268889   6.750   4.229   0.367 -1.2032 -0.1516  0.4344
15800TIP3   OH268890   4.163   5.743  12.128 -0.1576  0.1963  0.3582
15800TIP3    H168891   4.085   5.695  12.101  0.1959 -0.1986  0.0188
15800TIP3    H268892   4.194   5.696  12.206  0.3993 -0.3546 -0.1929
15801TIP3   OH268893   3.380   6.773  16.321 -0.0337  0.8719  0.2324
15801TIP3    H168894   3.303   6.744  16.273 -0.0712 -0.1536  0.8919
15801TIP3    H268895   3.367   6.868  16.330 -0.7669  0.8511 -0.4434
15802TIP3   OH268896   0.549   0.366   4.508 -0.2242  0.3992  0.5598
15802TIP3    H168897   0.637   0.373   4.470  0.2351  1.2019  1.7281
15802TIP3    H268898   0.501   0.440   4.470  0.0631  0.8531  1.0599
15803TIP3   OH268899   1.152   2.118  16.926  0.7064  0.5622  0.1290
15803TIP3    H168900   1.239   2.128  16.888  0.3536  2.9967 -0.1743
15803TIP3    H268901   1.147   2.186  16.993 -0.9548  0.4763  0.1295
15804TIP3   OH268902   4.101   3.264  12.790  0.0681 -0.3515 -0.1139
15804TIP3    H168903   4.124   3.248  12.698  0.4040 -0.9945  0.0771
15804TIP3    H268904   4.036   3.197  12.810 -0.0811 -0.1460  0.0871
15805TIP3   OH268905   2.779   2.642   4.920 -0.1109 -0.2285 -0.1723
15805TIP3    H168906   2.830   2.604   4.991  1.5976 -1.5050 -1.9745
15805TIP3    H268907   2.732   2.569   4.882 -4.2393  1.0255  1.9703
15806TIP3   OH268908   1.090   6.320  11.812 -0.3492  0.9952  0.1005
15806TIP3    H168909   1.138   6.249  11.770  0.2139  0.9604  0.7804
15806TIP3    H268910   1.006   6.279  11.837 -0.3174  0.7696 -0.1534
15807TIP3   OH268911   1.888   6.787   3.401 -0.1560  0.1104  0.4409
15807TIP3    H168912   1.934   6.864   3.370  0.2876 -0.6310 -0.7983
15807TIP3    H268913   1.950   6.744   3.460 -0.1977  0.4041  0.7012
15808TIP3   OH268914   6.310   6.346   4.305 -0.2260 -0.6862 -0.7005
15808TIP3    H168915   6.269   6.354   4.391  1.0095  1.3101 -0.2370
15808TIP3    H268916   6.359   6.427   4.294  1.8929 -2.0577 -2.1098
15809TIP3   OH268917   3.731   5.567   4.489 -0.2271  0.1565 -0.3521
15809TIP3    H168918   3.699   5.556   4.579 -2.5055  4.2464 -0.4157
15809TIP3    H268919   3.795   5.637   4.496 -0.6370  0.7173 -1.9203
15810TIP3   OH268920   2.400   1.725   0.667 -0.3424  0.6198 -0.0475
15810TIP3    H168921   2.484   1.680   0.670  0.1277  1.4262 -0.7101
15810TIP3    H268922   2.376   1.739   0.759 -0.0088 -0.0778  0.1478
15811TIP3   OH268923   2.510   5.890   6.000  0.1488 -0.0417 -0.0161
15811TIP3    H168924   2.554   5.881   6.084  1.1253 -1.0755 -0.6132
15811TIP3    H268925   2.482   5.982   5.997  1.6016  0.4501  0.6999
15812TIP3   OH268926   5.850   1.774  14.384  0.4497 -0.0518  0.2202
15812TIP3    H168927   5.870   1.801  14.474 -1.2362 -0.1127  0.6507
15812TIP3    H268928   5.756   1.791  14.375 -0.1147 -3.0369 -0.4406
15813TIP3   OH268929   2.668   0.846   5.173 -0.2358 -0.7541  0.3997
15813TIP3    H168930   2.717   0.767   5.197 -1.8455 -1.6692  0.8616
15813TIP3    H268931   2.602   0.815   5.111 -1.5848  0.0062  1.3961
15814TIP3   OH268932   6.830   0.382   3.666  0.4561  0.3064  0.6442
15814TIP3    H168933   6.902   0.319   3.661 -0.5187 -0.8391  0.5984
15814TIP3    H268934   6.824   0.405   3.758 -0.0676 -0.7586  0.8931
15815TIP3   OH268935   0.168   2.561   5.659  0.3242  0.0701  0.0879
15815TIP3    H168936   0.111   2.501   5.708 -0.6631  1.0698  0.1877
15815TIP3    H268937   0.199   2.624   5.724 -0.0596  0.7129 -0.3456
15816TIP3   OH268938   2.996   1.827  11.583  0.6014  0.4905 -0.2521
15816TIP3    H168939   2.952   1.860  11.662  1.4473  0.2090  0.3503
15816TIP3    H268940   2.928   1.829  11.515  0.6130  3.6019 -0.3033
15817TIP3   OH268941   0.646   4.965   2.347  0.0758  0.7214 -0.8842
15817TIP3    H168942   0.558   4.927   2.356 -0.3846  1.5350 -1.7980
15817TIP3    H268943   0.700   4.915   2.408 -1.2761  0.9938  0.6116
15818TIP3   OH268944   1.249   0.288  11.164  0.9905  0.2459  0.8156
15818TIP3    H168945   1.238   0.352  11.094 -0.9226  1.3466  2.0102
15818TIP3    H268946   1.218   0.205  11.127  1.6920  0.4137 -0.1657
15819TIP3   OH268947   5.522   0.001   2.606 -0.1221 -0.0941 -0.1866
15819TIP3    H168948   5.613  -0.001   2.637 -0.2309  0.1249  0.1621
15819TIP3    H268949   5.528  -0.012   2.512  0.3589  1.0882 -0.3356
15820TIP3   OH268950   6.643   3.726  15.843  0.4120 -0.3234  0.6972
15820TIP3    H168951   6.628   3.632  15.858  1.8591 -0.3487  2.3895
15820TIP3    H268952   6.694   3.754  15.919  1.2401  1.5398 -0.4775
15821TIP3   OH268953   6.273   1.003  15.792  0.3683  0.3130 -0.6233
15821TIP3    H168954   6.364   0.975  15.782  0.0512 -0.9997 -0.1309
15821TIP3    H268955   6.274   1.058  15.871  0.8128  0.7479 -0.9238
15822TIP3   OH268956   1.715   6.079   5.823 -0.0299  0.7968 -0.3000
15822TIP3    H168957   1.710   6.018   5.897 -2.3320  1.9512  0.6087
15822TIP3    H268958   1.729   6.165   5.864  0.5551  1.2328 -1.3673
15823TIP3   OH268959   0.732   1.944   1.432 -0.6524  0.2026 -0.3428
15823TIP3    H168960   0.737   1.854   1.398 -1.8089 -0.3110  0.7673
15823TIP3    H268961   0.803   1.950   1.496  0.1060  0.4487 -1.1832
15824TIP3   OH268962   6.407   3.274   5.511 -0.0349 -0.1453 -0.2606
15824TIP3    H168963   6.390   3.263   5.417  0.0604 -0.2229 -0.2697
15824TIP3    H268964   6.324   3.303   5.548  0.5629  2.5287 -0.7962
15825TIP3   OH268965   5.196   0.351   0.261  0.0102 -0.3382  0.3027
15825TIP3    H168966   5.103   0.329   0.252 -0.0385  0.2362 -0.7879
15825TIP3    H268967   5.229   0.291   0.327 -0.8688 -1.3694 -0.1756
15826TIP3   OH268968   5.241   0.964   2.126 -1.1916  0.0814  0.3231
15826TIP3    H168969   5.311   0.922   2.076 -1.0482  1.3357 -0.5776
15826TIP3    H268970   5.278   1.048   2.154 -2.4911  1.0129 -0.6448
15827TIP3   OH268971   0.750   0.998  13.797  0.1705  0.1940  0.6558
15827TIP3    H168972   0.727   0.943  13.871 -1.9403  0.4998  0.2931
15827TIP3    H268973   0.774   1.082  13.836 -0.2943  0.1543  1.0422
15828TIP3   OH268974   1.841   6.509   2.429  0.0952  0.1122  0.0419
15828TIP3    H168975   1.891   6.578   2.472 -0.3058  1.7351 -1.9485
15828TIP3    H268976   1.750   6.531   2.447 -0.0233 -0.1876 -0.1933
15829TIP3   OH268977   4.944   3.329  12.843  0.1738  0.0173 -0.5408
15829TIP3    H168978   4.867   3.318  12.900  1.1364 -1.3080  0.5535
15829TIP3    H268979   4.974   3.418  12.862 -0.5365  0.2172 -0.2867
15830TIP3   OH268980   4.678   1.501  16.152  0.2060 -0.4020  0.6117
15830TIP3    H168981   4.702   1.589  16.181 -2.1773  0.1291  1.2025
15830TIP3    H268982   4.607   1.475  16.210  0.0368 -2.2295 -0.3368
15831TIP3   OH268983   2.368   5.822  11.570 -0.2077  0.4911 -0.1290
15831TIP3    H168984   2.414   5.861  11.644  0.5411  3.4693 -1.9909
15831TIP3    H268985   2.279   5.808  11.602  0.5655 -0.2259  1.8809
15832TIP3   OH268986   6.276   1.806   4.482 -0.4059 -0.0094 -0.1358
15832TIP3    H168987   6.250   1.897   4.466  0.8884  0.8085  1.9004
15832TIP3    H268988   6.224   1.779   4.558 -0.3700 -0.7810 -0.3772
15833TIP3   OH268989   6.371   4.584  16.314  0.3704 -0.3760  0.2067
15833TIP3    H168990   6.342   4.530  16.241  0.8082 -2.8432  1.7447
15833TIP3    H268991   6.451   4.542  16.345  1.8885  2.3436  0.3013
15834TIP3   OH268992   1.314   1.720  10.707 -0.5298 -0.5488  0.1342
15834TIP3    H168993   1.373   1.704  10.780 -1.6114 -1.9441  0.7548
15834TIP3    H268994   1.345   1.663  10.637 -1.5275 -1.8535  0.7120
15835TIP3   OH268995   3.818   4.781  14.475  0.0249 -0.0837  0.5888
15835TIP3    H168996   3.748   4.829  14.431  0.3687  0.5089  0.6779
15835TIP3    H268997   3.896   4.799  14.422  0.5540  1.0766  1.7218
15836TIP3   OH268998   4.960   1.583   0.223 -0.1752  0.3426  0.0540
15836TIP3    H168999   5.024   1.531   0.174  0.5568  0.4737  0.8360
15836TIP3    H269000   4.878   1.574   0.174  0.2454 -0.5071 -0.5117
15837TIP3   OH269001   0.173   1.064   1.297 -0.7354 -0.0686 -0.1431
15837TIP3    H169002   0.126   0.981   1.309 -0.6741  0.2251  3.3794
15837TIP3    H269003   0.137   1.101   1.217 -1.6203 -2.9312 -1.1934
15838TIP3   OH269004   1.465   0.779  13.353  0.4419 -0.0361  0.6231
15838TIP3    H169005   1.466   0.712  13.422 -0.0216 -0.6205  0.0649
15838TIP3    H269006   1.375   0.810  13.350  0.3035 -0.4952 -0.1808
15839TIP3   OH269007   3.738   2.861  13.213 -0.3810  0.5812  0.2664
15839TIP3    H169008   3.671   2.816  13.264 -0.8118  2.1572  1.1615
15839TIP3    H269009   3.752   2.805  13.137 -0.7275 -1.1443  1.4043
15840TIP3   OH269010   1.949   6.570   0.048 -0.0487 -0.2329  0.0574
15840TIP3    H169011   1.866   6.617   0.054 -0.1102 -0.4403  0.8693
15840TIP3    H269012   1.959   6.550  -0.045 -1.6214 -1.5078  0.1308
15841TIP3   OH269013   1.071   5.886   4.799 -0.2503 -0.3018 -0.3512
15841TIP3    H169014   0.990   5.849   4.765  0.1191  0.2571 -1.9185
15841TIP3    H269015   1.045   5.937   4.875 -1.2588 -0.7228 -0.4049
15842TIP3   OH269016   5.723   3.941  12.630 -0.0701  0.2320 -0.1012
15842TIP3    H169017   5.761   3.857  12.604  1.9135  1.0459 -0.0851
15842TIP3    H269018   5.663   3.963  12.559  1.3814 -0.0149 -1.4875
15843TIP3   OH269019   2.295   4.854  16.274 -0.2092 -0.0377 -0.4079
15843TIP3    H169020   2.250   4.777  16.241  0.1268 -0.0409 -0.8638
15843TIP3    H269021   2.272   4.924  16.213 -0.3678  0.1847 -0.0997
15844TIP3   OH269022   0.683   2.946   2.378 -0.4348 -0.3865 -0.4951
15844TIP3    H169023   0.730   3.028   2.394 -0.4894 -0.3705 -0.4164
15844TIP3    H269024   0.632   2.962   2.299 -0.3446 -0.3877 -0.5533
15845TIP3   OH269025   4.872   3.419  13.412 -0.0756 -0.0020  0.2754
15845TIP3    H169026   4.926   3.401  13.489 -0.8181 -0.5007  0.6908
15845TIP3    H269027   4.870   3.336  13.363  0.0536  0.1932 -0.0641
15846TIP3   OH269028   5.238   5.351   1.386 -0.3508  0.1361 -0.5395
15846TIP3    H169029   5.163   5.409   1.404  0.0703  0.0528  1.7829
15846TIP3    H269030   5.208   5.265   1.415  0.1702 -0.1672 -0.9004
15847TIP3   OH269031   4.237   2.685   0.515  0.1971  0.4721 -0.1545
15847TIP3    H169032   4.322   2.681   0.471 -0.1060  1.2047 -0.8167
15847TIP3    H269033   4.246   2.624   0.589  1.3280  0.6117 -0.1588
15848TIP3   OH269034   2.340   0.940   5.100  0.3168 -0.4353  0.4723
15848TIP3    H169035   2.391   0.899   5.031 -1.0423 -1.8383  0.2367
15848TIP3    H269036   2.383   1.024   5.116  2.1841 -1.2145 -0.2386
15849TIP3   OH269037   5.670   3.848  16.878  0.2976  0.1094  0.0242
15849TIP3    H169038   5.646   3.939  16.858 -0.8119 -0.7456 -3.3174
15849TIP3    H269039   5.637   3.833  16.966 -0.2085  2.6807  0.3681
15850TIP3   OH269040   4.246   4.710   5.764  0.0260 -0.0680 -0.1487
15850TIP3    H169041   4.335   4.720   5.797 -1.3674 -0.0988  4.1394
15850TIP3    H269042   4.233   4.615   5.758  0.0661 -0.0745 -0.1328
15851TIP3   OH269043   5.351   2.953   5.673 -0.2549 -0.5500  0.4071
15851TIP3    H169044   5.406   2.968   5.750  0.1362 -0.2751  0.0763
15851TIP3    H269045   5.343   3.039   5.632 -0.0308 -0.7844 -0.1461
15852TIP3   OH269046   4.027   0.966  12.628 -0.0144  0.2625 -0.6448
15852TIP3    H169047   3.982   1.017  12.695  0.1122  1.6135 -1.5343
15852TIP3    H269048   4.102   1.021  12.603  1.1109 -1.1385 -0.4558
15853TIP3   OH269049   5.773   1.643  11.807  0.3166 -0.1681  0.1473
15853TIP3    H169050   5.818   1.713  11.760 -3.0273  0.3972 -2.5773
15853TIP3    H269051   5.765   1.572  11.743 -2.3460 -0.3057  0.5367
15854TIP3   OH269052   4.590   0.121  15.984  0.2705  0.2174 -0.1996
15854TIP3    H169053   4.650   0.138  16.056 -0.2249  0.5159  0.1567
15854TIP3    H269054   4.635   0.153  15.906  0.9217 -0.3546 -0.0590
15855TIP3   OH269055   5.193   2.096   5.329 -0.3903  0.4705  0.0434
15855TIP3    H169056   5.211   2.133   5.242  1.0070 -0.3025 -0.0258
15855TIP3    H269057   5.167   2.172   5.382 -0.3884  1.0913 -0.8099
15856TIP3   OH269058   1.669   2.648   5.759  0.3269  0.4038  0.3564
15856TIP3    H169059   1.702   2.597   5.833  1.7682  1.9683  0.8718
15856TIP3    H269060   1.747   2.685   5.718 -0.4570 -0.2587 -1.8671
15857TIP3   OH269061   1.328   3.136   5.054 -0.3175 -0.0175 -0.3599
15857TIP3    H169062   1.418   3.137   5.087 -0.1366 -0.4439 -0.8366
15857TIP3    H269063   1.286   3.210   5.097  0.5638  0.8621 -0.9806
15858TIP3   OH269064   1.878   6.790  14.495  0.5997  0.7234  0.5075
15858TIP3    H169065   1.871   6.803  14.400  0.2033 -1.5680  0.1715
15858TIP3    H269066   1.919   6.870  14.527  0.4203  1.6993 -1.5490
15859TIP3   OH269067   4.178   4.860   6.629  0.7024  0.1464  0.1238
15859TIP3    H169068   4.121   4.894   6.560  0.2901 -1.2889 -0.2709
15859TIP3    H269069   4.254   4.919   6.629 -0.1851  1.3266 -0.1963
15860TIP3   OH269070   3.486   1.541   4.938  0.2452  0.2578  0.0498
15860TIP3    H169071   3.506   1.457   4.978 -2.1913 -1.6707 -2.3408
15860TIP3    H269072   3.553   1.552   4.870 -1.9272 -2.3363 -2.8228
15861TIP3   OH269073   0.105   1.856   0.502  0.4126  0.0546  0.1868
15861TIP3    H169074   0.065   1.940   0.525  0.3356  0.3804 -1.0525
15861TIP3    H269075   0.031   1.799   0.483  0.4957  0.3587 -1.1114
15862TIP3   OH269076   0.182   4.582  16.744  0.0790 -0.1097  0.3029
15862TIP3    H169077   0.172   4.603  16.837 -0.1885 -0.1119  0.2754
15862TIP3    H269078   0.251   4.515  16.742  0.4125  0.2273  0.4565
15863TIP3   OH269079   5.803   3.251   4.080  0.3425 -0.3730  0.4082
15863TIP3    H169080   5.793   3.316   4.150  1.5107 -0.3327  0.5640
15863TIP3    H269081   5.870   3.191   4.114 -1.7737 -2.5943  0.9394
15864TIP3   OH269082   3.767   6.454  16.938  0.0502  0.3482 -0.2996
15864TIP3    H169083   3.727   6.466  17.024 -1.6436  0.9478 -1.1034
15864TIP3    H269084   3.841   6.514  16.937  1.1706 -0.9118  1.3117
15865TIP3   OH269085   4.971   0.292  13.093 -0.0755 -0.4606  0.1518
15865TIP3    H169086   5.003   0.210  13.131  3.4389 -0.4032 -2.2036
15865TIP3    H269087   4.921   0.265  13.016 -0.5908 -0.3905  0.4547
15866TIP3   OH269088   0.027   4.730  14.294  0.2404  0.5634 -0.4040
15866TIP3    H169089   0.060   4.641  14.285  0.6877  0.4542  1.8803
15866TIP3    H269090   0.087   4.783  14.242  3.4533  0.2029  2.5791
15867TIP3   OH269091   5.464   1.385   0.800  0.0284 -0.3190 -0.7094
15867TIP3    H169092   5.550   1.348   0.778 -0.6044 -1.3280 -1.5804
15867TIP3    H269093   5.457   1.463   0.744 -0.2835 -1.1461 -1.8629
15868TIP3   OH269094   4.547   5.336  11.998  0.2742  0.2925  0.5775
15868TIP3    H169095   4.619   5.283  11.964  1.1605  1.9991 -0.3133
15868TIP3    H269096   4.586   5.392  12.064 -0.3447  0.8944  0.4444
15869TIP3   OH269097   4.906   0.134  15.092 -0.2900 -0.3647 -0.2696
15869TIP3    H169098   4.939   0.193  15.023  2.9023  2.1707  3.0271
15869TIP3    H269099   4.953   0.052  15.078  2.1281  0.8684  0.0693
15870TIP3   OH269100   2.171   0.679  12.837 -0.3777  0.4574 -0.6085
15870TIP3    H169101   2.225   0.658  12.914  1.3428  1.6508 -1.4190
15870TIP3    H269102   2.117   0.601  12.825  0.0904 -0.2049  1.1518
15871TIP3   OH269103   4.673   6.585  12.403  0.1820 -0.2645 -0.2503
15871TIP3    H169104   4.687   6.498  12.441  1.5271 -0.2839 -0.7344
15871TIP3    H269105   4.580   6.586  12.380  0.0535 -1.4263  0.1263
15872TIP3   OH269106   2.539   6.188   4.653 -0.3204  0.7933 -0.2528
15872TIP3    H169107   2.573   6.259   4.599 -0.0415  2.2025  1.6474
15872TIP3    H269108   2.508   6.232   4.733 -1.4249 -1.0870  0.4120
15873TIP3   OH269109   2.263   3.367   5.553 -0.1166 -1.0774  0.0667
15873TIP3    H169110   2.189   3.427   5.548  2.0602  1.7526 -1.0632
15873TIP3    H269111   2.301   3.383   5.640  0.2367 -1.0909 -0.0831
15874TIP3   OH269112   3.566   6.008   6.749  0.1018  0.0228  0.2591
15874TIP3    H169113   3.510   5.953   6.694 -0.2372  1.5955 -1.0412
15874TIP3    H269114   3.640   5.952   6.772 -0.0211 -0.8388 -1.3476
15875TIP3   OH269115   2.010   4.288  14.271 -0.2365 -0.4924 -0.9245
15875TIP3    H169116   1.951   4.299  14.196  0.2629  0.4250 -1.1985
15875TIP3    H269117   1.962   4.325  14.345 -0.3215 -0.4594 -0.9965
15876TIP3   OH269118   6.236   6.253  15.129  0.2744  0.1905 -0.0744
15876TIP3    H169119   6.242   6.264  15.223  0.8476  0.3833 -0.1311
15876TIP3    H269120   6.326   6.252  15.098  0.0937  2.4135 -0.8795
15877TIP3   OH269121   5.144   4.575  16.045 -0.0131 -0.5122 -0.0471
15877TIP3    H169122   5.100   4.492  16.063  0.4085 -0.7323 -0.0088
15877TIP3    H269123   5.233   4.562  16.077 -0.1999  0.2896  0.8320
15878TIP3   OH269124   4.809   3.135  15.205 -0.6002  0.8737  0.6612
15878TIP3    H169125   4.903   3.121  15.218 -0.2701  1.5681 -0.7209
15878TIP3    H269126   4.803   3.224  15.170 -1.6778  0.4878 -0.1820
15879TIP3   OH269127   6.185   6.020  16.930 -0.0038  0.7153  0.4203
15879TIP3    H169128   6.229   6.060  16.856 -0.6809 -0.7731 -0.8452
15879TIP3    H269129   6.106   5.981  16.893 -0.4785  0.1160  1.9672
15880TIP3   OH269130   0.364   6.571   1.085  0.2601  0.0536  0.8555
15880TIP3    H169131   0.336   6.608   1.001 -0.2807 -0.0130  0.9992
15880TIP3    H269132   0.450   6.609   1.101 -0.0131  0.7629  0.6957
15881TIP3   OH269133   4.524   3.778   5.407  0.5781 -0.2577  0.4099
15881TIP3    H169134   4.598   3.721   5.385 -0.1998 -0.8887 -0.6723
15881TIP3    H269135   4.513   3.768   5.501  1.4761 -0.6337  0.4838
15882TIP3   OH269136   1.266   1.088  12.447  0.2713  0.2989 -0.2071
15882TIP3    H169137   1.355   1.056  12.431  0.0643 -0.2299 -0.3130
15882TIP3    H269138   1.228   1.024  12.507 -0.6602 -0.5143 -1.6116
15883TIP3   OH269139   3.567   1.108   2.111 -0.4539  0.1504  0.4440
15883TIP3    H169140   3.595   1.166   2.040 -0.0261 -0.4924  0.0721
15883TIP3    H269141   3.472   1.115   2.111 -0.4759  0.0166 -0.3383
15884TIP3   OH269142   6.740   1.553   0.805 -1.0222  0.5938 -0.1645
15884TIP3    H169143   6.792   1.497   0.747 -0.9277  1.6011 -1.0763
15884TIP3    H269144   6.678   1.492   0.847 -0.5533 -0.2773 -0.7027
15885TIP3   OH269145   4.455   1.699  12.638  0.2416  0.3538 -0.0738
15885TIP3    H169146   4.484   1.789  12.624  0.2625  0.3633  0.0293
15885TIP3    H269147   4.532   1.655  12.676  0.0438  0.4390  0.4290
15886TIP3   OH269148   6.783   0.889  11.870  0.5313  0.3244  0.2924
15886TIP3    H169149   6.840   0.965  11.860  0.4985  0.1322 -1.6584
15886TIP3    H269150   6.780   0.874  11.965 -0.5487  3.5597  0.9181
15887TIP3   OH269151   5.069   1.459   0.538  0.2879  0.6662  0.1195
15887TIP3    H169152   5.098   1.548   0.562 -0.6206  0.7185  1.0812
15887TIP3    H269153   5.065   1.412   0.621 -1.9606  0.5479 -0.0115
15888TIP3   OH269154   4.982   1.137   0.484  0.4275  0.0220  0.1232
15888TIP3    H169155   4.976   1.219   0.434 -0.9508  0.3894  0.8404
15888TIP3    H269156   5.012   1.165   0.571 -0.5855 -0.1362  0.5390
15889TIP3   OH269157   5.239   0.521  13.230 -0.2112  0.3746 -0.0188
15889TIP3    H169158   5.272   0.473  13.154 -1.9077 -0.1901 -0.4594
15889TIP3    H269159   5.268   0.611  13.217 -0.3334  0.2500 -1.2598
15890TIP3   OH269160   0.764   5.769   3.790 -0.0750  0.2750 -0.1109
15890TIP3    H169161   0.798   5.789   3.703  1.5218  0.8018  0.5977
15890TIP3    H269162   0.823   5.815   3.850 -2.2074  1.4789  1.2033
15891TIP3   OH269163   6.375   5.666   3.155 -0.0174  0.0477 -0.5287
15891TIP3    H169164   6.450   5.697   3.206 -0.3208  0.0405 -0.0695
15891TIP3    H269165   6.313   5.739   3.157  0.4509  0.5063 -1.9082
15892TIP3   OH269166   5.675   0.310  11.663  0.3736  0.7536  0.6435
15892TIP3    H169167   5.734   0.318  11.738  1.0458 -0.2911  0.2478
15892TIP3    H269168   5.664   0.215  11.652  0.1185  0.9068 -0.4517
15893TIP3   OH269169   0.735   3.745  17.107 -0.3643 -0.1445 -0.1848
15893TIP3    H169170   0.721   3.805  17.180 -0.8258 -1.2156  0.6307
15893TIP3    H269171   0.659   3.757  17.050  0.2227  1.0276 -0.7446
15894TIP3   OH269172   0.203   2.843  14.636  0.2107  0.1632  0.3839
15894TIP3    H169173   0.229   2.756  14.667  0.7791  0.3994  0.5823
15894TIP3    H269174   0.109   2.836  14.623  0.0572 -0.1605  1.5040
15895TIP3   OH269175   4.498   4.031   2.810 -0.2365 -0.3719  0.2806
15895TIP3    H169176   4.555   3.954   2.815  0.8811  0.3193 -1.0925
15895TIP3    H269177   4.525   4.086   2.883 -0.2745 -0.7742  0.6010
15896TIP3   OH269178   2.554   3.943  11.459 -0.0783 -0.3484  0.6012
15896TIP3    H169179   2.636   3.893  11.464 -0.3733 -0.9792 -0.6238
15896TIP3    H269180   2.500   3.907  11.529 -0.1663 -1.5599 -0.0589
15897TIP3   OH269181   2.648   3.032  13.349  0.1237  0.0669 -0.0994
15897TIP3    H169182   2.694   3.115  13.363 -0.6915  0.7933 -1.4139
15897TIP3    H269183   2.663   2.982  13.429  2.1471  0.7416  0.0016
15898TIP3   OH269184   3.172   4.120  13.187  0.1804  0.1050 -0.2998
15898TIP3    H169185   3.172   4.053  13.256  0.0547  2.0591  1.7307
15898TIP3    H269186   3.163   4.071  13.106  0.4596 -2.3485  1.0467
15899TIP3   OH269187   3.751   3.634  11.653  0.0166  0.0873  0.0159
15899TIP3    H169188   3.695   3.635  11.731 -1.4368  0.5743 -1.0022
15899TIP3    H269189   3.839   3.618  11.688 -0.4157  1.3322  1.8579
15900TIP3   OH269190   1.592   6.162  16.986 -0.0960 -0.5250 -0.4179
15900TIP3    H169191   1.538   6.220  16.931 -0.1944  1.1676  1.3535
15900TIP3    H269192   1.536   6.142  17.061  0.3947 -1.9420 -0.4078
15901TIP3   OH269193   5.392   2.286   2.576  0.1063  0.9351 -0.0265
15901TIP3    H169194   5.428   2.263   2.661 -0.5079  3.3103  0.9716
15901TIP3    H269195   5.438   2.367   2.552 -0.5856  0.9514 -1.3754
15902TIP3   OH269196   6.556   0.726   4.745 -0.5734 -0.3008 -0.3035
15902TIP3    H169197   6.618   0.677   4.691  1.2046  2.5864 -1.0649
15902TIP3    H269198   6.584   0.708   4.835  1.0403  0.4541 -0.6185
15903TIP3   OH269199   5.278   0.446  10.718  0.1732 -0.4346  0.0814
15903TIP3    H169200   5.304   0.357  10.743  1.2470 -0.2501 -0.3466
15903TIP3    H269201   5.353   0.501  10.740 -0.0152  0.1855 -0.7639
15904TIP3   OH269202   5.826   3.930   1.103 -0.0149  0.6039 -0.7602
15904TIP3    H169203   5.876   3.980   1.038  0.3258  0.2033 -0.8150
15904TIP3    H269204   5.882   3.854   1.122  0.2318  1.0744  0.5347
15905TIP3   OH269205   4.710   0.370   0.073 -0.3895 -0.4661  0.6535
15905TIP3    H169206   4.620   0.371   0.106 -0.5396  0.0351  0.2417
15905TIP3    H269207   4.745   0.286   0.102 -0.3963  0.0829  2.3533
15906TIP3   OH269208   1.068   3.919  12.467  0.0249 -0.5905 -0.0981
15906TIP3    H169209   1.083   3.844  12.524 -0.8566 -1.7278 -1.2992
15906TIP3    H269210   0.994   3.965  12.507  0.2467 -0.6326  0.3710
15907TIP3   OH269211   6.631   6.375  13.947 -0.1973 -0.3972  0.0009
15907TIP3    H169212   6.561   6.440  13.943  0.3869  0.1892 -1.7927
15907TIP3    H269213   6.691   6.407  14.014 -0.3567  0.4685 -0.2642
15908TIP3   OH269214   4.476   2.893  10.457 -0.3074 -0.1142 -0.2207
15908TIP3    H169215   4.390   2.930  10.440  0.3237  1.7218  0.3732
15908TIP3    H269216   4.531   2.926  10.386  0.2678  0.0955  0.3101
15909TIP3   OH269217   0.119   0.968  11.045  0.0822  0.6530  0.2963
15909TIP3    H169218   0.178   0.951  11.119 -0.1106  1.0370  0.5438
15909TIP3    H269219   0.172   0.950  10.968 -0.2613 -1.5625  0.5236
15910TIP3   OH269220   1.851   2.113   5.782  0.0581 -0.3476  0.3935
15910TIP3    H169221   1.927   2.078   5.736 -1.1042 -1.7939 -0.5139
15910TIP3    H269222   1.878   2.118   5.873  1.5609  0.1244 -0.0452
15911TIP3   OH269223   3.990   5.947   5.602 -0.5693 -0.4606 -0.0817
15911TIP3    H169224   3.913   5.964   5.548  0.2024  0.7840 -0.8263
15911TIP3    H269225   3.961   5.878   5.662 -2.4593  0.3632  0.0518
15912TIP3   OH269226   2.327   2.053   3.820 -0.2656 -0.3509  0.0745
15912TIP3    H169227   2.277   2.122   3.776  1.0685  0.6752  0.0942
15912TIP3    H269228   2.388   2.021   3.754  1.9781  1.4274  1.1493
15913TIP3   OH269229   1.395   2.543   2.194 -0.1962  0.0033 -0.2045
15913TIP3    H169230   1.340   2.468   2.169  0.5918 -1.3597  1.9194
15913TIP3    H269231   1.334   2.615   2.205 -1.2241 -0.8058 -0.4609
15914TIP3   OH269232   0.997   0.861  16.990 -0.8009  0.0254 -0.6737
15914TIP3    H169233   0.924   0.906  17.032 -0.5011  0.1511 -0.2792
15914TIP3    H269234   1.032   0.803  17.057 -1.6829 -1.4142 -1.4272
15915TIP3   OH269235   4.325   0.513   4.471  0.2382 -0.2270  0.3645
15915TIP3    H169236   4.291   0.423   4.475 -0.7297 -0.1633 -3.1415
15915TIP3    H269237   4.419   0.502   4.453  0.6828 -0.4179  2.4587
15916TIP3   OH269238   4.397   2.031   2.022 -0.5592  0.4685  0.5836
15916TIP3    H169239   4.470   2.003   2.078 -0.2956  0.2998  0.1668
15916TIP3    H269240   4.323   1.976   2.049 -0.7860  1.2741  1.6299
15917TIP3   OH269241   6.811   1.433   5.527  0.1083 -0.3962 -0.6622
15917TIP3    H169242   6.837   1.352   5.483 -0.2221 -0.8002 -0.1219
15917TIP3    H269243   6.716   1.431   5.526  0.0939 -0.6132  0.4337
15918TIP3   OH269244   1.919   1.922  12.570  0.1952 -0.0365 -0.3262
15918TIP3    H169245   1.958   1.927  12.657 -0.4909 -0.8981  0.0414
15918TIP3    H269246   1.858   1.996  12.567  1.5355  1.1039 -0.7753
15919TIP3   OH269247   1.727   0.748   3.751  0.8369 -0.0790 -0.1938
15919TIP3    H169248   1.740   0.699   3.832  0.5153 -0.3284 -0.2959
15919TIP3    H269249   1.634   0.769   3.750  0.8004 -0.2566 -0.6031
15920TIP3   OH269250   1.380   1.719  14.233  0.4034  0.1088 -0.0810
15920TIP3    H169251   1.449   1.766  14.279 -0.6445  0.4195  1.2116
15920TIP3    H269252   1.322   1.688  14.302 -1.0824  0.3784 -1.1731
15921TIP3   OH269253   0.016   1.613   3.797  0.4845  0.2018 -0.4439
15921TIP3    H169254  -0.003   1.707   3.793 -1.4907 -0.1835 -1.3938
15921TIP3    H269255  -0.068   1.571   3.780  1.4803 -1.7444 -0.8092
15922TIP3   OH269256   6.090   3.711   0.653 -0.3679  0.0747  0.7583
15922TIP3    H169257   6.146   3.759   0.714 -0.3250  0.1567  0.6540
15922TIP3    H269258   6.008   3.699   0.700  0.3401 -1.6578  1.6349
15923TIP3   OH269259   0.977   5.862  14.587 -0.1070  0.1564  0.3406
15923TIP3    H169260   0.972   5.936  14.647  0.5928 -0.8881  1.7418
15923TIP3    H269261   0.942   5.788  14.636 -1.0066 -0.4239 -1.1075
15924TIP3   OH269262   6.132   3.938  12.905 -0.5638 -0.2556 -0.5894
15924TIP3    H169263   6.196   3.885  12.857 -0.2536 -0.0151 -0.4419
15924TIP3    H269264   6.069   3.966  12.838 -0.1262  0.0895 -0.8567
15925TIP3   OH269265   3.054   1.703  11.954  0.1187  0.1695 -0.3343
15925TIP3    H169266   3.099   1.673  12.033  1.4718  0.7978 -0.8431
15925TIP3    H269267   3.123   1.715  11.890 -0.8892  0.2923 -1.4355
15926TIP3   OH269268   3.323   3.185   5.075  0.4675  0.2950  0.2815
15926TIP3    H169269   3.273   3.264   5.056  1.2917  1.1529  1.5255
15926TIP3    H269270   3.397   3.215   5.127  1.7085 -1.0881 -0.5985
15927TIP3   OH269271   6.115   2.839   1.035  0.1828 -0.3643 -0.3325
15927TIP3    H169272   6.088   2.867   0.947 -2.0314 -1.7865 -0.1910
15927TIP3    H269273   6.088   2.910   1.092 -0.2081 -0.2950 -0.5974
15928TIP3   OH269274   3.061   5.878  16.555  0.2253 -0.4585  0.0156
15928TIP3    H169275   3.148   5.848  16.529  0.8276 -0.0390  1.4338
15928TIP3    H269276   3.009   5.874  16.475  1.0848 -2.3287 -0.4978
15929TIP3   OH269277   6.677   3.552   0.217 -0.4676 -0.4627 -0.2701
15929TIP3    H169278   6.733   3.474   0.215 -0.7318 -0.6749  0.4621
15929TIP3    H269279   6.708   3.602   0.293  0.9477  1.0952 -1.7796
15930TIP3   OH269280   3.660   1.705  14.960  0.0296  0.2984 -0.3149
15930TIP3    H169281   3.602   1.700  15.036 -1.3991  0.1809 -1.3468
15930TIP3    H269282   3.693   1.794  14.960  1.2204 -0.1110  1.2311
15931TIP3   OH269283   1.551   4.487   4.792 -0.2052 -0.0829 -0.3603
15931TIP3    H169284   1.495   4.410   4.796 -0.1717 -0.0888  0.0632
15931TIP3    H269285   1.504   4.553   4.843 -0.5055  0.3586 -1.1922
15932TIP3   OH269286   3.889   2.033  11.051 -0.3907 -0.0211 -0.0397
15932TIP3    H169287   3.802   2.067  11.073 -0.0092  0.2025  1.2245
15932TIP3    H269288   3.884   1.940  11.070 -0.8187 -0.3174 -1.5175
15933TIP3   OH269289   5.277   2.023  15.692 -0.1165  0.0885  0.0771
15933TIP3    H169290   5.350   2.084  15.700 -1.9301  2.5823 -0.7853
15933TIP3    H269291   5.257   2.022  15.598 -1.3596 -0.2778  0.3291
15934TIP3   OH269292   0.667   0.896  11.287 -0.1202  0.8095  0.2943
15934TIP3    H169293   0.700   0.981  11.316  0.3568  0.0680  2.0839
15934TIP3    H269294   0.637   0.854  11.368 -0.7590 -0.5376 -0.6223
15935TIP3   OH269295   2.589   0.821   5.825 -0.0056  0.4062  0.5776
15935TIP3    H169296   2.630   0.817   5.912 -0.8048 -2.4418  0.9455
15935TIP3    H269297   2.645   0.764   5.771 -0.9744  0.0292 -0.0485
15936TIP3   OH269298   0.541   4.357   5.979  0.6102 -0.4423  0.4278
15936TIP3    H169299   0.586   4.441   5.984  0.9539 -0.6142  0.1596
15936TIP3    H269300   0.546   4.322   6.068  3.1111 -1.5669 -0.0757
15937TIP3   OH269301   4.083   0.696  14.006  0.2604 -0.1401  0.3109
15937TIP3    H169302   4.119   0.700  14.095  0.0490  0.8031  0.3615
15937TIP3    H269303   4.130   0.763  13.957  1.3893 -1.5936 -0.7006
15938TIP3   OH269304   1.205   5.395   1.405  0.3754  0.0631  0.9563
15938TIP3    H169305   1.263   5.347   1.346 -2.1425 -1.7875 -0.1952
15938TIP3    H269306   1.171   5.467   1.352 -1.6421 -1.4168  0.0964
15939TIP3   OH269307   1.831   6.706  11.748 -0.0856 -0.4132  0.2945
15939TIP3    H169308   1.818   6.612  11.757  0.6239 -0.6930 -1.2567
15939TIP3    H269309   1.914   6.715  11.701  0.6077  1.0330  1.6701
15940TIP3   OH269310   3.988   0.595  15.522  0.0482  0.5932  0.0389
15940TIP3    H169311   3.972   0.638  15.438 -2.3366 -0.0614  0.0891
15940TIP3    H269312   3.995   0.502  15.500  0.0760  0.4867  0.4881
15941TIP3   OH269313   6.677   0.601   4.068 -0.0259  0.4515 -0.3425
15941TIP3    H169314   6.663   0.639   3.982  0.4397  0.0189 -0.6188
15941TIP3    H269315   6.732   0.665   4.114  0.7613  0.1370 -0.8078
15942TIP3   OH269316   5.343   6.143   4.168 -0.7087  0.2364  0.0355
15942TIP3    H169317   5.356   6.180   4.080 -2.0908 -1.0615 -0.7506
15942TIP3    H269318   5.250   6.153   4.184 -0.8118 -1.3512  0.5144
15943TIP3   OH269319   6.761   4.396   4.697  0.7447  0.3425 -0.0845
15943TIP3    H169320   6.816   4.436   4.630  0.8967  0.9676  0.3954
15943TIP3    H269321   6.699   4.342   4.649  1.0000  0.5995 -0.7079
15944TIP3   OH269322   4.732   4.377   2.889  0.3981  0.4017  0.0527
15944TIP3    H169323   4.765   4.451   2.939  0.6064  0.0427  0.4599
15944TIP3    H269324   4.680   4.327   2.953 -1.4701  1.2795 -0.7028
15945TIP3   OH269325   2.581   3.076  11.557  0.5153 -0.3759 -0.4944
15945TIP3    H169326   2.664   3.028  11.561  0.5140 -0.3066  0.5702
15945TIP3    H269327   2.603   3.165  11.583 -0.0699 -0.6175  0.9252
15946TIP3   OH269328   5.707   3.093  16.475 -0.3882 -0.1514 -0.0271
15946TIP3    H169329   5.758   3.042  16.412  0.9616  0.6703  0.3631
15946TIP3    H269330   5.626   3.115  16.428  1.1583  1.6257 -2.0111
15947TIP3   OH269331   6.303   3.937   5.028 -0.2891 -0.1022  0.4657
15947TIP3    H169332   6.239   3.875   4.993 -0.0004 -0.8347  1.1953
15947TIP3    H269333   6.356   3.885   5.089  1.1718  0.4219 -0.3052
15948TIP3   OH269334   6.364   3.161   6.161 -0.2098  0.1829  0.0987
15948TIP3    H169335   6.306   3.228   6.125 -1.0021 -0.2552  0.5419
15948TIP3    H269336   6.306   3.089   6.186  0.2849  0.4413  2.1824
15949TIP3   OH269337   6.119   0.334  13.758 -0.1983 -0.8048 -0.3436
15949TIP3    H169338   6.143   0.422  13.728 -1.6228 -0.6259 -1.0412
15949TIP3    H269339   6.111   0.282  13.678 -0.0323 -1.3924  0.0193
15950TIP3   OH269340   4.442   2.334  14.646  0.1955  0.3206 -0.4200
15950TIP3    H169341   4.404   2.247  14.657  0.1613  0.5576  1.7302
15950TIP3    H269342   4.376   2.394  14.681  0.2231  1.2534 -1.8607
15951TIP3   OH269343   3.267   4.216  12.591 -0.6132  0.2713  0.1388
15951TIP3    H169344   3.207   4.230  12.518 -0.9893 -1.7196  0.0100
15951TIP3    H269345   3.349   4.255  12.561 -0.0360 -2.5192 -2.4782
15952TIP3   OH269346   4.677   1.584   3.714 -0.2386 -0.3314 -0.2261
15952TIP3    H169347   4.637   1.595   3.628  0.3660  0.6579 -0.4015
15952TIP3    H269348   4.658   1.666   3.760  1.2688  0.0264 -0.2003
15953TIP3   OH269349   4.998   1.190   5.365  0.1231  0.0477 -0.2006
15953TIP3    H169350   4.972   1.227   5.450  1.7288  0.4464  0.1517
15953TIP3    H269351   5.086   1.224   5.350  0.0971 -0.5076 -1.7581
15954TIP3   OH269352   2.717   3.059   2.065 -0.7660  0.1363 -0.1891
15954TIP3    H169353   2.798   3.098   2.033 -0.9599  0.8142  0.1206
15954TIP3    H269354   2.743   2.975   2.102 -0.0508  0.7582  0.7590
15955TIP3   OH269355   3.789   4.196   5.986  0.3401  0.3174 -0.0263
15955TIP3    H169356   3.821   4.286   5.982 -0.8548  0.8093  0.8997
15955TIP3    H269357   3.846   4.147   5.926  1.3730  1.5676 -0.0992
15956TIP3   OH269358   2.050   2.360  11.877 -0.1288  0.1662 -0.4827
15956TIP3    H169359   2.026   2.408  11.798 -0.4523 -2.7367 -2.2878
15956TIP3    H269360   2.123   2.304  11.851 -0.5838 -1.2728  1.1064
15957TIP3   OH269361   3.220   2.202  16.859  0.5348  0.3621 -0.5163
15957TIP3    H169362   3.218   2.141  16.785  2.6842 -1.1404  0.5615
15957TIP3    H269363   3.313   2.217  16.876  0.2381 -0.9498  3.0836
15958TIP3   OH269364   6.658   1.334   3.107  0.0410  0.3728 -0.6026
15958TIP3    H169365   6.598   1.403   3.136 -0.1121 -0.2077  0.4965
15958TIP3    H269366   6.735   1.382   3.076  0.4713  1.0419  1.3509
15959TIP3   OH269367   6.720   3.688  16.348 -0.1282  0.0966  0.0337
15959TIP3    H169368   6.683   3.602  16.332 -0.7386  0.5145 -0.9128
15959TIP3    H269369   6.698   3.707  16.440  0.8943 -1.1457  0.5662
15960TIP3   OH269370   0.101   6.044   3.520  0.1434 -0.1082 -0.6901
15960TIP3    H169371   0.139   6.131   3.510  0.4149 -0.0803  0.4094
15960TIP3    H269372   0.007   6.059   3.525  0.2376  0.2397  0.4055
15961TIP3   OH269373   3.046   3.282   0.311  0.7660  0.2017  0.0416
15961TIP3    H169374   3.132   3.298   0.349  0.8894 -0.2845 -0.0200
15961TIP3    H269375   3.006   3.368   0.304  1.1276  0.3983  0.3573
15962TIP3   OH269376   2.164   5.070   3.348 -0.2926  0.3731 -0.8723
15962TIP3    H169377   2.255   5.048   3.369 -0.6474 -0.3170 -0.0050
15962TIP3    H269378   2.129   5.106   3.429 -0.5432  1.5281 -1.4721
15963TIP3   OH269379   1.405   1.066   4.613 -0.3808  0.0750 -0.3693
15963TIP3    H169380   1.436   1.023   4.533  0.2908 -0.6463  0.2655
15963TIP3    H269381   1.310   1.054   4.612 -0.3287 -0.2963 -0.8489
15964TIP3   OH269382   1.209   0.701  11.945 -0.0540 -1.1767 -0.7200
15964TIP3    H169383   1.226   0.696  12.039  1.6736 -0.8158 -0.9871
15964TIP3    H269384   1.114   0.695  11.938 -0.4660  1.4788  1.2224
15965TIP3   OH269385   4.392   2.663   2.513 -0.5250 -0.6498  0.0466
15965TIP3    H169386   4.395   2.717   2.592 -1.3264 -1.6449  0.7868
15965TIP3    H269387   4.401   2.573   2.545  1.4522 -0.9661 -1.2173
15966TIP3   OH269388   0.524   6.260   1.975 -0.2507 -0.3732 -0.1436
15966TIP3    H169389   0.538   6.336   2.031 -0.8122 -0.5691  0.2758
15966TIP3    H269390   0.442   6.222   2.007 -1.1553  0.1180 -1.7662
15967TIP3   OH269391   3.940   3.611   4.519 -0.3651 -0.1030 -0.3670
15967TIP3    H169392   3.991   3.686   4.549 -3.2994  2.3390 -0.9180
15967TIP3    H269393   3.937   3.552   4.594  2.9757 -0.3189 -0.2933
15968TIP3   OH269394   4.762   3.807   2.704  0.4282  0.9365  0.3002
15968TIP3    H169395   4.721   3.842   2.625 -0.4272  1.6308  1.0374
15968TIP3    H269396   4.699   3.743   2.738  0.0606  1.8050  1.2877
15969TIP3   OH269397   4.115   3.422   5.337 -0.5698  0.2086 -0.1480
15969TIP3    H169398   4.150   3.354   5.281  0.7625  1.7086 -1.2393
15969TIP3    H269399   4.020   3.408   5.337 -0.4110 -0.9402 -1.2616
15970TIP3   OH269400   6.060   4.894   6.066 -0.2966  0.2695  0.0518
15970TIP3    H169401   6.084   4.987   6.067 -0.8974  0.4322 -0.6020
15970TIP3    H269402   6.047   4.873   6.159 -1.9030  1.3011  0.1050
15971TIP3   OH269403   5.985   3.034  12.736  0.0123  0.6412  0.4528
15971TIP3    H169404   6.076   3.023  12.761 -0.3844 -0.5494  1.5178
15971TIP3    H269405   5.952   3.102  12.796 -0.0817  0.2226  0.8857
15972TIP3   OH269406   4.370   1.722  13.402 -0.1415  0.1237  0.4554
15972TIP3    H169407   4.328   1.803  13.428 -0.7779 -0.2994  0.7749
15972TIP3    H269408   4.363   1.720  13.306  1.4297  1.2667  0.2790
15973TIP3   OH269409   6.503   5.363  14.609 -0.6752  0.0017 -0.2569
15973TIP3    H169410   6.407   5.369  14.609 -0.6018  2.6940  0.6065
15973TIP3    H269411   6.530   5.419  14.537  0.2090  4.0115  2.8110
15974TIP3   OH269412   1.647   2.140   6.712 -0.2090  0.3959  0.1739
15974TIP3    H169413   1.607   2.223   6.686 -0.8651 -0.0617 -0.3021
15974TIP3    H269414   1.593   2.109   6.784 -0.7348 -0.2221 -0.4697
15975TIP3   OH269415   1.024   3.439  15.267 -0.0935 -0.0592 -0.0029
15975TIP3    H169416   0.971   3.422  15.345  0.1076 -0.7768 -0.0197
15975TIP3    H269417   0.983   3.515  15.227 -0.3410  0.1764  0.6775
15976TIP3   OH269418   4.826   4.722  11.308  0.1333  0.4698 -0.4209
15976TIP3    H169419   4.835   4.774  11.228  0.6667  1.2635  0.1352
15976TIP3    H269420   4.784   4.781  11.371 -0.3564 -0.1688 -0.1359
15977TIP3   OH269421   4.513   0.682  16.670 -0.0269  0.3556  0.0947
15977TIP3    H169422   4.595   0.719  16.702  0.3205 -0.7585  0.5371
15977TIP3    H269423   4.455   0.681  16.746  0.1540 -0.5015  0.2339
15978TIP3   OH269424   2.355   0.535   1.034 -0.6337  0.1921  0.0355
15978TIP3    H169425   2.391   0.476   0.969 -1.2297 -0.1158 -0.0200
15978TIP3    H269426   2.421   0.603   1.045 -0.2659 -0.0927 -0.4333
15979TIP3   OH269427   5.468   5.365  14.147 -0.1975  0.3706 -0.3818
15979TIP3    H169428   5.501   5.454  14.133 -0.5816  0.6547  0.4710
15979TIP3    H269429   5.478   5.349  14.241  0.2535 -0.6496 -0.5887
15980TIP3   OH269430   3.165   0.574   2.582 -0.2237 -0.4010 -0.1076
15980TIP3    H169431   3.174   0.664   2.551  0.9595 -0.0993  0.9969
15980TIP3    H269432   3.217   0.571   2.663 -0.1960 -2.0856 -0.1415
15981TIP3   OH269433   3.024   5.560   6.826  0.6213 -0.5434  0.1988
15981TIP3    H169434   3.083   5.601   6.888  0.9340  1.7741 -1.4993
15981TIP3    H269435   3.080   5.538   6.751 -0.7207  3.9230 -2.5205
15982TIP3   OH269436   5.612   3.176  12.655  0.9758  0.2930 -0.1140
15982TIP3    H169437   5.524   3.206  12.629  0.8044  0.3321  0.4830
15982TIP3    H269438   5.639   3.117  12.585  1.2534  1.6932 -1.2535
15983TIP3   OH269439   5.384   2.192   0.003 -0.1254  0.3891 -0.4929
15983TIP3    H169440   5.412   2.133  -0.067 -0.3820  1.2363 -1.3293
15983TIP3    H269441   5.460   2.246   0.021 -0.4337  1.0304 -1.0383
15984TIP3   OH269442   1.100   6.798  11.565 -0.5324  0.0832  0.0746
15984TIP3    H169443   1.084   6.711  11.604 -0.4526  0.0118 -0.0530
15984TIP3    H269444   1.088   6.785  11.471  0.9036 -0.1140 -0.0899
15985TIP3   OH269445   5.992   5.123   0.777 -0.4060 -0.0666 -0.2281
15985TIP3    H169446   6.034   5.157   0.698 -1.7749 -0.2396 -1.0507
15985TIP3    H269447   5.925   5.188   0.798 -1.9491 -1.3769 -0.8686
15986TIP3   OH269448   0.801   1.360  16.337 -0.1259 -0.5314  0.2564
15986TIP3    H169449   0.760   1.275  16.348 -0.7079 -0.4694 -1.1777
15986TIP3    H269450   0.735   1.423  16.364  0.1409 -0.5115  0.8784
15987TIP3   OH269451   4.780   3.014  13.011 -0.1575  0.1550 -0.0071
15987TIP3    H169452   4.796   3.018  13.105 -1.5410  2.5073  0.2017
15987TIP3    H269453   4.840   2.946  12.979  0.5219 -0.5157  2.5053
15988TIP3   OH269454   0.124   3.444  12.736 -0.2640 -0.4091 -0.1261
15988TIP3    H169455   0.071   3.411  12.663  0.9096 -0.1958 -1.1150
15988TIP3    H269456   0.164   3.365  12.773  0.6716 -0.3560 -0.9795
15989TIP3   OH269457   2.579   5.308  13.633 -0.2763  0.1528 -0.2975
15989TIP3    H169458   2.546   5.303  13.543  0.7998  3.2410 -0.9891
15989TIP3    H269459   2.529   5.380  13.672 -0.3125 -0.7666  1.4342
15990TIP3   OH269460   5.166   5.296   0.751 -0.4960 -0.3962  0.2072
15990TIP3    H169461   5.201   5.344   0.826  0.8579 -0.5034 -0.3255
15990TIP3    H269462   5.124   5.219   0.790  1.6839 -1.3657  0.8045
15991TIP3   OH269463   5.010   2.478  10.853  0.0927 -0.2226  0.5183
15991TIP3    H169464   4.916   2.489  10.869 -0.0771 -1.1463  0.2651
15991TIP3    H269465   5.030   2.536  10.780 -0.2209  0.1943  0.7645
15992TIP3   OH269466   0.596   6.705   1.094  0.1371 -0.2739  0.3474
15992TIP3    H169467   0.660   6.746   1.151  1.1435  0.8441 -1.4809
15992TIP3    H269468   0.643   6.632   1.054  0.4711  0.7849 -1.2973
15993TIP3   OH269469   3.752   1.195   1.622 -0.3396  0.3790 -0.0110
15993TIP3    H169470   3.690   1.259   1.585  0.7678  1.2767 -0.3841
15993TIP3    H269471   3.834   1.244   1.630  0.2861 -0.7468  0.6058
15994TIP3   OH269472   4.260   5.133   0.559 -0.2683  0.7526 -0.4561
15994TIP3    H169473   4.249   5.046   0.521  0.6645 -0.2342  1.3837
15994TIP3    H269474   4.283   5.189   0.485  1.5388 -1.0610 -1.3524
15995TIP3   OH269475   0.304   4.418  15.782  0.1489 -0.8600  0.5183
15995TIP3    H169476   0.250   4.377  15.849  0.7925 -0.2446  1.4523
15995TIP3    H269477   0.288   4.512  15.792 -0.6611 -0.8037 -1.0161
15996TIP3   OH269478   5.396   6.067   5.315  0.5153 -0.4868 -0.8419
15996TIP3    H169479   5.315   6.076   5.264  0.2380 -1.2730 -0.5576
15996TIP3    H269480   5.376   6.110   5.398  1.1136  1.1834 -1.5152
15997TIP3   OH269481   0.572   0.109  16.883  0.9639 -0.2806 -0.6914
15997TIP3    H169482   0.574   0.014  16.885 -1.0298 -0.3517  1.0946
15997TIP3    H269483   0.493   0.133  16.932  2.2841  2.3395  0.3579
15998TIP3   OH269484   3.422   6.228  11.658 -0.4977 -0.7122 -0.1320
15998TIP3    H169485   3.456   6.146  11.693  2.3518 -0.6029 -2.2375
15998TIP3    H269486   3.492   6.292  11.675 -1.9068  0.8883 -0.0748
15999TIP3   OH269487   3.135   2.369  15.972 -0.5337  0.3140  0.0591
15999TIP3    H169488   3.058   2.345  16.024 -0.2524  1.7470  1.2325
15999TIP3    H269489   3.140   2.465  15.980  1.0523  0.3034 -0.4163
16000TIP3   OH269490   6.059   5.366  17.071 -0.3227  0.0724 -0.5863
16000TIP3    H169491   6.136   5.422  17.083  0.4361 -1.3147  1.5089
16000TIP3    H269492   6.024   5.354  17.159 -1.8537 -0.8451 -1.2854
16001TIP3   OH269493   5.988   4.735   4.883 -0.3405 -0.3243  0.2603
16001TIP3    H169494   5.971   4.690   4.966  0.9806 -0.2767  0.5771
16001TIP3    H269495   6.003   4.665   4.820  2.0770 -0.3955  0.8310
16002TIP3   OH269496   2.823   3.112   2.828  0.6943  0.1987  0.6412
16002TIP3    H169497   2.744   3.067   2.860  1.6055 -0.8210  1.5071
16002TIP3    H269498   2.876   3.126   2.906  2.0048 -0.4219 -0.1095
16003TIP3   OH269499   6.601   0.870   0.940  0.1445 -0.2440  0.7533
16003TIP3    H169500   6.562   0.894   1.024 -0.8572 -2.1052  0.8769
16003TIP3    H269501   6.602   0.774   0.941  2.3976 -0.2939 -0.3487
16004TIP3   OH269502   2.416   1.743   3.265  0.5181 -0.2512 -0.3268
16004TIP3    H169503   2.494   1.779   3.306 -0.9297  1.9365  0.6877
16004TIP3    H269504   2.361   1.819   3.246 -1.3432 -1.6902 -1.0994
16005TIP3   OH269505   2.208   5.882   0.111 -0.4270 -0.3193 -0.0493
16005TIP3    H169506   2.200   5.902   0.204 -0.8393 -1.0378  0.0755
16005TIP3    H269507   2.134   5.926   0.071 -0.4488 -0.3008  0.0102
16006TIP3   OH269508   3.992   0.098  11.899 -0.0358 -0.3061  0.1770
16006TIP3    H169509   4.052   0.170  11.876 -0.8059  0.1397 -0.4751
16006TIP3    H269510   4.032   0.020  11.860  0.5038 -0.1458  0.3932
16007TIP3   OH269511   3.623   6.274  16.400 -0.0041 -0.2372  0.4808
16007TIP3    H169512   3.616   6.241  16.310  0.8559 -0.4686  0.4890
16007TIP3    H269513   3.565   6.350  16.403 -2.1856 -1.7989  0.4933
16008TIP3   OH269514   4.400   5.896  14.864  0.4483 -0.3070  0.6076
16008TIP3    H169515   4.456   5.894  14.786  0.3132 -2.5773  0.5167
16008TIP3    H269516   4.318   5.934  14.833  0.7776 -0.1155 -0.0552
16009TIP3   OH269517   1.455   1.833   2.969  0.1342 -0.7253  0.2154
16009TIP3    H169518   1.395   1.860   2.900  0.2086 -2.0658 -0.3936
16009TIP3    H269519   1.412   1.860   3.050  0.4612  1.6897 -0.3417
16010TIP3   OH269520   5.720   2.345  16.399  0.9124 -0.2466 -0.1134
16010TIP3    H169521   5.678   2.259  16.399  1.3895 -0.4894  0.7278
16010TIP3    H269522   5.690   2.386  16.318 -0.9198 -0.4174  0.4333
16011TIP3   OH269523   2.917   1.148  15.547  0.0043  0.6578  0.0963
16011TIP3    H169524   2.843   1.174  15.602  0.2184 -0.6683  1.0659
16011TIP3    H269525   2.975   1.100  15.606  1.4894  1.3827 -0.7246
16012TIP3   OH269526   4.410   3.640  16.414  0.2796 -0.0473  0.2612
16012TIP3    H169527   4.432   3.656  16.505 -0.1249 -0.3337  0.4096
16012TIP3    H269528   4.467   3.567  16.388 -0.9595 -1.2697  0.8572
16013TIP3   OH269529   6.729   1.110   0.896 -0.5445 -0.0346  0.7596
16013TIP3    H169530   6.689   1.023   0.896  0.1352 -0.4640  4.0631
16013TIP3    H269531   6.819   1.094   0.867 -0.4516 -0.4344  1.2509
16014TIP3   OH269532   6.329   3.503   1.408 -0.5315 -0.3581  0.1809
16014TIP3    H169533   6.418   3.485   1.378  0.0254  2.0229  0.1528
16014TIP3    H269534   6.279   3.426   1.383  1.4790 -1.7102  0.0797
16015TIP3   OH269535   1.261   2.590  15.057 -0.0367 -0.4499  0.0290
16015TIP3    H169536   1.187   2.549  15.102  0.5588 -1.2993  0.2746
16015TIP3    H269537   1.234   2.680  15.043 -1.9218 -1.1718 -1.6004
16016TIP3   OH269538   3.201   4.670   2.229 -0.3710 -0.4827 -0.0209
16016TIP3    H169539   3.180   4.687   2.321 -0.4836  0.2639 -0.1862
16016TIP3    H269540   3.189   4.575   2.220 -0.7336 -0.5064  0.6355
16017TIP3   OH269541   2.643   5.870  12.049  0.1614 -0.3339  0.0610
16017TIP3    H169542   2.696   5.929  11.995  0.2531  0.8845  1.4331
16017TIP3    H269543   2.703   5.798  12.069 -0.0452 -1.1124 -1.8800
16018TIP3   OH269544   5.091   4.900   3.850 -0.0218  0.7866 -0.8005
16018TIP3    H169545   5.184   4.912   3.865  0.0031 -0.2741 -0.0172
16018TIP3    H269546   5.086   4.853   3.767  0.2781 -1.0446  0.1594
16019TIP3   OH269547   2.250   5.273  11.347 -0.6260  0.9619  0.1026
16019TIP3    H169548   2.207   5.188  11.361 -0.4271  1.0110  1.1130
16019TIP3    H269549   2.185   5.325  11.300 -0.7583  0.2606 -0.5082
16020TIP3   OH269550   2.559   6.764  15.956 -0.0581 -0.0585  0.0563
16020TIP3    H169551   2.558   6.844  15.904 -0.3811  0.0724  0.2609
16020TIP3    H269552   2.523   6.790  16.041 -2.3075 -0.8860 -0.5732
16021TIP3   OH269553   3.430   5.306  11.668 -0.1932 -0.0317 -0.0315
16021TIP3    H169554   3.491   5.341  11.732 -0.7916  0.6967  0.1530
16021TIP3    H269555   3.445   5.359  11.589 -1.3111  0.8726  0.3417
16022TIP3   OH269556   1.911   2.127   2.481  0.0498  0.0350 -0.5119
16022TIP3    H169557   1.856   2.102   2.406  0.4819  1.7840 -1.4498
16022TIP3    H269558   2.000   2.125   2.447  0.3005  0.3110  0.1198
16023TIP3   OH269559   0.411   5.826   2.615  0.3172  0.5139  0.7087
16023TIP3    H169560   0.404   5.777   2.534  1.3204  1.8148 -0.2090
16023TIP3    H269561   0.382   5.765   2.683 -1.2391 -0.3594 -0.6760
16024TIP3   OH269562   3.017   2.621   0.178 -0.6625 -0.3080  0.1534
16024TIP3    H169563   3.110   2.637   0.166 -0.8553 -0.3622 -1.6637
16024TIP3    H269564   3.000   2.538   0.134 -1.7632  0.2619 -0.5602
16025TIP3   OH269565   4.249   3.347   3.566  0.2150  0.3536  0.6379
16025TIP3    H169566   4.156   3.326   3.573 -0.3793  1.8748 -1.6770
16025TIP3    H269567   4.254   3.440   3.590  1.1350  0.3166  0.6124
16026TIP3   OH269568   4.304   2.015   5.409  0.2684 -0.2272  0.6016
16026TIP3    H169569   4.358   2.093   5.400  1.1574 -0.9045 -0.0922
16026TIP3    H269570   4.217   2.049   5.432 -0.2429  1.2185 -2.9011
16027TIP3   OH269571   3.809   4.098  13.309 -0.0026  0.4174 -0.3685
16027TIP3    H169572   3.883   4.082  13.368  0.8438 -1.8851 -1.9041
16027TIP3    H269573   3.771   4.012  13.293 -1.3426  1.1946 -1.7494
16028TIP3   OH269574   6.185   0.723   0.782 -0.4175  0.2288  0.4866
16028TIP3    H169575   6.139   0.802   0.810  0.1919  0.2716  1.3897
16028TIP3    H269576   6.136   0.693   0.705 -1.2733  0.8953  0.7583
16029TIP3   OH269577   2.757   5.123   2.172  0.1917 -0.6244  0.6114
16029TIP3    H169578   2.787   5.039   2.137 -1.7599 -1.2278  0.3216
16029TIP3    H269579   2.663   5.114   2.181  0.1744  0.8251  2.5615
16030TIP3   OH269580   2.310   0.012   5.313  0.1175 -0.5724 -0.5225
16030TIP3    H169581   2.364   0.046   5.243  0.3533 -2.9194 -1.5749
16030TIP3    H269582   2.223   0.050   5.298  0.7819  1.0271 -0.4559
16031TIP3   OH269583   1.317   5.873   0.646  0.0138  0.0508 -0.2169
16031TIP3    H169584   1.225   5.855   0.668 -0.0112 -0.6605 -0.8771
16031TIP3    H269585   1.314   5.953   0.595 -0.4145 -0.7737 -1.5278
16032TIP3   OH269586   0.482   6.169  16.275 -0.3100  0.1551  0.1835
16032TIP3    H169587   0.521   6.139  16.356  0.4458  1.3259  0.2804
16032TIP3    H269588   0.447   6.090  16.234  1.7880 -0.8911  0.2966
16033TIP3   OH269589   3.428   6.074   2.918 -0.3553 -0.3148 -0.9199
16033TIP3    H169590   3.510   6.037   2.885  0.6318  1.4811 -0.6553
16033TIP3    H269591   3.385   6.002   2.964  1.4285 -1.1272 -0.4517
16034TIP3   OH269592   2.194   0.548  13.874  0.1877 -0.5518 -0.4202
16034TIP3    H169593   2.195   0.513  13.963  1.0004 -0.0909 -0.2410
16034TIP3    H269594   2.185   0.472  13.818  3.5010 -1.3097 -0.1289
16035TIP3   OH269595   0.528   5.609   4.843  0.1206 -0.1170  0.1839
16035TIP3    H169596   0.454   5.639   4.895 -1.3598 -2.8137 -0.1824
16035TIP3    H269597   0.531   5.669   4.768 -0.1957  1.4105  1.3522
16036TIP3   OH269598   2.054   3.112   5.425  0.3382 -0.2341  0.2739
16036TIP3    H169599   2.046   3.199   5.385  1.7280  0.4610  1.4292
16036TIP3    H269600   2.060   3.052   5.351  1.5288  0.8797 -0.5669
16037TIP3   OH269601   0.991   3.045  16.121 -0.1198  0.0291  1.0936
16037TIP3    H169602   0.909   3.020  16.163 -1.0262  0.9347 -0.0523
16037TIP3    H269603   1.043   2.964  16.119 -1.7879 -1.0862  0.0522
16038TIP3   OH269604   3.294   1.414  11.011 -0.3503 -0.1869 -0.1699
16038TIP3    H169605   3.356   1.453  10.950 -0.7382  1.5301  0.4759
16038TIP3    H269606   3.214   1.466  11.001 -0.6701 -0.3661  1.2147
16039TIP3   OH269607   0.047   6.048   2.200  0.0039  0.4970 -0.6239
16039TIP3    H169608  -0.020   6.005   2.254 -2.1172 -0.3200 -3.6207
16039TIP3    H269609   0.125   5.995   2.212 -0.7256 -0.3634  0.6289
16040TIP3   OH269610   0.837   2.582  12.179  0.1788 -0.1095 -0.5229
16040TIP3    H169611   0.751   2.550  12.207  1.0658 -2.3959 -0.1890
16040TIP3    H269612   0.849   2.544  12.092  1.0593 -0.2835 -0.3353
16041TIP3   OH269613   3.754   2.104  13.470  0.0025  0.2407 -0.6521
16041TIP3    H169614   3.826   2.042  13.460 -0.1704 -0.2140  0.6931
16041TIP3    H269615   3.774   2.175  13.409  1.2869 -0.1542 -0.7041
16042TIP3   OH269616   0.367   6.667   5.433  0.0220  0.5470 -0.9550
16042TIP3    H169617   0.361   6.668   5.337 -0.3006  1.5491 -0.9292
16042TIP3    H269618   0.461   6.657   5.451  0.0477  0.0025 -1.3706
16043TIP3   OH269619   5.159   5.490  11.243 -0.1993 -0.0158 -0.1710
16043TIP3    H169620   5.122   5.414  11.199  1.0840  0.6137 -2.4847
16043TIP3    H269621   5.106   5.564  11.215 -1.2681  0.0634  1.8490
16044TIP3   OH269622   3.619   6.063   0.738 -0.6278 -0.3385  0.2878
16044TIP3    H169623   3.691   6.005   0.712 -0.3964  0.0222  0.1128
16044TIP3    H269624   3.624   6.136   0.676  0.1920  0.7458  1.5700
16045TIP3   OH269625   4.177   0.921   3.602  0.5351  0.7371  0.8367
16045TIP3    H169626   4.151   0.894   3.514  1.8840 -0.7644  0.8555
16045TIP3    H269627   4.182   0.839   3.652 -0.5590  1.5845  2.4299
16046TIP3   OH269628   3.505   0.435   1.850 -0.3680 -0.6157 -0.3511
16046TIP3    H169629   3.570   0.439   1.780 -1.0686 -1.2655 -1.0610
16046TIP3    H269630   3.446   0.364   1.824 -1.5796  0.1994  0.0669
16047TIP3   OH269631   3.644   0.155  12.767  0.3110 -0.4747  0.0743
16047TIP3    H169632   3.625   0.151  12.861  0.7061 -0.2734  0.1637
16047TIP3    H269633   3.565   0.194  12.729  0.8570  1.1764  0.5498
16048TIP3   OH269634   3.269   3.813   6.333  0.2197  0.5982 -0.1658
16048TIP3    H169635   3.236   3.886   6.280  0.6677  1.8708  1.2507
16048TIP3    H269636   3.360   3.802   6.304  0.4276  1.2096  0.2536
16049TIP3   OH269637   5.464   2.091   4.605  0.2359  0.0697  0.0476
16049TIP3    H169638   5.475   2.166   4.663 -0.3601  0.8922 -0.8535
16049TIP3    H269639   5.415   2.126   4.530 -1.9589 -1.6744  0.5342
16050TIP3   OH269640   0.200   6.095  16.614  0.4388  0.6696  0.2395
16050TIP3    H169641   0.119   6.113  16.565  1.4679  1.6514 -1.1863
16050TIP3    H269642   0.233   6.013  16.577  0.0871  0.2326  0.8689
16051TIP3   OH269643   0.966   2.357  15.564  0.1464 -0.1172  0.4980
16051TIP3    H169644   0.916   2.310  15.631 -0.2388  2.1465  1.9232
16051TIP3    H269645   0.920   2.338  15.482 -1.7880  0.1725  1.4504
16052TIP3   OH269646   4.297   1.454  13.461  0.1544  0.2400  0.1059
16052TIP3    H169647   4.376   1.400  13.471  1.0028  1.1921 -1.0294
16052TIP3    H269648   4.330   1.537  13.426 -1.5361 -0.0317 -2.4062
16053TIP3   OH269649   0.445   6.372   3.667 -0.3970 -0.0932 -0.9988
16053TIP3    H169650   0.512   6.414   3.612  0.3167 -1.4558 -1.2296
16053TIP3    H269651   0.494   6.338   3.742 -0.9197 -0.6038 -0.8847
16054TIP3   OH269652   3.613   3.619  10.605 -0.8924  0.3989  0.1664
16054TIP3    H169653   3.626   3.526  10.622 -0.0183  0.3973 -0.4294
16054TIP3    H269654   3.524   3.626  10.572 -1.7316  0.0672  2.2329
16055TIP3   OH269655   1.788   4.290  16.513 -0.1545 -0.0155  0.0898
16055TIP3    H169656   1.872   4.305  16.556 -0.1126 -0.8472  0.3165
16055TIP3    H269657   1.723   4.316  16.578 -0.0853 -0.9098  0.5404
16056TIP3   OH269658   6.379   2.183  12.812  0.7262 -0.5971 -0.6794
16056TIP3    H169659   6.404   2.274  12.798  0.6991 -0.7136 -1.4814
16056TIP3    H269660   6.289   2.188  12.845  0.9560 -0.3103 -0.0643
16057TIP3   OH269661   4.466   3.966   0.456 -0.7325 -0.0774  0.5872
16057TIP3    H169662   4.387   4.017   0.476 -0.1085  1.4231 -0.5240
16057TIP3    H269663   4.530   4.032   0.428  0.3861 -1.4192 -0.1328
16058TIP3   OH269664   2.574   0.784   2.294  0.4004  0.1632  0.5197
16058TIP3    H169665   2.565   0.853   2.360  1.4963 -0.3410  1.2290
16058TIP3    H269666   2.668   0.765   2.292  0.4006  0.1840 -1.2240
16059TIP3   OH269667   6.401   2.314  14.145  0.2188 -0.5868 -0.1121
16059TIP3    H169668   6.332   2.320  14.210  0.8251 -0.7927  0.5552
16059TIP3    H269669   6.482   2.328  14.194  0.7332 -1.4475 -0.6988
16060TIP3   OH269670   4.216   1.183   3.663  0.0157 -0.0286 -0.0536
16060TIP3    H169671   4.268   1.175   3.743  1.7362 -0.5385 -1.1879
16060TIP3    H269672   4.200   1.093   3.635 -0.2956  0.1523 -0.4718
16061TIP3   OH269673   1.261   1.134  13.102  1.1977 -0.2568 -0.2275
16061TIP3    H169674   1.202   1.066  13.069 -0.1551  0.8412 -0.1591
16061TIP3    H269675   1.296   1.097  13.184 -0.0927 -0.5958  0.1975
16062TIP3   OH269676   3.029   0.423  15.447 -0.3850 -0.5289 -0.3368
16062TIP3    H169677   3.009   0.367  15.371  0.3828 -0.5183 -0.5547
16062TIP3    H269678   3.063   0.362  15.513  2.0035 -0.1397 -1.1476
16063TIP3   OH269679   6.671   3.810   6.270 -0.1628  0.3376  0.1619
16063TIP3    H169680   6.665   3.728   6.220  1.5641 -0.8422  1.7445
16063TIP3    H269681   6.756   3.847   6.246 -1.1215  1.9848 -0.8949
16064TIP3   OH269682   1.147   5.191  12.793 -0.1440  0.2120 -0.1022
16064TIP3    H169683   1.221   5.246  12.767  1.2560 -1.1550  0.8317
16064TIP3    H269684   1.105   5.167  12.710 -1.1783  3.0774 -0.5242
16065TIP3   OH269685   5.723   1.451  11.605  0.2519  0.3611  0.2802
16065TIP3    H169686   5.689   1.443  11.516 -0.1888  0.1428  0.4668
16065TIP3    H269687   5.724   1.362  11.639 -1.0641  0.6122  1.0319
16066TIP3   OH269688   3.171   2.161   2.454  0.3069 -0.4357 -0.2953
16066TIP3    H169689   3.194   2.154   2.547 -0.2380  0.1079 -0.1094
16066TIP3    H269690   3.101   2.227   2.452  0.4287 -0.3215 -1.1106
16067TIP3   OH269691   3.860   6.570  14.487  0.5274  0.0677  0.1158
16067TIP3    H169692   3.889   6.653  14.448 -0.6508  0.9753  1.0832
16067TIP3    H269693   3.805   6.596  14.561 -0.6554 -1.5772 -0.1291
16068TIP3   OH269694   4.637   3.295   5.410 -0.6738  1.0099 -0.3399
16068TIP3    H169695   4.544   3.317   5.418 -0.6233  1.7325 -1.5379
16068TIP3    H269696   4.681   3.356   5.470 -0.9255  1.0954 -0.2423
16069TIP3   OH269697   5.832   4.626  10.780  0.2977  0.5371  0.1399
16069TIP3    H169698   5.742   4.594  10.788  0.0268  1.3894  0.6298
16069TIP3    H269699   5.822   4.721  10.773  0.9584  0.4727 -2.9683
16070TIP3   OH269700   2.358   2.920  11.536 -0.5215  0.4993  0.2040
16070TIP3    H169701   2.427   2.983  11.553 -0.1484  0.9050 -2.3795
16070TIP3    H269702   2.403   2.842  11.503 -1.1942  0.3996 -0.5291
16071TIP3   OH269703   0.330   2.374   3.363  0.1465  0.0784 -0.1853
16071TIP3    H169704   0.354   2.282   3.376 -2.4889 -0.9716 -1.7179
16071TIP3    H269705   0.238   2.378   3.389  0.7133  2.8649  1.8589
16072TIP3   OH269706   4.927   6.737   0.203  0.2142  0.1365 -0.5438
16072TIP3    H169707   4.891   6.741   0.291  0.1902  0.8671 -0.5773
16072TIP3    H269708   4.977   6.655   0.201 -1.1227 -0.7158 -0.3911
16073TIP3   OH269709   5.799   3.634   1.277  0.6676 -0.0185  0.1127
16073TIP3    H169710   5.762   3.572   1.214  1.4345 -0.8830  0.4779
16073TIP3    H269711   5.874   3.588   1.314  1.0993  1.0380  0.6012
16074TIP3   OH269712   4.265   3.740  14.391  0.1993  0.0453  0.1216
16074TIP3    H169713   4.314   3.820  14.370 -1.0804  1.2589  1.4911
16074TIP3    H269714   4.314   3.670  14.349  0.6284  1.6874 -2.3248
16075TIP3   OH269715   4.755   2.828  16.409  0.2818 -0.1718 -0.1290
16075TIP3    H169716   4.772   2.909  16.457 -1.3080  1.8964 -2.7697
16075TIP3    H269717   4.835   2.812  16.359  0.2629  0.3699 -0.3394
16076TIP3   OH269718   0.886   2.086   2.757  0.4847 -0.8529  0.5388
16076TIP3    H169719   0.804   2.106   2.800  0.9295  1.4361  0.4427
16076TIP3    H269720   0.863   2.072   2.665  0.1469 -0.7119  0.6026
16077TIP3   OH269721   2.334   3.697   1.032 -0.0990  0.1996  0.1574
16077TIP3    H169722   2.374   3.711   1.118 -0.1696  0.4523  0.1503
16077TIP3    H269723   2.343   3.781   0.988 -1.3475  0.5079  0.4571
16078TIP3   OH269724   4.484   3.850   4.532  0.7572 -0.1725  0.3327
16078TIP3    H169725   4.481   3.852   4.437  0.4103 -1.7450  0.2776
16078TIP3    H269726   4.394   3.868   4.559  1.2181  2.2788  0.4799
16079TIP3   OH269727   1.841   1.545  14.589  0.4224 -0.3560  0.4372
16079TIP3    H169728   1.935   1.555  14.601  0.5991 -0.0310 -0.9523
16079TIP3    H269729   1.802   1.580  14.669  1.4453  0.7376  0.4831
16080TIP3   OH269730   6.497   3.137   1.617  0.4133 -0.0883  0.3583
16080TIP3    H169731   6.534   3.048   1.617  1.7500  0.4300 -0.4259
16080TIP3    H269732   6.522   3.173   1.531 -1.4555  0.5191  0.0248
16081TIP3   OH269733   0.537   2.087  12.431  0.0034  0.0124 -0.2919
16081TIP3    H169734   0.579   2.007  12.398  1.0712  0.4423 -0.0175
16081TIP3    H269735   0.444   2.066  12.432  0.3303 -1.6689  0.8817
16082TIP3   OH269736   5.140   1.661  14.400 -0.0351 -0.9384 -0.5338
16082TIP3    H169737   5.107   1.595  14.461 -0.5869  0.4502  0.7332
16082TIP3    H269738   5.138   1.743  14.450  0.6604  0.0401 -2.0411
16083TIP3   OH269739   1.038   2.677  10.789  0.3909  0.8770  0.1508
16083TIP3    H169740   0.969   2.690  10.724  0.1032 -0.9426  0.0399
16083TIP3    H269741   0.993   2.643  10.866  1.0948  0.0740  0.2245
16084TIP3   OH269742   0.204   1.546   4.955  0.1964 -0.3521  0.4064
16084TIP3    H169743   0.280   1.510   5.000  0.2429 -2.3128 -1.1062
16084TIP3    H269744   0.206   1.639   4.975  3.5607 -0.1456 -0.3365
16085TIP3   OH269745   6.712   1.921  12.507  0.4078  0.6724 -0.3227
16085TIP3    H169746   6.672   1.835  12.489  1.5978  0.1732 -0.6496
16085TIP3    H269747   6.654   1.961  12.571 -1.4956  0.6243 -1.9093
16086TIP3   OH269748   5.978   1.802  16.531 -0.5407  0.3584 -0.0788
16086TIP3    H169749   5.912   1.736  16.553  0.3435  0.1743  2.1918
16086TIP3    H269750   5.965   1.871  16.596  3.1991 -0.9094  2.2937
16087TIP3   OH269751   0.308   1.340  15.273 -0.0949 -0.7664 -0.1040
16087TIP3    H169752   0.371   1.393  15.321 -2.1931  1.9960 -0.1262
16087TIP3    H269753   0.240   1.319  15.337 -1.0719 -0.2792 -0.9522
16088TIP3   OH269754   0.016   0.488   0.540 -0.3863  0.6189 -0.1937
16088TIP3    H169755   0.004   0.397   0.516  0.8422  0.5573 -0.6446
16088TIP3    H269756  -0.064   0.512   0.587 -0.9670 -0.5084 -0.5962
16089TIP3   OH269757   3.748   3.505  16.598 -0.3367  0.1351  0.4153
16089TIP3    H169758   3.802   3.583  16.585 -1.1768  0.7062  0.2738
16089TIP3    H269759   3.701   3.521  16.680 -0.0553 -0.5019  0.7083
16090TIP3   OH269760   6.299   4.200   4.164  0.1329 -0.1406  0.1177
16090TIP3    H169761   6.244   4.224   4.239 -2.6909 -1.4288 -1.3811
16090TIP3    H269762   6.298   4.278   4.108  0.0096 -0.0766  0.2088
16091TIP3   OH269763   4.424   2.141   5.081  0.3429 -0.3026  0.7385
16091TIP3    H169764   4.408   2.072   5.017  1.5458  0.6423 -0.6560
16091TIP3    H269765   4.370   2.214   5.051  0.1598 -0.1719  1.3812
16092TIP3   OH269766   3.930   0.274  13.751  0.2728  0.0392  0.1444
16092TIP3    H169767   3.945   0.340  13.684 -2.3106  0.0209 -0.5717
16092TIP3    H269768   3.943   0.320  13.834  0.5149  0.9049 -0.3627
16093TIP3   OH269769   5.949   1.757   0.492  0.0399 -0.1587 -0.5629
16093TIP3    H169770   5.967   1.667   0.520 -0.2523  0.3109  1.2467
16093TIP3    H269771   6.018   1.776   0.429  1.8157 -0.7241  1.1153
16094TIP3   OH269772   6.170   1.681   2.995 -0.1428 -0.2569  0.7613
16094TIP3    H169773   6.211   1.595   2.990  0.2528 -0.0763  0.8921
16094TIP3    H269774   6.143   1.689   3.086 -0.1729 -0.2368  0.7505
16095TIP3   OH269775   0.695   5.307  15.518  0.1024 -0.1018  0.1986
16095TIP3    H169776   0.766   5.331  15.459  0.2930  2.6502  1.3709
16095TIP3    H269777   0.739   5.274  15.597  0.2343  2.1851  1.1698
16096TIP3   OH269778   1.442   4.146  14.388 -0.0110  0.2391  0.2727
16096TIP3    H169779   1.389   4.176  14.463  2.0309 -1.9497  2.7967
16096TIP3    H269780   1.503   4.219  14.372 -0.3859  0.6939  0.8323
16097TIP3   OH269781   6.198   4.971  14.017 -0.5643 -0.5000 -0.0425
16097TIP3    H169782   6.217   4.946  14.108 -0.9762 -0.8109 -0.0388
16097TIP3    H269783   6.224   4.894  13.966  2.3236  0.6282 -0.5121
16098TIP3   OH269784   6.703   4.829   6.189  0.8315 -0.5103 -0.6526
16098TIP3    H169785   6.661   4.748   6.216  0.3432 -0.0034  0.1565
16098TIP3    H269786   6.666   4.896   6.247  0.7807  0.3897 -1.6848
16099TIP3   OH269787   2.372   2.987  14.247 -0.0389 -0.2641 -0.0759
16099TIP3    H169788   2.443   3.031  14.200  0.0643 -0.8338 -0.4735
16099TIP3    H269789   2.316   3.057  14.279  1.7456  0.3095  1.9733
16100TIP3   OH269790   6.610   6.543   0.553 -0.3683  0.1188 -0.0529
16100TIP3    H169791   6.620   6.552   0.647  2.6470 -0.0777 -0.2728
16100TIP3    H269792   6.634   6.453   0.534 -1.2232  0.0698 -1.0051
16101TIP3   OH269793   0.440   2.942  16.886 -0.1460  0.0122  0.1321
16101TIP3    H169794   0.517   2.971  16.936  0.0906 -0.7525  0.2231
16101TIP3    H269795   0.365   2.974  16.936  0.1049  0.1935  0.3938
16102TIP3   OH269796   5.974   0.305   2.971 -0.0359 -0.6053  0.2041
16102TIP3    H169797   6.026   0.275   3.046 -0.9531 -1.1255  0.6484
16102TIP3    H269798   5.925   0.380   3.005  2.2260  1.5041 -0.8888
16103TIP3   OH269799   1.042   5.281   4.988  0.2812  0.3711 -0.1097
16103TIP3    H169800   0.985   5.356   4.970 -0.7478  0.5088  3.1052
16103TIP3    H269801   0.983   5.206   4.989  0.7365  0.0108 -0.1011
16104TIP3   OH269802   5.197   1.781  12.115 -0.1369  0.5502  0.1074
16104TIP3    H169803   5.193   1.715  12.185 -1.1896 -0.0451 -0.4964
16104TIP3    H269804   5.260   1.744  12.052  0.9407  1.1643  0.7821
16105TIP3   OH269805   5.388   0.603  11.270  0.3827  0.3806 -0.4214
16105TIP3    H169806   5.363   0.694  11.284 -0.8997  0.0160 -0.2373
16105TIP3    H269807   5.395   0.594  11.175  1.5991  0.9211 -0.4136
16106TIP3   OH269808   5.746   2.696  16.851 -0.1260 -0.0060  0.2709
16106TIP3    H169809   5.759   2.635  16.779 -2.2919 -0.0611 -0.1257
16106TIP3    H269810   5.702   2.771  16.811 -1.5052 -0.0974  1.5287
16107TIP3   OH269811   1.236   2.786   3.368 -0.0398 -0.1602 -0.5306
16107TIP3    H169812   1.274   2.864   3.327 -0.1668  0.2444  0.1170
16107TIP3    H269813   1.154   2.817   3.407  0.1232 -0.5205  0.0997
16108TIP3   OH269814   4.285   4.774  13.003  0.0779 -0.2290 -0.0216
16108TIP3    H169815   4.376   4.745  12.994  0.3731  0.1871  1.3492
16108TIP3    H269816   4.240   4.701  13.045  0.2273  0.2880  1.0566
16109TIP3   OH269817   2.876   5.883  14.741  0.2270 -0.3624  0.5970
16109TIP3    H169818   2.889   5.959  14.796  1.7361 -0.2956  0.1855
16109TIP3    H269819   2.964   5.852  14.720 -0.3216 -1.1233 -0.7484
16110TIP3   OH269820   2.111   0.972   3.897 -0.3113 -0.1158 -0.8212
16110TIP3    H169821   2.101   0.877   3.900 -2.1847  0.0505 -1.0347
16110TIP3    H269822   2.084   1.002   3.983 -3.2453  0.4554 -1.8332
16111TIP3   OH269823   6.167   2.629   2.445  0.3487  0.5618 -0.2188
16111TIP3    H169824   6.128   2.572   2.379  1.6060 -0.1974 -0.3443
16111TIP3    H269825   6.242   2.670   2.400  0.7388  0.6525  0.4919
16112TIP3   OH269826   1.366   3.695   0.952 -0.5684 -0.1772 -0.3313
16112TIP3    H169827   1.315   3.617   0.930 -0.9062 -0.4746  1.3326
16112TIP3    H269828   1.445   3.661   0.995  0.0911  0.3489 -1.1076
16113TIP3   OH269829   2.553   4.857  16.764 -0.2841  0.0901 -0.1069
16113TIP3    H169830   2.563   4.766  16.738 -0.1506  0.3225 -0.8860
16113TIP3    H269831   2.632   4.900  16.733  1.5769 -0.2170  3.5945
16114TIP3   OH269832   1.850   4.141  13.958 -0.2051 -0.6425 -0.0542
16114TIP3    H169833   1.759   4.119  13.940  0.1622 -1.2430 -1.3216
16114TIP3    H269834   1.895   4.057  13.964  0.3129 -0.3480  0.2894
16115TIP3   OH269835   5.845   2.795   0.754 -0.6631 -0.1189  0.1809
16115TIP3    H169836   5.931   2.838   0.754 -0.1102 -1.1270 -1.1756
16115TIP3    H269837   5.804   2.823   0.835  0.5892  1.1109  0.4286
16116TIP3   OH269838   2.123   4.336   2.159  0.0524 -0.1227 -0.2325
16116TIP3    H169839   2.076   4.420   2.165 -0.2205 -0.3765  2.6066
16116TIP3    H269840   2.054   4.272   2.140 -0.2979 -0.0807  0.8038
16117TIP3   OH269841   1.281   2.666   5.500  0.0828  0.3468  0.1680
16117TIP3    H169842   1.195   2.698   5.529  0.1665  1.1092 -0.4113
16117TIP3    H269843   1.343   2.706   5.562  0.0350 -0.1910  0.5763
16118TIP3   OH269844   3.789   0.290   0.480 -0.2283  0.8828 -0.4524
16118TIP3    H169845   3.846   0.277   0.556 -0.7791  1.0410 -0.0062
16118TIP3    H269846   3.848   0.286   0.405  0.1864 -0.2701 -0.0878
16119TIP3   OH269847   5.116   5.168  17.030  0.3962 -0.2355  0.0871
16119TIP3    H169848   5.029   5.165  17.071  0.9344  1.0755  1.4200
16119TIP3    H269849   5.144   5.077  17.028  0.9998 -0.3454  4.2643
16120TIP3   OH269850   5.283   3.658  15.671  0.3548  0.4527  0.1466
16120TIP3    H169851   5.214   3.695  15.727  0.1460 -0.0191  0.2096
16120TIP3    H269852   5.307   3.575  15.714 -0.8925 -0.6962 -1.2466
16121TIP3   OH269853   4.570   2.754  16.943  0.2779  0.8828 -0.3372
16121TIP3    H169854   4.665   2.745  16.934  0.3067  0.4114  0.3139
16121TIP3    H269855   4.545   2.818  16.877  1.1480  1.5690 -0.0124
16122TIP3   OH269856   0.106   0.495  12.091  0.5143 -0.1370 -0.4746
16122TIP3    H169857   0.098   0.403  12.116  1.6582  0.4052  2.1663
16122TIP3    H269858   0.183   0.498  12.035  1.0299 -0.6695  0.1909
16123TIP3   OH269859   2.815   1.593   0.827  0.3567  0.9582 -0.4911
16123TIP3    H169860   2.763   1.603   0.748 -2.3796 -1.0841  0.9044
16123TIP3    H269861   2.752   1.574   0.896  2.8192  0.1653  1.7356
16124TIP3   OH269862   0.869   0.067  16.076 -0.7371  0.7393  0.5489
16124TIP3    H169863   0.860  -0.027  16.058  1.8941  0.5273 -0.1043
16124TIP3    H269864   0.823   0.110  16.004 -1.2820 -0.0516  0.4148
16125TIP3   OH269865   5.144   3.808  16.151 -0.2795 -0.0006  0.6285
16125TIP3    H169866   5.171   3.815  16.060 -2.1813  0.0730  0.0288
16125TIP3    H269867   5.138   3.899  16.181 -0.0810 -0.0098  0.6980
16126TIP3   OH269868   2.700   2.556  12.699 -0.2391  0.2588 -0.2101
16126TIP3    H169869   2.623   2.525  12.745  0.3911 -2.8537 -0.9973
16126TIP3    H269870   2.665   2.609  12.627 -1.5845 -0.4102 -0.0794
16127TIP3   OH269871   0.868   1.141   3.842 -0.2524 -0.3657  0.2179
16127TIP3    H169872   0.946   1.163   3.893 -0.6980  1.1947  0.2569
16127TIP3    H269873   0.872   1.045   3.834  0.6764 -0.4952  1.7846
16128TIP3   OH269874   1.243   6.082  12.583 -0.3002  0.1766 -0.0239
16128TIP3    H169875   1.273   6.080  12.674 -0.6606 -0.0775  0.0924
16128TIP3    H269876   1.321   6.059  12.531  0.3143  1.8612  0.0982
16129TIP3   OH269877   5.246   5.353   6.458  0.3734 -0.3517 -0.4980
16129TIP3    H169878   5.254   5.282   6.522  1.6261 -0.8061 -1.1132
16129TIP3    H269879   5.222   5.430   6.509 -0.2507 -1.0595  0.2887
16130TIP3   OH269880   3.081   1.163   4.191  0.7741 -0.4766  0.0662
16130TIP3    H169881   2.992   1.183   4.162  0.9602  1.2763  0.5808
16130TIP3    H269882   3.078   1.174   4.286  1.9697  1.6717 -0.0810
16131TIP3   OH269883   6.717   2.449  11.649 -0.4138  0.6646  0.3714
16131TIP3    H169884   6.723   2.372  11.593 -0.2622  2.2597 -1.9403
16131TIP3    H269885   6.664   2.420  11.724  0.1383 -1.8094 -0.0904
16132TIP3   OH269886   6.515   4.940  15.917 -0.0023 -0.2371  0.8029
16132TIP3    H169887   6.563   5.009  15.963  1.6780  0.2290 -1.4699
16132TIP3    H269888   6.477   4.984  15.841 -0.5849 -1.4230  0.3840
16133TIP3   OH269889   4.027   5.385   2.961 -0.6301  0.4928  0.1271
16133TIP3    H169890   4.074   5.371   3.043 -0.9274  1.8098  0.5395
16133TIP3    H269891   4.053   5.472   2.932 -0.2182 -0.1083 -1.4052
16134TIP3   OH269892   1.555   5.599   0.471  0.5486 -0.3840  0.0933
16134TIP3    H169893   1.482   5.610   0.409  0.7150 -0.1389 -0.0616
16134TIP3    H269894   1.575   5.688   0.500  1.2240 -0.3753 -0.3730
16135TIP3   OH269895   2.289   6.392  12.611 -0.5567  0.2351  0.0139
16135TIP3    H169896   2.310   6.485  12.599 -0.1895  0.0092 -1.1597
16135TIP3    H269897   2.373   6.351  12.629 -0.5053 -0.0874 -0.9175
16136TIP3   OH269898   1.525   2.803  15.125 -0.1499  0.0554  0.4128
16136TIP3    H169899   1.455   2.869  15.129  0.7751  1.2355 -1.2610
16136TIP3    H269900   1.512   2.749  15.203 -1.4518  1.7204  1.4249
16137TIP3   OH269901   1.356   0.427  12.646  0.1615 -0.0736 -0.4546
16137TIP3    H169902   1.409   0.381  12.581  0.8416  0.3833 -0.2243
16137TIP3    H269903   1.358   0.371  12.723  1.4527  0.5916  0.0128
16138TIP3   OH269904   2.190   4.860  13.901 -0.2216 -0.1641  0.0974
16138TIP3    H169905   2.224   4.928  13.843 -0.7437  0.6407  0.7203
16138TIP3    H269906   2.209   4.892  13.989 -1.7916 -0.1284  0.4368
16139TIP3   OH269907   2.328   0.454   2.745 -0.7641 -0.3531 -0.0992
16139TIP3    H169908   2.274   0.504   2.806  1.4570  0.6118  1.1842
16139TIP3    H269909   2.299   0.483   2.659 -0.9355  1.6286  0.5862
16140TIP3   OH269910   4.566   5.934   6.439  0.5608  0.1138  0.1871
16140TIP3    H169911   4.471   5.933   6.431  0.5638  0.6834 -0.0005
16140TIP3    H269912   4.584   6.008   6.498  0.7363 -1.7269  2.5871
16141TIP3   OH269913   0.065   2.592   1.585 -0.5388  0.2069  0.1309
16141TIP3    H169914   0.041   2.651   1.513 -1.7227 -2.4674 -1.8319
16141TIP3    H269915  -0.010   2.594   1.644 -0.0510  1.5262  0.7490
16142TIP3   OH269916   5.726   5.751   2.214 -0.5160 -0.7006 -0.4648
16142TIP3    H169917   5.662   5.790   2.154  0.6842  0.7149 -0.8895
16142TIP3    H269918   5.678   5.740   2.297 -1.3700  0.0840 -0.8416
16143TIP3   OH269919   4.216   5.596  12.675 -0.0170  0.0360 -0.7988
16143TIP3    H169920   4.312   5.604  12.668  0.1441 -0.0303  0.9060
16143TIP3    H269921   4.200   5.502  12.673  0.1559 -0.0545  0.6655
16144TIP3   OH269922   3.285   6.719  14.968 -0.1716  0.0123  0.4242
16144TIP3    H169923   3.226   6.794  14.966 -2.7570 -1.8910 -0.9529
16144TIP3    H269924   3.234   6.649  15.009  1.3541 -1.5653 -0.2316
16145TIP3   OH269925   2.009   6.572   3.827 -0.1053  0.0063  0.2642
16145TIP3    H169926   1.917   6.592   3.812  0.0946  0.6839 -0.0825
16145TIP3    H269927   2.013   6.543   3.918 -0.6832 -0.1637  0.2359
16146TIP3   OH269928   0.208   4.727   4.040 -0.8718  0.4807 -0.4774
16146TIP3    H169929   0.278   4.729   3.975 -1.4191  2.4472 -1.0810
16146TIP3    H269930   0.128   4.741   3.989 -1.7017 -1.3482  0.2449
16147TIP3   OH269931   0.530   6.757   4.480  0.1108  0.1977 -0.5446
16147TIP3    H169932   0.442   6.720   4.471 -0.0284  0.3045  0.3103
16147TIP3    H269933   0.557   6.777   4.390 -0.6543 -0.0277 -0.8311
16148TIP3   OH269934   2.026   6.294  11.555 -0.1276  0.1405  0.1088
16148TIP3    H169935   2.102   6.277  11.611  0.1965 -0.1380 -0.4047
16148TIP3    H269936   2.034   6.386  11.531 -0.0665  0.1641  0.2190
16149TIP3   OH269937   3.852   4.417   1.580  0.2119  0.0580  0.7756
16149TIP3    H169938   3.931   4.458   1.617 -0.4903  1.8525  0.3857
16149TIP3    H269939   3.817   4.364   1.652  1.9537 -1.0733  0.8386
16150TIP3   OH269940   5.065   3.132  13.439 -0.1662  0.0245 -0.0573
16150TIP3    H169941   5.086   3.155  13.349  2.0499 -2.4948 -0.3226
16150TIP3    H269942   5.116   3.193  13.492  0.6972 -0.2008 -0.5970
16151TIP3   OH269943   6.711   6.180  14.219  0.1173  0.0660  0.2215
16151TIP3    H169944   6.722   6.271  14.191  0.1132  0.0297  0.1038
16151TIP3    H269945   6.754   6.176  14.305 -0.0531  0.2269  0.3143
16152TIP3   OH269946   1.680   6.566  14.791  0.0744  0.5811  0.3578
16152TIP3    H169947   1.766   6.523  14.790 -0.0742  0.2481  1.1551
16152TIP3    H269948   1.691   6.641  14.849 -0.2188  0.4418  0.5957
16153TIP3   OH269949   6.309   6.442   6.566 -0.1669 -0.3161  0.1610
16153TIP3    H169950   6.324   6.501   6.640 -2.8173  1.1778 -0.3636
16153TIP3    H269951   6.373   6.468   6.500 -1.0012  1.7990  0.0971
16154TIP3   OH269952   1.653   5.487   3.338  0.1348  0.3490 -0.2315
16154TIP3    H169953   1.632   5.559   3.278 -2.4963 -1.2428 -1.3916
16154TIP3    H269954   1.621   5.517   3.423  0.8645  1.2877 -0.2615
16155TIP3   OH269955   0.551   3.322  11.474 -0.4847  0.1285 -0.8339
16155TIP3    H169956   0.500   3.259  11.423 -2.5296 -0.7107  1.9664
16155TIP3    H269957   0.587   3.270  11.546 -1.6588  1.9150  1.1692
16156TIP3   OH269958   0.132   6.113  15.072 -0.1545  0.8728 -0.2450
16156TIP3    H169959   0.189   6.065  15.012  1.6452  2.5216  0.0487
16156TIP3    H269960   0.172   6.101  15.158 -0.4884  1.6920  0.0333
16157TIP3   OH269961   0.369   4.332  11.028  0.3731  0.2361 -0.0198
16157TIP3    H169962   0.413   4.312  10.945  3.0199 -2.1214  1.7652
16157TIP3    H269963   0.302   4.264  11.036  0.7287 -0.0962  0.1674
16158TIP3   OH269964   4.012   1.339  14.066  0.0090 -0.0590  0.2859
16158TIP3    H169965   4.053   1.405  14.010 -0.4239 -1.0389 -1.2625
16158TIP3    H269966   3.928   1.378  14.091 -0.0654  0.1591 -0.2789
16159TIP3   OH269967   1.168   2.560  11.783  0.5752 -0.0250 -0.2108
16159TIP3    H169968   1.225   2.498  11.829  0.3973 -0.5627 -0.6975
16159TIP3    H269969   1.171   2.640  11.836  0.1844 -0.6940  0.8588
16160TIP3   OH269970   5.154   1.960   0.693 -0.0069  0.0749  0.3662
16160TIP3    H169971   5.147   2.056   0.698 -1.1755  0.0208  0.0220
16160TIP3    H269972   5.112   1.929   0.772  0.3064 -0.1589  0.4403
16161TIP3   OH269973   4.332   1.730  15.572  0.0143  0.3650 -0.5212
16161TIP3    H169974   4.318   1.725  15.666  2.6754  2.4696  0.1152
16161TIP3    H269975   4.294   1.649  15.538  0.2495 -1.1676  2.5355
16162TIP3   OH269976   2.820   0.500   3.557 -0.5418  0.9643  0.2782
16162TIP3    H169977   2.805   0.436   3.627 -1.9342  1.7762  0.7497
16162TIP3    H269978   2.775   0.579   3.586 -0.9799  1.3903 -1.4358
16163TIP3   OH269979   0.325   1.465   0.935  0.0160 -0.3240 -0.2822
16163TIP3    H169980   0.308   1.477   1.028 -0.2190 -1.7370 -0.1226
16163TIP3    H269981   0.314   1.552   0.897 -0.9603  0.0643  0.8396
16164TIP3   OH269982   1.092   6.749   5.791 -0.4945  0.1795  0.7385
16164TIP3    H169983   1.003   6.781   5.778 -1.0301 -1.4865  0.0616
16164TIP3    H269984   1.102   6.677   5.729  0.8898 -0.4931  1.6651
16165TIP3   OH269985   4.301   5.160  16.736 -0.1030 -0.0690  0.0152
16165TIP3    H169986   4.351   5.241  16.728  0.6659 -0.5487 -0.1802
16165TIP3    H269987   4.309   5.136  16.828 -0.2287  0.0197  0.0489
16166TIP3   OH269988   0.537   0.576  13.280 -0.0817  0.5093  0.4698
16166TIP3    H169989   0.528   0.489  13.318 -1.8146 -0.0938 -1.1369
16166TIP3    H269990   0.453   0.619  13.297 -0.0138  1.0909 -0.5218
16167TIP3   OH269991   3.361   1.218   1.062  0.0475 -0.3679  0.0224
16167TIP3    H169992   3.371   1.148   1.126  2.1704 -0.7727 -0.6753
16167TIP3    H269993   3.266   1.228   1.052 -0.3105 -2.2373  1.1073
16168TIP3   OH269994   0.322   4.282  15.552 -0.1415 -0.0504  0.3944
16168TIP3    H169995   0.322   4.338  15.629  2.0988  1.7094 -0.7720
16168TIP3    H269996   0.254   4.319  15.496 -1.3580 -0.9662  1.2101
16169TIP3   OH269997   1.929   5.945   1.769 -0.5733  0.0150 -0.3948
16169TIP3    H169998   1.991   6.001   1.815 -1.5184  1.5247 -0.8894
16169TIP3    H269999   1.860   6.004   1.738 -1.2921 -1.3219 -1.5091
16170TIP3   OH270000   2.726   5.481  11.912  0.1071  0.1763  0.2658
16170TIP3    H170001   2.692   5.553  11.859 -2.4904 -0.3865  0.9957
16170TIP3    H270002   2.649   5.426  11.930  1.9687 -2.8995 -0.3735
16171TIP3   OH270003   5.287   2.160   4.411 -0.6316 -0.0135 -0.8501
16171TIP3    H170004   5.254   2.082   4.367 -0.6832  0.4441 -1.6407
16171TIP3    H270005   5.275   2.230   4.347  0.5400  0.4249 -0.6029
16172TIP3   OH270006   1.222   2.283   2.045  0.1453 -0.5223 -0.1557
16172TIP3    H170007   1.145   2.227   2.051 -0.3730  0.2260  0.2812
16172TIP3    H270008   1.279   2.239   1.981 -1.1596 -0.4685 -1.4143
16173TIP3   OH270009   1.141   3.093   5.449  0.9124 -0.0505  0.0248
16173TIP3    H170010   1.046   3.083   5.450  1.0429 -1.4454  0.3901
16173TIP3    H270011   1.155   3.188   5.445 -0.4793  0.1967  0.4587
16174TIP3   OH270012   2.579   2.534   3.616 -0.2314  0.3339 -0.3898
16174TIP3    H170013   2.571   2.453   3.566 -1.0902 -0.1182  0.4562
16174TIP3    H270014   2.601   2.506   3.705  2.1032  1.1644 -0.6389
16175TIP3   OH270015   3.940   3.424   4.726  0.4981  0.0830  0.3579
16175TIP3    H170016   3.864   3.383   4.768 -0.8603  0.3786 -1.6827
16175TIP3    H270017   4.010   3.414   4.790 -0.9826 -1.1255  1.9032
16176TIP3   OH270018   6.551   2.782   4.053 -0.0098  0.0619 -0.2071
16176TIP3    H170019   6.575   2.710   4.111  0.7118  2.0642  2.1678
16176TIP3    H270020   6.625   2.789   3.992 -0.6932 -1.9579 -1.3546
16177TIP3   OH270021   4.498   0.255  14.109 -0.0461  0.1960 -0.2412
16177TIP3    H170022   4.548   0.321  14.060  0.8178 -3.3844 -4.9446
16177TIP3    H270023   4.423   0.236  14.053 -0.3910 -2.5592  0.9890
16178TIP3   OH270024   0.065   5.804  12.104  0.1098 -0.1079 -0.3479
16178TIP3    H170025   0.133   5.824  12.168 -1.2690  1.3589  0.7348
16178TIP3    H270026   0.067   5.878  12.043  1.4980 -1.5490 -2.1678
16179TIP3   OH270027   2.610   5.689  16.690 -0.7092 -0.2548  0.2875
16179TIP3    H170028   2.655   5.674  16.607  1.2782 -1.3182  1.4980
16179TIP3    H270029   2.553   5.612  16.700  0.9121 -1.4202  1.0290
16180TIP3   OH270030   4.694   5.521   0.497  0.2264 -0.0472 -0.2495
16180TIP3    H170031   4.773   5.516   0.549  1.2468  1.0415 -1.6276
16180TIP3    H270032   4.706   5.455   0.428  0.3911  0.7691 -1.0237
16181TIP3   OH270033   5.242   6.512  17.081  0.2888  0.1508 -0.0573
16181TIP3    H170034   5.260   6.460  17.002  1.9803 -1.4343  1.2818
16181TIP3    H270035   5.316   6.571  17.089  1.4034 -1.3465  1.5431
16182TIP3   OH270036   6.224   3.681  14.717  0.2303  0.0259 -0.9303
16182TIP3    H170037   6.172   3.757  14.693 -1.4893  0.3609  3.0995
16182TIP3    H270038   6.178   3.607  14.678  0.0323  0.7409 -2.1085
16183TIP3   OH270039   4.143   2.402   5.403  0.8749 -0.3023 -0.5402
16183TIP3    H170040   4.085   2.353   5.462  2.8103 -1.3091  0.6061
16183TIP3    H270041   4.094   2.482   5.384 -1.1035 -1.3109 -0.0353
16184TIP3   OH270042   6.513   5.345  13.377 -0.3364  0.4017  0.2853
16184TIP3    H170043   6.563   5.271  13.342  0.6086  0.8863  0.5784
16184TIP3    H270044   6.565   5.422  13.354 -1.2077  0.9665  0.1630
16185TIP3   OH270045   6.571   1.482   3.504 -0.2138  0.1726 -0.0241
16185TIP3    H170046   6.537   1.394   3.525 -0.9076  0.3330 -0.4586
16185TIP3    H270047   6.536   1.538   3.574 -0.0090  0.1585  0.0908
16186TIP3   OH270048   4.235   1.212   3.075 -0.4618 -0.8096 -0.2576
16186TIP3    H170049   4.211   1.148   3.141 -1.2188 -0.8679 -0.5850
16186TIP3    H270050   4.194   1.181   2.994  0.7572 -0.9479 -0.8550
16187TIP3   OH270051   2.193   0.116   3.128  0.1751 -0.0172  0.5368
16187TIP3    H170052   2.216   0.077   3.043 -2.7416 -1.3119  0.2392
16187TIP3    H270053   2.200   0.044   3.191 -0.5424  0.1773  0.8513
16188TIP3   OH270054   6.013   4.531  10.410  0.6013 -0.1028 -0.5133
16188TIP3    H170055   5.922   4.503  10.401  0.3500  0.2048  0.9504
16188TIP3    H270056   6.016   4.616  10.366  0.5325 -0.7272 -1.7846
16189TIP3   OH270057   4.208   5.507  15.216 -0.0892  0.2687 -0.1220
16189TIP3    H170058   4.268   5.561  15.165  0.1089  0.5266  0.3799
16189TIP3    H270059   4.163   5.568  15.274  0.3840 -0.1354  0.6907
16190TIP3   OH270060   2.566   6.208  15.008 -0.0194 -0.3550 -0.0446
16190TIP3    H170061   2.633   6.247  14.952 -1.3005  0.1846 -1.2590
16190TIP3    H270062   2.552   6.120  14.971 -0.3483 -0.2668 -0.1389
16191TIP3   OH270063   1.049   2.357   0.545 -0.1916 -0.4286 -0.4751
16191TIP3    H170064   1.126   2.345   0.488  0.0878  1.4013 -0.5377
16191TIP3    H270065   1.020   2.268   0.564  1.0825 -1.1377 -1.6245
16192TIP3   OH270066   3.938   3.937   2.975  0.7072 -0.7119  0.1541
16192TIP3    H170067   4.013   3.962   2.921  0.6832 -0.7951  0.0827
16192TIP3    H270068   3.885   4.016   2.981  2.1223  0.1761  2.3994
16193TIP3   OH270069   1.057   5.104  17.074  0.3357 -0.4268 -0.0946
16193TIP3    H170070   1.022   5.072  17.157 -1.5078 -0.3981 -0.8301
16193TIP3    H270071   1.123   5.039  17.050  1.3256 -0.1246  1.6479
16194TIP3   OH270072   5.603   2.453   1.956  0.7808  0.2644 -0.3197
16194TIP3    H170073   5.672   2.502   2.000  1.0509  0.3608 -0.8406
16194TIP3    H270074   5.539   2.519   1.928  1.2167  0.3476 -1.1497
16195TIP3   OH270075   1.199   0.512   1.463 -0.6316  0.1585 -0.3969
16195TIP3    H170076   1.123   0.530   1.518 -0.4424 -0.3457  0.0385
16195TIP3    H270077   1.206   0.416   1.462  0.6070  0.2133  0.4203
16196TIP3   OH270078   2.436   1.483  14.473 -0.1888 -0.2993 -0.0108
16196TIP3    H170079   2.406   1.569  14.501  0.3094 -0.2537  0.4038
16196TIP3    H270080   2.488   1.500  14.394  2.6851  0.2443  1.8192
16197TIP3   OH270081   1.801   5.872   3.294 -0.1171  0.0840  0.9207
16197TIP3    H170082   1.860   5.871   3.219  0.2020  2.7414  1.0404
16197TIP3    H270083   1.834   5.803   3.351  1.8639  0.3662  0.2147
16198TIP3   OH270084   0.658   6.099   5.803  0.3672 -0.1518 -0.2658
16198TIP3    H170085   0.718   6.025   5.805 -0.3296 -0.6992  0.8639
16198TIP3    H270086   0.693   6.161   5.866  0.1542 -0.1502 -0.1470
16199TIP3   OH270087   1.906   5.503   4.865  0.1900 -0.0818 -0.0893
16199TIP3    H170088   1.872   5.414   4.855  0.9251 -0.4293  0.3904
16199TIP3    H270089   1.997   5.491   4.893  0.1398  0.8184  0.5253
16200TIP3   OH270090   0.844   0.473  16.363 -0.3259  0.6812  0.8101
16200TIP3    H170091   0.915   0.532  16.388  0.9601 -0.8763  0.9827
16200TIP3    H270092   0.884   0.411  16.303 -0.6682 -2.1950  3.3390
16201TIP3   OH270093   3.633   6.001   2.210  0.0360  0.7176 -0.0734
16201TIP3    H170094   3.598   5.946   2.280  0.9010  0.7563  0.4005
16201TIP3    H270095   3.612   6.091   2.237 -2.5905  0.6369 -1.5008
16202TIP3   OH270096   4.058   5.103  11.332 -0.3645  0.5662  0.2680
16202TIP3    H170097   3.964   5.108  11.314 -0.4024 -1.2542 -0.3080
16202TIP3    H270098   4.086   5.024  11.285  2.0879  2.7633 -2.2997
16203TIP3   OH270099   0.049   5.479  14.788 -0.0732 -0.0286 -0.2850
16203TIP3    H170100   0.105   5.401  14.782 -0.7087 -0.4238 -1.4493
16203TIP3    H270101   0.055   5.519  14.701 -1.0492  0.3162 -0.2008
16204TIP3   OH270102   5.947   2.304  12.433  0.2765 -0.1587  0.1673
16204TIP3    H170103   5.877   2.324  12.370 -0.9802  0.4280  1.7006
16204TIP3    H270104   5.910   2.237  12.490  1.9469 -1.8110 -0.5709
16205TIP3   OH270105   5.928   3.849  14.698 -0.1902  0.2821  0.0914
16205TIP3    H170106   5.843   3.824  14.663 -0.0214  0.3363 -0.3580
16205TIP3    H270107   5.962   3.914  14.637  0.2516  0.1306  0.1673
16206TIP3   OH270108   3.903   3.627  15.478 -0.4934  0.3858 -0.3121
16206TIP3    H170109   3.835   3.561  15.491 -1.8710  2.0487  1.5067
16206TIP3    H270110   3.870   3.680  15.405 -0.3971  0.3062 -0.4143
16207TIP3   OH270111   4.754   3.119  15.718  0.0416 -0.0779  0.2195
16207TIP3    H170112   4.811   3.065  15.773  1.5012  0.4916 -0.6926
16207TIP3    H270113   4.681   3.061  15.696  1.1041 -1.4119  0.0502
16208TIP3   OH270114   3.240   5.230  11.063  0.1676  0.3702 -0.2150
16208TIP3    H170115   3.237   5.144  11.105 -3.2572  1.2068  1.6181
16208TIP3    H270116   3.270   5.289  11.132  2.7396  0.7319 -1.5273
16209TIP3   OH270117   6.730   3.358   3.392  0.8397 -0.1925  0.1511
16209TIP3    H170118   6.809   3.330   3.345 -0.1759 -0.7750 -1.2699
16209TIP3    H270119   6.660   3.303   3.356  0.0903 -1.1943  2.8580
16210TIP3   OH270120   0.991   3.635   3.794  0.2625 -0.8107 -0.2060
16210TIP3    H170121   0.921   3.598   3.739  0.4606  0.0345 -1.0556
16210TIP3    H270122   1.038   3.559   3.827 -2.3975 -1.5763  2.2823
16211TIP3   OH270123   4.796   3.999  16.686 -0.0636  0.2249  0.0997
16211TIP3    H170124   4.701   4.007  16.683  0.0556  1.8543 -0.9319
16211TIP3    H270125   4.819   3.955  16.604  0.0941  0.4363  0.0265
16212TIP3   OH270126   0.048   3.324   4.061 -0.3379  0.3157  0.5405
16212TIP3    H170127  -0.040   3.305   4.029  0.4129 -1.9890 -0.3060
16212TIP3    H270128   0.107   3.289   3.994  1.2446  0.4092  1.8152
16213TIP3   OH270129   5.379   1.591  11.716 -0.5863 -0.0212 -0.6031
16213TIP3    H170130   5.379   1.641  11.635  0.2924  0.4089 -0.3491
16213TIP3    H270131   5.449   1.526  11.704  1.1764  1.5217  0.6640
16214TIP3   OH270132   5.865   5.232  15.233  0.1748  0.2655 -0.6524
16214TIP3    H170133   5.923   5.158  15.215  0.3090  0.3680 -0.6381
16214TIP3    H270134   5.912   5.285  15.297  0.0833  0.3698 -0.6710
16215TIP3   OH270135   6.344   2.541   0.890 -0.5040 -0.1524 -0.1953
16215TIP3    H170136   6.274   2.573   0.832  0.9220  0.5397 -1.5946
16215TIP3    H270137   6.425   2.559   0.843  0.6955 -0.2591  1.7116
16216TIP3   OH270138   5.558   0.664   0.801  0.5274 -0.1483  0.3182
16216TIP3    H170139   5.595   0.705   0.723  2.1258 -0.9194  0.6243
16216TIP3    H270140   5.560   0.570   0.782 -1.9806 -0.2214  0.0905
16217TIP3   OH270141   5.570   2.436   6.150 -0.0709  0.0943  1.1369
16217TIP3    H170142   5.567   2.404   6.240  2.5040 -2.7336  0.4164
16217TIP3    H270143   5.628   2.512   6.153  0.1602 -0.1056  1.8591
16218TIP3   OH270144   4.841   0.300   3.237 -0.8439 -0.5091  0.0992
16218TIP3    H170145   4.936   0.307   3.247 -0.9437 -1.1664  2.0928
16218TIP3    H270146   4.813   0.388   3.216  0.2287 -0.3795 -0.9186
16219TIP3   OH270147   5.052   0.524   2.997  0.3849 -0.1514 -0.2697
16219TIP3    H170148   5.055   0.474   3.078  0.9246 -0.8400 -0.7010
16219TIP3    H270149   4.971   0.574   3.002  0.7303  0.3197  0.9839
16220TIP3   OH270150   1.989   3.925  13.092 -0.7478 -0.1587 -0.5822
16220TIP3    H170151   1.928   3.974  13.037  0.3468  0.5510 -1.2229
16220TIP3    H270152   1.986   3.969  13.177 -2.0362 -0.9113 -0.2236
16221TIP3   OH270153   5.964   0.744  12.008 -0.0547 -0.1309  0.7212
16221TIP3    H170154   6.054   0.717  12.022 -0.2022 -0.7333  0.5355
16221TIP3    H270155   5.938   0.783  12.091  0.6103  0.7487  0.5322
16222TIP3   OH270156   5.632   6.289   1.396 -0.0913 -0.4872 -0.0509
16222TIP3    H170157   5.636   6.343   1.317 -1.3599 -0.6434 -0.2497
16222TIP3    H270158   5.718   6.298   1.436  0.3554  0.1149 -1.1114
16223TIP3   OH270159   5.804   5.278   3.493 -0.0004 -0.2082 -0.0231
16223TIP3    H170160   5.745   5.296   3.420  1.3663  0.3531 -1.0185
16223TIP3    H270161   5.813   5.362   3.537  0.3839 -0.2005 -0.1173
16224TIP3   OH270162   4.472   6.546  16.662  0.0075 -0.3021 -0.1065
16224TIP3    H170163   4.563   6.541  16.691  0.0198 -1.7857 -0.3057
16224TIP3    H270164   4.422   6.518  16.739 -0.1994 -0.6439 -0.3656
16225TIP3   OH270165   0.013   0.189   1.863  0.2377 -0.5589 -0.0595
16225TIP3    H170166   0.075   0.262   1.855 -0.9346  0.4700 -0.0326
16225TIP3    H270167  -0.019   0.176   1.774  0.6925 -1.2839 -0.1230
16226TIP3   OH270168   0.093   6.128  11.286 -0.1319 -0.5015 -0.4290
16226TIP3    H170169   0.119   6.055  11.229  3.7461  3.1088 -3.9823
16226TIP3    H270170   0.039   6.184  11.230  0.1926  1.1806  0.8651
16227TIP3   OH270171   4.966   0.649   4.851  0.2361 -0.2685  0.6739
16227TIP3    H170172   4.987   0.623   4.762 -0.2004 -1.8105  0.9771
16227TIP3    H270173   4.932   0.738   4.844  0.7273 -0.1769 -0.6209
16228TIP3   OH270174   3.251   2.777  12.837  0.0476 -0.1833  0.4947
16228TIP3    H170175   3.303   2.738  12.907 -0.0291 -1.5019 -0.1406
16228TIP3    H270176   3.175   2.814  12.881  1.3010  1.4307  1.3914
16229TIP3   OH270177   3.154   4.030   0.983  0.1376  0.0936 -0.2848
16229TIP3    H170178   3.101   4.108   0.968  0.2457  0.4794  1.1547
16229TIP3    H270179   3.244   4.057   0.966  0.2502  0.5021  0.8519
16230TIP3   OH270180   5.073   5.654   0.765  0.0302  0.4713  0.2425
16230TIP3    H170181   5.027   5.613   0.838  1.6062 -1.0377  0.4668
16230TIP3    H270182   5.156   5.683   0.802  1.1954 -1.0168 -1.0688
16231TIP3   OH270183   3.944   1.720   1.344  0.4205  0.2885  0.9354
16231TIP3    H170184   3.970   1.811   1.333  1.6601 -0.1674 -0.1580
16231TIP3    H270185   3.869   1.709   1.286  1.1956  0.2552 -0.0852
16232TIP3   OH270186   2.177   3.045   3.407  0.0132  0.0191  0.2812
16232TIP3    H170187   2.257   2.999   3.434  1.5114  2.2394 -0.1634
16232TIP3    H270188   2.157   3.104   3.479  1.6844  2.9997 -1.4766
16233TIP3   OH270189   5.354   3.879   0.740 -0.1396 -0.1863  0.4040
16233TIP3    H170190   5.417   3.937   0.697 -1.7135  0.8839 -0.5687
16233TIP3    H270191   5.310   3.935   0.804 -0.8254 -0.6354  0.3341
16234TIP3   OH270192   6.675   3.571   1.913 -0.3584  0.0543  0.4752
16234TIP3    H170193   6.745   3.589   1.976 -0.0798 -0.9789  0.4821
16234TIP3    H270194   6.647   3.657   1.883  2.2992  0.4681 -1.0820
16235TIP3   OH270195   5.100   5.349  14.215 -0.0141  0.1238  0.5889
16235TIP3    H170196   5.175   5.328  14.272  0.3340 -0.7969 -0.1887
16235TIP3    H270197   5.051   5.414  14.264  0.2018 -0.7447  2.0195
16236TIP3   OH270198   4.694   6.657   2.739 -0.4514 -0.0284 -0.7442
16236TIP3    H170199   4.734   6.691   2.820  0.0330  0.2720 -1.1007
16236TIP3    H270200   4.700   6.562   2.747  0.1605  0.0081 -0.6988
16237TIP3   OH270201   5.619   6.397   6.180  0.0976  0.4743 -0.4890
16237TIP3    H170202   5.636   6.473   6.124  1.6909  0.0560 -0.6076
16237TIP3    H270203   5.689   6.335   6.160 -1.4311 -1.2555 -0.7319
16238TIP3   OH270204   2.214   2.046   3.020  0.2567 -0.0689 -0.3982
16238TIP3    H170205   2.264   2.008   2.948  0.3448 -0.0336 -0.3563
16238TIP3    H270206   2.187   1.971   3.073 -0.3883 -0.1547 -0.8347
16239TIP3   OH270207   6.216   3.531   2.559  0.1811  0.0444 -0.4329
16239TIP3    H170208   6.225   3.459   2.496  1.2585  1.1231 -1.5957
16239TIP3    H270209   6.305   3.566   2.566  0.2796 -0.5639  2.4006
16240TIP3   OH270210   3.961   0.728  14.277  0.7079  0.2145 -0.6125
16240TIP3    H170211   3.959   0.696  14.367 -0.7259  2.8849  0.4309
16240TIP3    H270212   4.046   0.771  14.268  0.1015  1.6471  0.1915
16241TIP3   OH270213   1.292   2.928   3.924  0.1030 -0.2492  0.4766
16241TIP3    H170214   1.247   2.874   3.858 -3.8081  3.8900 -0.7342
16241TIP3    H270215   1.365   2.967   3.876 -0.1901 -0.4519 -0.1486
16242TIP3   OH270216   4.528   2.923  12.965 -0.5220  0.2480  0.6188
16242TIP3    H170217   4.621   2.941  12.980 -0.5454  0.1395  0.8973
16242TIP3    H270218   4.483   3.004  12.989 -0.5259  0.1962  0.7931
16243TIP3   OH270219   4.250   5.817  13.333 -0.0817 -0.1579 -0.2023
16243TIP3    H170220   4.156   5.799  13.341 -0.2364  0.2671 -0.9867
16243TIP3    H270221   4.260   5.852  13.244  0.4039  2.4913  0.8166
16244TIP3   OH270222   5.898   3.370   3.546  0.4906 -0.5595  0.1264
16244TIP3    H170223   5.841   3.426   3.599 -0.1968 -0.7370 -0.4200
16244TIP3    H270224   5.929   3.303   3.606 -0.1414 -0.6525  0.3514
16245TIP3   OH270225   1.494   0.157  11.149  0.0453  0.3821 -0.4137
16245TIP3    H170226   1.407   0.182  11.180 -0.3251 -1.4059  0.1348
16245TIP3    H270227   1.503   0.200  11.064 -0.4573  2.3663  0.4792
16246TIP3   OH270228   4.029   0.438   2.621  0.7981  0.3430  0.2080
16246TIP3    H170229   3.954   0.417   2.566  1.9099 -1.7818 -0.6382
16246TIP3    H270230   4.086   0.490   2.565  0.8440  0.2317  0.1496
16247TIP3   OH270231   2.556   2.572  13.601  0.3258  0.1196 -0.1165
16247TIP3    H170232   2.549   2.662  13.568 -0.1044  0.0844 -0.1287
16247TIP3    H270233   2.468   2.536  13.589  0.1013  0.1718  1.2632
16248TIP3   OH270234   0.144   2.999   3.895 -0.5829  0.8508 -0.0810
16248TIP3    H170235   0.138   3.014   3.990  2.4136  0.4221  0.2692
16248TIP3    H270236   0.223   3.046   3.869 -0.4856 -0.3323 -2.0905
16249TIP3   OH270237   5.835   3.446  12.665  0.7328  0.0612  0.2805
16249TIP3    H170238   5.852   3.463  12.573 -0.6514 -1.7879 -0.3654
16249TIP3    H270239   5.758   3.501  12.685  2.0905  1.8484  0.8872
16250TIP3   OH270240   0.711   0.312  14.275 -0.1847  0.6371 -0.1227
16250TIP3    H170241   0.771   0.241  14.251  0.0341  0.5447  0.6756
16250TIP3    H270242   0.673   0.284  14.358 -0.0308  1.5000  0.2491
16251TIP3   OH270243   0.778   4.221  13.664 -0.0357  0.5683  1.0316
16251TIP3    H170244   0.855   4.267  13.697  0.5686 -0.8573  1.6901
16251TIP3    H270245   0.763   4.259  13.578  1.4010  0.8790  0.8867
16252TIP3   OH270246   1.968   0.964  13.091 -0.0258 -0.1610 -0.5996
16252TIP3    H170247   1.905   1.035  13.077 -0.2853 -0.5603 -1.4947
16252TIP3    H270248   1.999   0.977  13.181  3.2677  3.7888 -1.9769
16253TIP3   OH270249   0.051   3.304  14.513 -0.5664  0.2214  0.5889
16253TIP3    H170250   0.134   3.297  14.467 -0.1202 -1.6074  1.5964
16253TIP3    H270251   0.010   3.218  14.502 -1.8836  0.7802  0.9442
16254TIP3   OH270252   3.825   2.749  13.628 -0.1105 -0.1754 -1.1507
16254TIP3    H170253   3.864   2.730  13.543 -1.4549 -2.6235 -1.3125
16254TIP3    H270254   3.748   2.802  13.607  1.1927  1.8200 -1.1229
16255TIP3   OH270255   5.080   1.578   5.385  0.2547  0.6278 -0.6328
16255TIP3    H170256   5.103   1.495   5.344 -1.4981  0.4511 -1.3270
16255TIP3    H270257   5.084   1.642   5.314 -1.9475  0.4722 -0.9567
16256TIP3   OH270258   5.739   3.584  16.717  0.3815  0.2533  0.0437
16256TIP3    H170259   5.829   3.571  16.748  0.3024  0.5349  0.4005
16256TIP3    H270260   5.687   3.589  16.796 -0.0870 -0.8012 -0.1839
16257TIP3   OH270261   0.454   3.605   6.474  0.3703 -0.1252  0.2294
16257TIP3    H170262   0.523   3.539   6.462  2.1808  1.2520  2.1954
16257TIP3    H270263   0.450   3.617   6.569 -0.9283  1.5534  0.0007
16258TIP3   OH270264   1.124   3.535   3.065 -0.4044  0.0391  0.2201
16258TIP3    H170265   1.053   3.537   3.000 -1.4275 -0.3456  1.2841
16258TIP3    H270266   1.166   3.621   3.056 -1.4650  0.5643  0.0350
16259TIP3   OH270267   5.546   0.356   5.139 -0.2440 -0.2135 -0.1372
16259TIP3    H170268   5.611   0.419   5.170 -2.4203  1.3003  1.6690
16259TIP3    H270269   5.544   0.369   5.045  0.7467  1.0286 -0.0243
16260TIP3   OH270270   2.331   5.997  11.357  0.0278 -0.2220  0.1191
16260TIP3    H170271   2.380   6.073  11.387  1.6215 -1.2195  0.1946
16260TIP3    H270272   2.346   5.930  11.424 -0.9361 -0.7667 -0.1846
16261TIP3   OH270273   3.005   5.319  14.403  0.0377  0.6345  0.0293
16261TIP3    H170274   2.976   5.363  14.323  2.9241  1.8135 -0.4751
16261TIP3    H270275   3.060   5.247  14.373 -3.2616 -2.5999  0.9113
16262TIP3   OH270276   0.258   1.235   0.112 -0.1448  0.2094  0.0757
16262TIP3    H170277   0.244   1.150   0.152 -0.1981  0.8059  1.3788
16262TIP3    H270278   0.307   1.217   0.032  0.2429 -0.9924  0.5754
16263TIP3   OH270279   1.503   2.238  14.387 -1.0918  0.3859 -0.1104
16263TIP3    H170280   1.495   2.186  14.307  2.3060 -2.2019  0.9642
16263TIP3    H270281   1.572   2.301  14.367  1.0485 -1.4034  1.0795
16264TIP3   OH270282   6.174   6.169   1.024  0.6006 -0.4021  0.1790
16264TIP3    H170283   6.099   6.179   0.964  0.2429  1.0928  0.8312
16264TIP3    H270284   6.242   6.225   0.986 -0.0152  1.5189  1.6938
16265TIP3   OH270285   2.315   3.855   1.676  0.0708 -0.5719 -0.1749
16265TIP3    H170286   2.276   3.889   1.596  2.4656  0.1767 -1.1342
16265TIP3    H270287   2.378   3.790   1.645  0.3103 -1.0038  1.1784
16266TIP3   OH270288   1.966   3.712   6.036 -0.1841  0.5902 -0.6900
16266TIP3    H170289   1.901   3.682   5.973 -0.4411  0.1509 -0.2288
16266TIP3    H270290   2.006   3.788   5.995 -0.8295  0.7274 -1.0813
16267TIP3   OH270291   1.915   1.784   5.849  0.8183  0.2981  0.3281
16267TIP3    H170292   1.861   1.705   5.846 -0.2309  1.0140 -0.8699
16267TIP3    H270293   1.928   1.807   5.757  1.5600  1.2285  0.6478
16268TIP3   OH270294   2.756   2.782   0.049  0.4015  0.1212  0.4106
16268TIP3    H170295   2.787   2.787   0.139  0.8663  1.8743  0.1915
16268TIP3    H270296   2.834   2.797  -0.005  0.4182 -2.3643 -0.3585
16269TIP3   OH270297   4.764   5.672   5.533 -0.0532  1.0038  0.1265
16269TIP3    H170298   4.737   5.763   5.545 -0.1216  0.8050  1.7700
16269TIP3    H270299   4.687   5.628   5.498  0.4005  1.8128 -2.0552
16270TIP3   OH270300   1.371   2.210   1.825 -0.0097  0.0757  0.6174
16270TIP3    H170301   1.448   2.228   1.770 -2.0183  2.2890 -1.7481
16270TIP3    H270302   1.298   2.206   1.763 -1.7792 -2.9563  2.6459
16271TIP3   OH270303   5.977   6.585   4.556 -0.5320 -0.0336 -0.5477
16271TIP3    H170304   5.913   6.653   4.580 -1.0217 -0.6050 -0.1919
16271TIP3    H270305   6.031   6.626   4.489 -0.5586  0.8519 -0.0516
16272TIP3   OH270306   1.175   3.572   0.411 -0.8383  0.7332  0.2074
16272TIP3    H170307   1.096   3.523   0.389 -0.0413 -0.8749  0.7982
16272TIP3    H270308   1.217   3.589   0.326 -0.0163 -1.5871  0.0865
16273TIP3   OH270309   6.768   0.329   5.318 -0.6520  0.1508  0.0318
16273TIP3    H170310   6.780   0.317   5.224 -0.0392  0.6036  0.0448
16273TIP3    H270311   6.680   0.295   5.336  0.1968 -2.3640 -0.2565
16274TIP3   OH270312   5.062   0.134   6.519 -0.1412 -0.3095  0.4617
16274TIP3    H170313   5.048   0.227   6.502 -1.2114 -0.7957 -1.7583
16274TIP3    H270314   5.151   0.117   6.489 -0.4505 -0.2506 -0.5372
16275TIP3   OH270315   5.004   1.594   1.499  0.1727  0.1300 -0.3577
16275TIP3    H170316   5.090   1.610   1.538  1.5114 -0.7421 -2.7510
16275TIP3    H270317   4.977   1.678   1.465 -0.4822  0.6457  1.3221
16276TIP3   OH270318   3.919   5.128  15.077  0.0185 -0.7293 -0.3281
16276TIP3    H170319   3.997   5.115  15.023 -0.5609 -1.6230 -0.9702
16276TIP3    H270320   3.865   5.189  15.026  1.1801  1.6189  1.0743
16277TIP3   OH270321   2.064   2.984   5.157  0.8207  0.3649 -0.3711
16277TIP3    H170322   2.138   2.988   5.097  2.2771  0.4228  1.3581
16277TIP3    H270323   2.036   2.893   5.155  2.1029 -0.0630  0.2745
16278TIP3   OH270324   4.324   0.979  16.974  0.2255  0.5676 -0.5505
16278TIP3    H170325   4.274   1.001  17.053 -0.3633 -0.6368 -0.5733
16278TIP3    H270326   4.397   1.042  16.974  0.9051 -0.1363  1.5949
16279TIP3   OH270327   0.234   4.601  16.225 -0.4533  0.0929 -1.2198
16279TIP3    H170328   0.209   4.645  16.306 -1.4405 -0.2960 -1.3069
16279TIP3    H270329   0.205   4.660  16.156  0.7859  0.6386 -1.3150
16280TIP3   OH270330   5.666   5.095  13.893 -0.2200 -0.5853 -0.1473
16280TIP3    H170331   5.735   5.031  13.910 -0.6173 -1.3858 -1.3850
16280TIP3    H270332   5.702   5.151  13.824 -0.6992 -0.8392 -0.6088
16281TIP3   OH270333   4.356   6.280  14.708 -0.1250 -0.2353  0.1887
16281TIP3    H170334   4.322   6.368  14.690  1.5444 -0.2995 -4.6018
16281TIP3    H270335   4.437   6.296  14.756  0.3549  0.9169 -0.9499
16282TIP3   OH270336   3.471   0.753   0.947 -0.0109 -0.2468  0.1989
16282TIP3    H170337   3.433   0.740   1.034  0.6531 -1.9933  0.2562
16282TIP3    H270338   3.400   0.794   0.896 -0.5232  0.4702  1.4321
16283TIP3   OH270339   1.572   1.694   3.397  0.1101  0.0540  0.2840
16283TIP3    H170340   1.502   1.699   3.462 -0.9852 -0.7540 -0.7851
16283TIP3    H270341   1.544   1.625   3.337  1.5464  0.1289 -0.5263
16284TIP3   OH270342   3.622   0.852   0.675 -0.2175 -0.0381 -0.2978
16284TIP3    H170343   3.573   0.797   0.736  1.1847 -0.6406  0.3233
16284TIP3    H270344   3.597   0.942   0.698  2.6200  0.0202  3.4318
16285TIP3   OH270345   2.151   4.895   1.015 -0.2271 -0.1038 -0.4171
16285TIP3    H170346   2.104   4.847   0.946  0.9555 -0.6851 -0.8415
16285TIP3    H270347   2.243   4.870   1.003 -0.1461 -1.4503  2.3111
16286TIP3   OH270348   1.273   1.067   0.297  0.0570  0.4525  0.2131
16286TIP3    H170349   1.244   0.994   0.242  1.0602  0.1292  0.0979
16286TIP3    H270350   1.255   1.145   0.245 -1.4691  0.3395  0.5309
16287TIP3   OH270351   4.987   6.553   1.620 -0.1835 -0.2711 -0.3387
16287TIP3    H170352   5.023   6.626   1.570  0.0543 -0.3940 -0.3462
16287TIP3    H270353   4.943   6.595   1.695  3.0895 -0.2033  1.7446
16288TIP3   OH270354   2.362   0.336  10.687  0.0945  0.3946 -0.0675
16288TIP3    H170355   2.311   0.371  10.614  0.3132 -0.8077 -0.8218
16288TIP3    H270356   2.453   0.352  10.663  0.1420  1.0558  0.5116
16289TIP3   OH270357   4.043   1.797  13.718 -0.2473  0.3672  0.7580
16289TIP3    H170358   4.119   1.743  13.694 -0.6627  0.4242 -0.7287
16289TIP3    H270359   4.060   1.882  13.677 -1.9969 -0.1844 -1.2308
16290TIP3   OH270360   5.698   2.160  14.012  0.0958 -0.0762  1.0038
16290TIP3    H170361   5.667   2.251  14.015 -2.8711 -0.9653  0.6021
16290TIP3    H270362   5.741   2.152  13.927 -0.2016  0.7805  0.7657
16291TIP3   OH270363   1.605   6.652   1.676  0.3128 -0.2103 -0.3139
16291TIP3    H170364   1.647   6.653   1.590  1.5977  0.0572  0.3023
16291TIP3    H270365   1.566   6.739   1.685  0.0393 -0.2914 -0.6776
16292TIP3   OH270366   4.982   5.674   3.038  0.4264 -0.0830  0.1630
16292TIP3    H170367   4.987   5.598   2.980 -0.3068  0.1798 -0.2584
16292TIP3    H270368   5.071   5.709   3.040  1.4230 -2.4216  2.4323
16293TIP3   OH270369   5.528   3.011   5.865  0.6720 -0.2326 -0.3240
16293TIP3    H170370   5.597   2.947   5.884  1.0089  0.1939 -0.0856
16293TIP3    H270371   5.564   3.095   5.896  1.3293  0.5632 -3.0242
16294TIP3   OH270372   5.987   6.306  16.836 -0.1504  0.1308  0.2020
16294TIP3    H170373   5.988   6.316  16.741  0.9073  0.1803  0.2045
16294TIP3    H270374   5.916   6.363  16.865  1.1428  2.1656 -0.3691
16295TIP3   OH270375   4.369   2.316  15.486 -0.4535  0.2668  0.0181
16295TIP3    H170376   4.338   2.249  15.425 -1.0255 -0.0138  0.6076
16295TIP3    H270377   4.416   2.267  15.554 -0.0416  0.5528 -0.0548
16296TIP3   OH270378   2.630   3.651   2.952 -0.0896  0.1337 -0.4236
16296TIP3    H170379   2.664   3.622   3.037  1.2957  0.5499 -0.7978
16296TIP3    H270380   2.640   3.747   2.955 -1.0853  0.2448 -0.6267
16297TIP3   OH270381   4.551   3.923   4.265  0.3881  0.5191 -0.1930
16297TIP3    H170382   4.601   3.999   4.235  0.8890 -0.2943 -1.5189
16297TIP3    H270383   4.612   3.850   4.257 -0.6502 -0.3067 -0.7177
16298TIP3   OH270384   4.488   5.695  15.493 -0.3677 -0.0551 -0.5099
16298TIP3    H170385   4.466   5.744  15.413 -1.3072  1.1624  0.4645
16298TIP3    H270386   4.582   5.710  15.504 -0.6838  1.8795 -0.0462
16299TIP3   OH270387   3.037   3.806  15.331 -0.5137 -0.1728 -0.3408
16299TIP3    H170388   2.995   3.866  15.393  0.4900  0.6023 -0.3849
16299TIP3    H270389   3.118   3.779  15.375 -1.4102 -2.3339  0.1192
16300TIP3   OH270390   5.660   1.961   4.381  0.1738 -0.1639  0.0941
16300TIP3    H170391   5.610   2.015   4.442 -1.8759 -1.1965 -0.5941
16300TIP3    H270392   5.608   1.882   4.369  2.9865 -2.3532  0.9657
16301TIP3   OH270393   5.643   2.921   1.939 -0.4173 -0.5303 -0.3768
16301TIP3    H170394   5.666   2.905   2.030  1.0857 -0.3211 -0.6924
16301TIP3    H270395   5.719   2.890   1.889  0.2176  2.2853 -1.3480
16302TIP3   OH270396   1.002   5.984   1.194  0.1535  0.4247 -0.1275
16302TIP3    H170397   1.076   5.930   1.223 -0.5145 -0.3144  0.2481
16302TIP3    H270398   0.954   5.928   1.133 -0.5898  0.5620  0.3144
16303TIP3   OH270399   5.062   3.013   2.495  0.0784  0.1500  0.2163
16303TIP3    H170400   5.029   3.088   2.445 -0.2127 -0.2087 -0.1297
16303TIP3    H270401   5.141   2.986   2.447 -0.5947 -0.6466 -0.4882
16304TIP3   OH270402   3.666   3.871  13.363 -0.2590 -0.2300  0.0943
16304TIP3    H170403   3.652   3.790  13.315 -0.0259  0.8723 -1.9638
16304TIP3    H270404   3.581   3.915  13.362 -0.1370  0.0181  0.3033
16305TIP3   OH270405   6.787   5.663   4.370 -0.0137 -0.1353 -0.5323
16305TIP3    H170406   6.759   5.662   4.462 -0.4329 -0.3921 -0.6560
16305TIP3    H270407   6.739   5.736   4.331  0.3741  0.1459 -0.4879
16306TIP3   OH270408   3.343   2.632  11.651  0.0067  0.5555 -0.3083
16306TIP3    H170409   3.290   2.677  11.718 -1.6423 -0.7865 -0.6333
16306TIP3    H270410   3.279   2.598  11.589  1.4351  0.7660 -1.9718
16307TIP3   OH270411   3.291   2.072   1.597  0.8860  0.8054  0.4905
16307TIP3    H170412   3.224   2.085   1.530  2.0413 -0.5359 -1.0328
16307TIP3    H270413   3.371   2.106   1.557  1.2049  2.2610  2.2156
16308TIP3   OH270414   2.013   3.341   6.458 -0.2601  0.3411 -0.1626
16308TIP3    H170415   1.996   3.274   6.525 -0.8015  0.1894 -0.4513
16308TIP3    H270416   2.089   3.389   6.492 -1.7248  1.5862  1.5767
16309TIP3   OH270417   3.888   5.888   0.044  0.2304  0.1030  0.2546
16309TIP3    H170418   3.816   5.857   0.098  0.7810 -0.8794  0.4573
16309TIP3    H270419   3.957   5.910   0.106  0.5102 -0.0485 -0.0005
16310TIP3   OH270420   1.382   3.727  14.371 -0.5516  0.2671 -0.3417
16310TIP3    H170421   1.407   3.639  14.400 -0.4568 -0.5065 -2.5827
16310TIP3    H270422   1.464   3.777  14.373 -0.6195  0.3751  1.0131
16311TIP3   OH270423   4.310   1.031  12.270  0.1191 -0.3149 -0.3297
16311TIP3    H170424   4.389   1.076  12.300  0.4507 -2.3658  2.2237
16311TIP3    H270425   4.337   0.941  12.255 -1.4821 -0.7954 -0.5983
16312TIP3   OH270426   6.480   2.271   5.545 -0.1017 -0.4403  0.1786
16312TIP3    H170427   6.470   2.185   5.504  0.7276 -0.5247  0.1340
16312TIP3    H270428   6.402   2.319   5.519  0.3294 -0.5459 -1.4057
16313TIP3   OH270429   1.236   5.466   0.674 -0.4565  0.2558 -0.3102
16313TIP3    H170430   1.183   5.389   0.694  0.2397  0.4017  2.3480
16313TIP3    H270431   1.326   5.436   0.683 -0.1481  1.0483 -0.6773
16314TIP3   OH270432   3.187   5.951   0.885 -0.0112  0.5439  0.1538
16314TIP3    H170433   3.233   5.977   0.805 -2.1225 -0.7319 -1.5950
16314TIP3    H270434   3.178   5.856   0.879 -0.5692  0.4651  1.7156
16315TIP3   OH270435   3.630   0.044  16.004  0.0632 -0.7883  0.1833
16315TIP3    H170436   3.556   0.095  16.038  0.8245  0.6514 -0.2472
16315TIP3    H270437   3.694   0.043  16.076  0.0128 -1.2369  0.2244
16316TIP3   OH270438   3.833   2.529  15.771 -0.0594 -0.0409 -0.0674
16316TIP3    H170439   3.779   2.491  15.840  1.2298 -1.2278  0.3323
16316TIP3    H270440   3.802   2.488  15.690 -1.3199  1.0737 -0.1902
16317TIP3   OH270441   1.106   3.295  16.337 -0.2822  0.2221  0.1676
16317TIP3    H170442   1.140   3.262  16.254  0.9356 -0.1633  0.7871
16317TIP3    H270443   1.011   3.286  16.330 -0.2332  0.5515 -1.3199
16318TIP3   OH270444   6.652   1.008   3.211 -0.4706  0.5582  0.2322
16318TIP3    H170445   6.726   1.068   3.206 -1.1233  1.3858  0.2519
16318TIP3    H270446   6.690   0.921   3.195  0.3621  1.0582 -0.6151
16319TIP3   OH270447   2.837   0.095  13.776  0.4798 -0.0381 -0.0315
16319TIP3    H170448   2.861   0.187  13.765 -0.7880  0.2872 -0.1285
16319TIP3    H270449   2.888   0.049  13.709 -1.0249  0.9567 -1.9618
16320TIP3   OH270450   5.147   5.795  10.721 -0.2044  0.1478 -0.5559
16320TIP3    H170451   5.129   5.760  10.634  1.8535  2.1518 -1.9109
16320TIP3    H270452   5.203   5.729  10.763 -0.8479 -0.6264 -0.9010
16321TIP3   OH270453   4.914   0.864   1.105  0.0743  0.4189 -0.2266
16321TIP3    H170454   4.965   0.851   1.186  0.6656 -0.1604 -0.6818
16321TIP3    H270455   4.974   0.910   1.047 -0.4336  1.0400 -0.2586
16322TIP3   OH270456   3.204   6.175  17.108  0.9364  0.4940 -0.6553
16322TIP3    H170457   3.260   6.164  17.185 -1.5719 -0.3474  1.1904
16322TIP3    H270458   3.207   6.090  17.064  0.5546  0.2101 -0.1424
16323TIP3   OH270459   6.681   2.198  12.442  0.3879 -0.4451  0.3475
16323TIP3    H170460   6.667   2.292  12.450  0.3186 -0.2501 -1.6310
16323TIP3    H270461   6.737   2.176  12.517 -2.1948  0.5292  2.7391
16324TIP3   OH270462   0.099   1.845  13.768 -0.0776 -0.8227  0.4502
16324TIP3    H170463   0.056   1.790  13.833 -0.0516 -0.0340  1.1672
16324TIP3    H270464   0.042   1.922  13.760 -0.9743 -1.6426 -1.7464
16325TIP3   OH270465   5.068   4.460   2.129 -0.4059  0.9140  0.1612
16325TIP3    H170466   5.023   4.484   2.048 -0.8853 -2.0730 -0.5635
16325TIP3    H270467   5.144   4.519   2.133 -0.7235  1.5635 -2.1298
16326TIP3   OH270468   4.058   3.171   0.348 -0.4877 -0.6293  0.3569
16326TIP3    H170469   4.125   3.152   0.414 -0.7118 -0.3986  0.6524
16326TIP3    H270470   4.057   3.094   0.292  2.3547  0.6135 -1.6646
16327TIP3   OH270471   6.605   6.362  12.244 -0.1059  0.1985  0.4691
16327TIP3    H170472   6.634   6.433  12.186 -0.4650  0.1303  0.2073
16327TIP3    H270473   6.681   6.303  12.247 -0.3823 -0.2378 -0.6256
16328TIP3   OH270474   5.775   4.974   2.484  0.2848  0.4430  0.1650
16328TIP3    H170475   5.812   5.061   2.475  0.5870  0.2531 -0.4843
16328TIP3    H270476   5.825   4.920   2.422  0.2723 -0.2416  0.7310
16329TIP3   OH270477   1.964   2.583   3.527 -0.1490 -0.7298  0.7379
16329TIP3    H170478   1.979   2.676   3.508 -1.3415 -0.2005  2.2464
16329TIP3    H270479   1.913   2.582   3.607  2.0020 -2.7840  2.2240
16330TIP3   OH270480   4.339   2.024  16.413  0.2711  0.4399  0.1228
16330TIP3    H170481   4.298   2.010  16.328 -0.6534  2.3061  0.2175
16330TIP3    H270482   4.316   1.946  16.464  1.1239 -0.8695 -1.3885
16331TIP3   OH270483   5.365   2.483   0.109  1.0307 -0.0075 -0.3357
16331TIP3    H170484   5.349   2.572   0.139  1.2424  0.5457 -1.7820
16331TIP3    H270485   5.284   2.456   0.066  0.0063 -1.5297  2.2736
16332TIP3   OH270486   0.322   5.531  16.586 -0.5144  0.4300 -0.8155
16332TIP3    H170487   0.415   5.554  16.582  0.0469 -1.8257 -2.2647
16332TIP3    H270488   0.287   5.558  16.501 -0.7961 -0.1802 -0.8974
16333TIP3   OH270489   2.678   3.677   5.346 -0.2533  0.2197  0.3604
16333TIP3    H170490   2.604   3.625   5.377  0.0987  0.5028  1.7535
16333TIP3    H270491   2.648   3.768   5.354 -0.4764  0.2900 -1.0341
16334TIP3   OH270492   4.914   1.655  15.145  0.0943  0.8949  0.8161
16334TIP3    H170493   4.902   1.584  15.082  0.2083  0.8146  0.8832
16334TIP3    H270494   4.956   1.613  15.220  0.2607  1.0551  0.8123
16335TIP3   OH270495   3.072   5.728  11.139  0.2490 -0.2065 -0.0786
16335TIP3    H170496   3.090   5.674  11.062 -0.2311  0.1184 -0.4258
16335TIP3    H270497   3.159   5.752  11.172  0.4604 -0.2376 -0.5977
16336TIP3   OH270498   4.114   1.669   5.890 -0.0027 -0.0814  0.0939
16336TIP3    H170499   4.098   1.762   5.875  1.5717  0.0529 -1.0058
16336TIP3    H270500   4.193   1.668   5.946 -0.1430 -0.7511  0.2827
16337TIP3   OH270501   3.119   6.760   2.803 -0.3851 -0.3106  0.1453
16337TIP3    H170502   3.128   6.676   2.758  0.0836 -0.0858 -0.1847
16337TIP3    H270503   3.142   6.740   2.894 -1.1032 -0.7151  0.2482
16338TIP3   OH270504   3.756   5.452  16.428  0.0651 -0.1355 -0.1328
16338TIP3    H170505   3.809   5.376  16.450 -0.7973 -0.7535 -0.1301
16338TIP3    H270506   3.739   5.495  16.512 -0.0723 -0.3712 -0.0372
16339TIP3   OH270507   4.288   6.556  14.431 -0.6883 -0.2330 -0.1755
16339TIP3    H170508   4.248   6.513  14.507 -0.5208 -2.4692 -1.2860
16339TIP3    H270509   4.364   6.602  14.468 -2.0282  0.9012  1.3609
16340TIP3   OH270510   0.858   0.819   0.615 -0.7672  0.0220 -0.0763
16340TIP3    H170511   0.828   0.840   0.704  1.3537  1.3244  0.3909
16340TIP3    H270512   0.943   0.776   0.628 -0.5936 -0.0804 -1.4704
16341TIP3   OH270513   0.437   6.134  11.126  0.1328 -0.7878 -0.1033
16341TIP3    H170514   0.513   6.188  11.104 -0.3701 -0.1858 -0.3793
16341TIP3    H270515   0.467   6.044  11.112  1.2157 -0.6394  1.0786
16342TIP3   OH270516   4.628   5.617  16.747  0.7389  0.1445 -0.2161
16342TIP3    H170517   4.648   5.707  16.772  1.5797 -0.2041  0.4015
16342TIP3    H270518   4.654   5.564  16.822 -0.4676 -0.5574 -0.2592
16343TIP3   OH270519   3.531   1.219   4.328 -0.3827 -0.2836 -0.1265
16343TIP3    H170520   3.593   1.278   4.371  0.5461 -0.2363 -1.4803
16343TIP3    H270521   3.451   1.270   4.319  0.8373  1.3565 -2.6083
16344TIP3   OH270522   1.585   6.789   4.688 -0.2008 -0.4360  0.2050
16344TIP3    H170523   1.593   6.827   4.600  0.8487  1.6379  1.1156
16344TIP3    H270524   1.495   6.808   4.714  0.6002  2.7611  1.1026
16345TIP3   OH270525   6.520   0.338  12.245  0.5123 -0.2155  0.1146
16345TIP3    H170526   6.539   0.384  12.163 -0.7660 -2.0233 -1.2808
16345TIP3    H270527   6.521   0.245  12.221  0.8490 -0.8444  2.3362
16346TIP3   OH270528   0.135   4.945  14.121 -0.0739  0.2824 -0.3096
16346TIP3    H170529   0.169   5.005  14.188 -0.5617  0.0016  0.1963
16346TIP3    H270530   0.201   4.946  14.053  0.3654  0.6888  0.1121
16347TIP3   OH270531   0.636   1.577   2.870  0.6235  0.6117 -0.6109
16347TIP3    H170532   0.711   1.519   2.880 -0.1564 -0.4813 -0.8302
16347TIP3    H270533   0.619   1.578   2.776 -0.2816 -0.0403 -0.4711
16348TIP3   OH270534   0.356   4.359  16.618 -0.6763 -0.1041  0.3778
16348TIP3    H170535   0.408   4.284  16.588 -0.3078  0.7404 -1.2485
16348TIP3    H270536   0.344   4.412  16.539  0.7609  2.5591  1.8208
16349TIP3   OH270537   3.619   0.184   1.126 -0.1826  0.3171 -0.2579
16349TIP3    H170538   3.533   0.214   1.157 -0.5725 -3.2933  2.8384
16349TIP3    H270539   3.599   0.104   1.077  1.3229  0.6409 -1.4656
16350TIP3   OH270540   1.866   0.346  12.528 -0.1237 -0.9818 -0.0972
16350TIP3    H170541   1.865   0.252  12.548 -2.2647 -1.1870 -0.9072
16350TIP3    H270542   1.904   0.352  12.441 -0.2815 -1.1286 -0.1762
16351TIP3   OH270543   5.287   3.023  16.286 -0.3509 -0.1755 -0.0389
16351TIP3    H170544   5.340   3.102  16.294  1.0568 -1.2450  2.1338
16351TIP3    H270545   5.351   2.952  16.281 -1.5418 -1.3998  1.2168
16352TIP3   OH270546   6.838   2.160   1.095  0.3685  0.4689 -0.7674
16352TIP3    H170547   6.866   2.252   1.092  1.5874  0.1383 -0.0854
16352TIP3    H270548   6.836   2.132   1.003  0.2551  1.0977 -0.9604
16353TIP3   OH270549   0.839   4.397  16.512 -0.3070 -0.5906 -0.3343
16353TIP3    H170550   0.792   4.480  16.511 -0.2685 -0.5313  1.3871
16353TIP3    H270551   0.931   4.422  16.504 -0.0024 -0.1691  3.0420
16354TIP3   OH270552   5.775   0.298   3.944 -0.7505  0.1892 -0.1713
16354TIP3    H170553   5.861   0.308   3.904 -0.4233  1.6460  0.8314
16354TIP3    H270554   5.731   0.232   3.890  0.5596  0.2893 -1.4099
16355TIP3   OH270555   2.410   5.159   3.107  0.5036 -0.3665 -0.1147
16355TIP3    H170556   2.382   5.096   3.174 -1.4379  0.2497 -0.2938
16355TIP3    H270557   2.403   5.244   3.150  2.1036 -0.1507 -0.2089
16356TIP3   OH270558   6.103   0.407   5.337  0.1744  0.4701  0.6303
16356TIP3    H170559   6.179   0.453   5.301  0.8415 -0.4768  0.7855
16356TIP3    H270560   6.034   0.419   5.272  0.3566  1.5866  0.6246
16357TIP3   OH270561   5.399   5.801   6.557  0.6484 -0.5003 -0.6735
16357TIP3    H170562   5.489   5.828   6.576  0.2081  1.2438 -0.8690
16357TIP3    H270563   5.346   5.877   6.582 -0.7311 -1.3334 -0.9835
16358TIP3   OH270564   1.987   2.854  11.435 -0.2237 -0.3710 -0.1897
16358TIP3    H170565   2.017   2.775  11.480 -1.3998 -0.5120  0.3867
16358TIP3    H270566   2.062   2.913  11.437 -0.3807 -0.1356  2.5110
16359TIP3   OH270567   0.380   5.126  14.903 -0.3763 -0.3299  0.5659
16359TIP3    H170568   0.410   5.106  14.992  1.1673  0.9225  0.3685
16359TIP3    H270569   0.411   5.053  14.850  0.4179 -0.1245  0.7425
16360TIP3   OH270570   4.590   1.765   2.635 -0.2220 -0.3225 -0.1354
16360TIP3    H170571   4.584   1.670   2.639  2.1386 -0.8071 -3.4069
16360TIP3    H270572   4.655   1.788   2.700 -0.7276 -0.9453  0.6038
16361TIP3   OH270573   2.283   6.075  15.298  1.1072  0.2391  0.2766
16361TIP3    H170574   2.263   6.011  15.230 -0.1150  0.8510  0.0444
16361TIP3    H270575   2.241   6.156  15.269  0.2943  0.4410  1.8861
16362TIP3   OH270576   4.375   6.185   3.132  0.0131  0.3963  0.1983
16362TIP3    H170577   4.323   6.251   3.087 -1.8112 -1.5987 -0.8019
16362TIP3    H270578   4.406   6.128   3.062  2.8293  0.9421  0.8738
16363TIP3   OH270579   6.562   0.984  15.102  0.4130 -0.3553 -0.4543
16363TIP3    H170580   6.591   0.897  15.131  2.1061  0.9789  2.2405
16363TIP3    H270581   6.523   1.023  15.180 -1.2480  1.0138 -1.8812
16364TIP3   OH270582   6.329   0.752  15.150  0.0839  0.5941  0.9214
16364TIP3    H170583   6.300   0.841  15.166  0.0777  0.3409  2.4738
16364TIP3    H270584   6.414   0.745  15.195  0.6479  0.1498 -0.1665
16365TIP3   OH270585   0.521   3.944  17.094  0.1371 -0.1104  0.0638
16365TIP3    H170586   0.593   3.985  17.142  0.0135 -0.2768  0.3909
16365TIP3    H270587   0.448   3.942  17.156  0.9636 -3.5107  1.1484
16366TIP3   OH270588   5.289   4.938  11.334 -0.3751  0.4956 -0.2156
16366TIP3    H170589   5.306   4.986  11.415 -2.4627  1.6166 -0.3630
16366TIP3    H270590   5.336   4.987  11.266  2.8875 -1.4439  0.4152
16367TIP3   OH270591   1.639   3.551   4.837  0.3440 -0.5630 -0.3600
16367TIP3    H170592   1.615   3.570   4.928 -0.4210  0.4557 -0.7459
16367TIP3    H270593   1.575   3.486   4.809  0.7737 -1.1133 -0.0895
16368TIP3   OH270594   3.994   1.195  11.773 -0.0124  0.0621 -0.1935
16368TIP3    H170595   4.032   1.281  11.753  0.8442 -0.0203  0.9781
16368TIP3    H270596   4.039   1.135  11.714 -1.0234  0.4738 -1.4242
16369TIP3   OH270597   0.396   4.438   2.924  0.1717 -0.4720  0.4572
16369TIP3    H170598   0.345   4.494   2.983  0.7455 -0.4527  0.9474
16369TIP3    H270599   0.353   4.353   2.927 -1.9881  0.4184 -1.9059
16370TIP3   OH270600   4.825   1.706   5.804 -0.0462  0.3097  0.0047
16370TIP3    H170601   4.788   1.726   5.718  2.2922  1.3155 -0.8684
16370TIP3    H270602   4.750   1.702   5.863 -1.6362  0.5397 -1.9042
16371TIP3   OH270603   0.754   2.047   5.351  0.4283 -0.4928  0.1148
16371TIP3    H170604   0.730   2.060   5.442 -0.8865  0.7153 -0.3721
16371TIP3    H270605   0.742   1.953   5.336 -2.7103 -0.2056  0.3197
16372TIP3   OH270606   3.426   4.381  12.123 -0.2527  0.0931  0.1000
16372TIP3    H170607   3.407   4.397  12.031  2.0244 -2.6866 -1.0250
16372TIP3    H270608   3.495   4.445  12.145  0.3120 -0.2458 -0.6400
16373TIP3   OH270609   2.693   0.856  13.034  0.0878 -0.2831 -0.1035
16373TIP3    H170610   2.743   0.823  12.959 -1.6112 -2.5883 -0.3152
16373TIP3    H270611   2.697   0.787  13.099  1.1269  1.4921  1.8214
16374TIP3   OH270612   3.081   2.189  12.298 -0.1691 -0.0599 -0.6138
16374TIP3    H170613   3.162   2.205  12.250 -0.1958  0.2879 -0.5455
16374TIP3    H270614   3.079   2.094  12.311  0.6815  0.0222  0.1881
16375TIP3   OH270615   3.855   0.463  16.219  0.3724 -0.0107 -0.0912
16375TIP3    H170616   3.849   0.548  16.175 -2.1470 -0.1748 -0.2124
16375TIP3    H270617   3.847   0.484  16.312  0.2539 -0.0647 -0.0892
16376TIP3   OH270618   5.626   6.641  14.570 -0.1734  0.5085  0.3258
16376TIP3    H170619   5.718   6.615  14.570  0.0416  1.2396  0.0874
16376TIP3    H270620   5.579   6.565  14.534  0.3665  0.2349  0.1945
16377TIP3   OH270621   2.968   5.283  15.010 -0.1057  0.2578  0.1574
16377TIP3    H170622   2.902   5.266  15.077  0.4952  0.7063  0.8813
16377TIP3    H270623   2.960   5.210  14.949 -1.2598  0.3012  0.2326
16378TIP3   OH270624   0.324   4.299  14.254  0.3811 -0.7691  0.1741
16378TIP3    H170625   0.289   4.225  14.206  0.6737 -0.9298  0.2073
16378TIP3    H270626   0.344   4.264  14.341 -1.1849 -0.2240  0.7903
16379TIP3   OH270627   6.647   5.899  11.223 -0.2814  0.4610  0.4198
16379TIP3    H170628   6.674   5.827  11.279 -2.2225 -0.0349  0.7647
16379TIP3    H270629   6.632   5.859  11.137 -0.3507  0.6504  0.3415
16380TIP3   OH270630   6.128   4.702  14.475 -0.3355 -0.1298 -0.0489
16380TIP3    H170631   6.174   4.651  14.542 -0.8072 -2.5579 -1.4758
16380TIP3    H270632   6.079   4.768  14.525  2.1743  0.5648  1.7035
16381TIP3   OH270633   1.617   6.582  15.851  0.8190  0.3780 -0.3235
16381TIP3    H170634   1.544   6.602  15.793  0.4663 -1.3029 -0.5128
16381TIP3    H270635   1.672   6.522  15.801  1.2628  0.0302  0.5486
16382TIP3   OH270636   0.618   3.538   3.475  0.0168  0.1697 -0.2482
16382TIP3    H170637   0.678   3.599   3.518 -0.5215  0.7773 -0.3653
16382TIP3    H270638   0.667   3.507   3.398  0.4232  0.1693  0.0054
16383TIP3   OH270639   5.724   4.831   1.627 -0.3150  0.1699  0.4764
16383TIP3    H170640   5.745   4.924   1.641  0.5462  0.2988 -1.3521
16383TIP3    H270641   5.805   4.793   1.593 -1.3493 -0.6594 -1.1918
16384TIP3   OH270642   2.351   3.560  14.741  0.0331 -0.3895  0.1448
16384TIP3    H170643   2.415   3.490  14.751 -0.3100 -0.7822 -0.3474
16384TIP3    H270644   2.374   3.602  14.659  1.2998  1.2087  1.2496
16385TIP3   OH270645   2.998   5.209  13.524  0.5643  0.4450 -0.1102
16385TIP3    H170646   3.045   5.278  13.478  2.3291 -1.5907 -1.5581
16385TIP3    H270647   2.920   5.194  13.471  0.4962  0.8586 -0.1336
16386TIP3   OH270648   6.638   1.067   6.058 -0.0001 -0.4626  0.2190
16386TIP3    H170649   6.588   1.105   6.130  0.2690 -0.2980  0.3217
16386TIP3    H270650   6.679   0.989   6.097  0.4434 -0.1708  0.3513
16387TIP3   OH270651   2.910   2.812   5.603  0.2110 -0.0777 -0.0734
16387TIP3    H170652   2.864   2.810   5.688  1.2853  0.8827  0.5672
16387TIP3    H270653   2.957   2.729   5.599 -0.0596 -0.2437  0.1558
16388TIP3   OH270654   2.692   1.212  15.738  0.4172  0.0565  0.1924
16388TIP3    H170655   2.640   1.132  15.730 -0.3110  0.6026 -0.8992
16388TIP3    H270656   2.742   1.201  15.818  0.6140 -1.6466 -0.1384
16389TIP3   OH270657   2.020   4.023  14.904  0.1272  0.3653 -0.0037
16389TIP3    H170658   2.044   4.047  14.993 -2.0495 -1.1360  1.0777
16389TIP3    H270659   1.924   4.020  14.905  0.0554 -0.1688 -2.2686
16390TIP3   OH270660   4.226   0.067  15.448  0.5716  0.4401  0.1952
16390TIP3    H170661   4.245   0.069  15.542  0.4637 -0.8980  0.2539
16390TIP3    H270662   4.302   0.023  15.409 -0.7368 -1.8063  0.0319
16391TIP3   OH270663   3.708   0.753  15.782  0.0819  0.5256  0.0364
16391TIP3    H170664   3.699   0.793  15.696 -0.9670  0.1009 -0.0698
16391TIP3    H270665   3.803   0.749  15.797  0.2419  2.3204 -0.2645
16392TIP3   OH270666   4.073   5.243  15.709  0.1898  0.2205 -0.1689
16392TIP3    H170667   4.161   5.230  15.673  0.5430  1.6264  0.1358
16392TIP3    H270668   4.014   5.221  15.638  0.7999 -0.1945 -0.5556
16393TIP3   OH270669   2.930   2.029  16.691  0.4455  0.1394 -0.2920
16393TIP3    H170670   2.849   1.978  16.702 -0.6969  2.0664  1.0818
16393TIP3    H270671   2.926   2.062  16.601  2.0821 -3.4455 -1.8220
16394TIP3   OH270672   2.967   2.552  11.158  0.2964 -0.2823 -0.4259
16394TIP3    H170673   2.933   2.462  11.161 -0.0047 -0.1575 -0.1103
16394TIP3    H270674   3.018   2.555  11.077  1.1266 -1.0223  0.0557
16395TIP3   OH270675   1.994   2.794  12.955 -0.6587  0.3980  0.0663
16395TIP3    H170676   2.059   2.790  13.025  0.3017  0.3110 -0.8080
16395TIP3    H270677   1.934   2.722  12.973  0.1560 -0.2463  0.2414
16396TIP3   OH270678   5.148   6.302  12.145 -0.3930  0.1478  0.7946
16396TIP3    H170679   5.184   6.353  12.218  0.8575 -0.3463  0.5312
16396TIP3    H270680   5.217   6.302  12.079 -0.7214 -1.1305  0.4311
16397TIP3   OH270681   1.309   4.535   3.699  0.0404 -0.6905 -0.0551
16397TIP3    H170682   1.247   4.600   3.730  3.3833  2.7033  0.3145
16397TIP3    H270683   1.317   4.472   3.771 -1.9371 -0.5236  0.3604
16398TIP3   OH270684   6.034   5.090  11.458  0.3716 -0.6670 -0.0671
16398TIP3    H170685   6.013   5.101  11.365  1.5052 -1.2807 -0.4140
16398TIP3    H270686   5.989   5.010  11.484 -0.8486  0.0863  0.2195
16399TIP3   OH270687   3.163   1.541   1.229 -0.4727  0.2495 -0.5005
16399TIP3    H170688   3.256   1.545   1.206 -0.1583  1.2976  0.8648
16399TIP3    H270689   3.125   1.619   1.189 -0.3420  0.9275  0.6599
16400TIP3   OH270690   2.047   1.731   0.361 -0.1527  0.5817 -0.2052
16400TIP3    H170691   1.970   1.675   0.347  0.0641 -0.3620  1.9119
16400TIP3    H270692   2.011   1.819   0.372 -0.5214  0.9518 -3.3668
16401TIP3   OH270693   5.407   2.355  14.916 -0.3525 -0.7660  0.3609
16401TIP3    H170694   5.340   2.300  14.958  0.2760 -1.8523 -0.0039
16401TIP3    H270695   5.435   2.416  14.984 -0.8262 -1.1343  0.8905
16402TIP3   OH270696   6.740   0.466  15.507  0.5230  0.7172 -0.1752
16402TIP3    H170697   6.691   0.437  15.584 -0.6597  1.1543 -0.7443
16402TIP3    H270698   6.771   0.554  15.529  1.1983  0.3878  0.2369
16403TIP3   OH270699   3.602   3.800  10.195 -0.6226 -0.9236  0.1062
16403TIP3    H170700   3.607   3.808  10.290 -0.9944  0.6697  0.0139
16403TIP3    H270701   3.514   3.829  10.172 -1.4220 -3.5632 -0.5613
16404TIP3   OH270702   3.094   6.422  13.290 -0.2089  0.5319 -0.4345
16404TIP3    H170703   3.084   6.406  13.196 -1.9886 -1.2087 -0.0361
16404TIP3    H270704   3.033   6.360  13.331 -0.3187  2.0164  1.8281
16405TIP3   OH270705   3.206   1.314   3.181  0.2069  0.0050 -0.7198
16405TIP3    H170706   3.201   1.406   3.154 -1.7271  0.1877  0.0800
16405TIP3    H270707   3.129   1.301   3.237  0.1171 -2.2444 -1.2574
16406TIP3   OH270708   4.072   4.592   6.644 -0.3691 -0.4244  0.0793
16406TIP3    H170709   4.155   4.550   6.665  0.2363  0.8027  0.2213
16406TIP3    H270710   4.089   4.685   6.654 -2.1551 -0.1960  1.5758
16407TIP3   OH270711   6.695   1.901  11.332  0.1974  0.5193 -0.1752
16407TIP3    H170712   6.733   1.849  11.262  0.2841  0.1833  0.1156
16407TIP3    H270713   6.746   1.877  11.410  0.0660  0.8441  0.0131
16408TIP3   OH270714   2.200   1.124  14.076  0.1206 -0.4673 -0.1654
16408TIP3    H170715   2.237   1.045  14.115  0.0725  0.1156  1.0933
16408TIP3    H270716   2.256   1.195  14.106  0.0854  0.0156 -1.1749
16409TIP3   OH270717   0.379   0.556  12.909  0.0080 -0.0209  0.5574
16409TIP3    H170718   0.326   0.607  12.970  1.2983  1.0392  0.8482
16409TIP3    H270719   0.384   0.469  12.947  1.8481  0.9303  2.6928
16410TIP3   OH270720   0.322   1.559  13.918  0.6786 -0.1655  0.0389
16410TIP3    H170721   0.293   1.503  13.845 -1.3015 -0.4060  0.9487
16410TIP3    H270722   0.389   1.615  13.879 -0.4446 -0.1484 -2.0459
16411TIP3   OH270723   3.401   4.102   1.814  0.5798 -0.5696 -0.2588
16411TIP3    H170724   3.375   4.048   1.888  2.5022 -1.7452 -0.3919
16411TIP3    H270725   3.397   4.192   1.848 -1.6017 -0.8025  0.2789
16412TIP3   OH270726   0.219   5.281   0.276  0.3344  0.3261  0.1548
16412TIP3    H170727   0.246   5.369   0.301  0.8737  0.1326  0.2587
16412TIP3    H270728   0.301   5.237   0.252  0.0744 -0.1694  0.1786
16413TIP3   OH270729   0.558   2.840   0.543 -0.1043  0.0438  0.1540
16413TIP3    H170730   0.651   2.832   0.521 -0.2004  0.1866 -0.3201
16413TIP3    H270731   0.556   2.839   0.638  0.1919 -2.2360  0.1881
16414TIP3   OH270732   1.188   3.190  12.501  0.5795  0.6080  0.1088
16414TIP3    H170733   1.196   3.249  12.576  1.6554  0.2060  0.3253
16414TIP3    H270734   1.123   3.232  12.445 -0.5006  0.7491  1.4090
16415TIP3   OH270735   5.317   1.625   1.550 -0.1733  0.0079  0.2127
16415TIP3    H170736   5.264   1.697   1.585  1.1141  1.0661  0.0680
16415TIP3    H270737   5.401   1.666   1.527  1.5060 -1.9318  2.3293
16416TIP3   OH270738   0.407   4.428   2.652  0.2354  0.3560 -0.6067
16416TIP3    H170739   0.322   4.400   2.616  1.1367  0.5079 -3.0249
16416TIP3    H270740   0.401   4.408   2.745 -2.4733  0.4066 -0.6850
16417TIP3   OH270741   3.502   3.969  14.276 -0.0476 -0.4356 -0.2581
16417TIP3    H170742   3.443   4.006  14.341 -0.5175 -1.8149  0.1338
16417TIP3    H270743   3.544   4.045  14.235 -1.6673  0.5558 -0.1553
16418TIP3   OH270744   2.184   5.395   0.846 -0.1413 -0.2589  0.1179
16418TIP3    H170745   2.138   5.428   0.923 -1.2595  0.2170 -0.7158
16418TIP3    H270746   2.130   5.322   0.815  0.7634 -1.0061  0.2780
16419TIP3   OH270747   0.150   4.321  14.557 -0.0943 -0.3550 -0.0554
16419TIP3    H170748   0.194   4.319  14.642 -0.9421 -2.2496  0.4200
16419TIP3    H270749   0.070   4.371  14.573  0.0367 -0.1986  0.1116
16420TIP3   OH270750   0.980   0.887   2.680 -0.3435 -0.3743  0.1934
16420TIP3    H170751   1.060   0.940   2.676  0.2430 -1.1314  1.3352
16420TIP3    H270752   0.958   0.869   2.589 -0.1216  1.1637 -0.1963
16421TIP3   OH270753   1.321   4.761   6.731 -0.1411  0.7082  0.2886
16421TIP3    H170754   1.269   4.803   6.800 -1.1088  1.4409 -0.8584
16421TIP3    H270755   1.260   4.751   6.658  1.0761  0.6863 -0.7544
16422TIP3   OH270756   1.223   1.320   5.065  0.8891 -0.5326 -0.1864
16422TIP3    H170757   1.137   1.302   5.027  0.0927  0.4036  1.0780
16422TIP3    H270758   1.277   1.245   5.040 -0.4184 -1.3459 -0.6573
16423TIP3   OH270759   1.168   0.831   1.666 -1.0240 -0.2671 -0.1989
16423TIP3    H170760   1.141   0.882   1.742 -0.0866  1.1604 -0.7916
16423TIP3    H270761   1.248   0.786   1.694 -0.3073  0.7753 -0.5152
16424TIP3   OH270762   5.864   4.057   5.023 -0.2888  0.4805 -0.0458
16424TIP3    H170763   5.912   4.069   5.105  1.1971 -2.4253 -0.3571
16424TIP3    H270764   5.881   4.138   4.974  0.5000  1.4202  1.6686
16425TIP3   OH270765   2.007   1.875   0.833  0.2717  0.7885  0.5402
16425TIP3    H170766   2.049   1.953   0.798  1.7498 -0.7027 -1.2182
16425TIP3    H270767   2.018   1.809   0.765  1.0006 -1.5882  2.8134
16426TIP3   OH270768   4.132   4.486  12.419  0.1556  0.2376 -0.5235
16426TIP3    H170769   4.214   4.475  12.371 -0.4181 -0.2121 -1.4332
16426TIP3    H270770   4.129   4.579  12.440  1.5154  0.0332  0.6742
16427TIP3   OH270771   1.683   4.065  15.756 -0.1104 -0.1018  0.2568
16427TIP3    H170772   1.723   3.981  15.731  2.2578  0.9649  0.2323
16427TIP3    H270773   1.688   4.119  15.678 -0.1143  0.6128  0.7412
16428TIP3   OH270774   0.346   0.520   4.350  0.6895  0.1492  0.7159
16428TIP3    H170775   0.388   0.606   4.357 -1.5076  1.4127 -0.4904
16428TIP3    H270776   0.405   0.468   4.296  0.4511  2.0780 -1.5548
16429TIP3   OH270777   1.075   6.190   3.690 -0.2143  0.2271  0.0378
16429TIP3    H170778   1.060   6.261   3.752 -0.8822  0.7442 -0.6991
16429TIP3    H270779   0.991   6.179   3.645 -0.0131 -0.7804 -0.1217
16430TIP3   OH270780   0.236   0.869   3.348  0.8245 -0.7036 -0.0753
16430TIP3    H170781   0.167   0.891   3.411 -0.3704 -1.7795 -0.9598
16430TIP3    H270782   0.317   0.872   3.399  0.2575  1.4421  0.7873
16431TIP3   OH270783   6.527   6.532   1.972 -0.3707 -0.1528  0.2842
16431TIP3    H170784   6.457   6.596   1.966  0.5695  0.7903 -2.4352
16431TIP3    H270785   6.483   6.447   1.970 -1.5133  0.3916  1.4014
16432TIP3   OH270786   3.288   0.092   4.171  0.0774 -0.0510  0.2096
16432TIP3    H170787   3.276   0.045   4.088  0.3725 -0.2157  0.2596
16432TIP3    H270788   3.302   0.183   4.145  0.7826 -0.2008  0.0407
16433TIP3   OH270789   2.504   5.852   0.174 -0.0662 -0.0846  0.0146
16433TIP3    H170790   2.577   5.800   0.207  0.8996 -0.0928 -1.9390
16433TIP3    H270791   2.440   5.852   0.244  2.2939  0.9339  2.3329
16434TIP3   OH270792   5.623   3.808  16.594  0.5580 -0.1911  0.1630
16434TIP3    H170793   5.633   3.716  16.570  1.2866  0.2093 -1.1857
16434TIP3    H270794   5.622   3.808  16.689 -1.9906 -1.8475  0.2430
16435TIP3   OH270795   4.072   5.356  13.795  0.0079  0.4149 -0.3939
16435TIP3    H170796   3.992   5.306  13.778  0.7671 -0.7243 -0.7631
16435TIP3    H270797   4.082   5.354  13.890  0.0766 -0.2550 -0.4059
16436TIP3   OH270798   1.063   4.568  16.471  0.2499  0.2332  0.7251
16436TIP3    H170799   1.041   4.637  16.534 -1.2466  0.1168  0.3553
16436TIP3    H270800   1.107   4.614  16.399  0.8385  0.5396  1.2711
16437TIP3   OH270801   6.517   0.402   3.821  0.2228  0.0431 -0.0569
16437TIP3    H170802   6.538   0.311   3.799  1.2401  0.0578  0.7988
16437TIP3    H270803   6.551   0.453   3.746 -1.7433 -0.3671 -1.2975
16438TIP3   OH270804   2.332   2.873   5.817 -0.3401 -0.1902 -0.1718
16438TIP3    H170805   2.310   2.951   5.869  0.0666 -0.3936  0.3126
16438TIP3    H270806   2.306   2.799   5.872  1.5012 -0.4509  0.4411
16439TIP3   OH270807   2.255   0.337   3.291 -0.0473 -0.3210 -0.4039
16439TIP3    H170808   2.175   0.356   3.341 -0.9159 -1.5330 -1.2856
16439TIP3    H270809   2.237   0.254   3.247  2.6125 -1.8986  1.2483
16440TIP3   OH270810   2.273   6.418   2.533 -0.6522 -0.6386 -0.4236
16440TIP3    H170811   2.228   6.468   2.601 -0.6893 -1.3861  0.1190
16440TIP3    H270812   2.355   6.465   2.520 -1.3868  0.4898 -1.1115
16441TIP3   OH270813   1.763   1.513   0.073  0.4774 -0.1656  0.2694
16441TIP3    H170814   1.804   1.547   0.153  0.2724 -0.5171  0.5273
16441TIP3    H270815   1.675   1.489   0.101  0.2827  0.0574 -0.1512
16442TIP3   OH270816   1.108   1.322  10.913  0.0774 -0.3021 -0.1585
16442TIP3    H170817   1.081   1.412  10.894 -1.0444 -0.1377  1.9898
16442TIP3    H270818   1.045   1.267  10.867 -0.2534  0.0205 -0.0881
16443TIP3   OH270819   4.598   1.287  11.128  0.4128 -0.8999  0.0001
16443TIP3    H170820   4.571   1.233  11.054  0.2014 -0.6813 -0.0829
16443TIP3    H270821   4.669   1.237  11.169  2.0306 -0.0314 -1.6066
16444TIP3   OH270822   6.381   6.231  12.871  0.6175  0.2902  0.0032
16444TIP3    H170823   6.334   6.245  12.953 -0.5393  2.9740 -1.0007
16444TIP3    H270824   6.321   6.179  12.817  1.2560 -1.2197  0.7088
16445TIP3   OH270825   5.758   6.400   5.604  0.4994 -0.8174 -0.0033
16445TIP3    H170826   5.764   6.380   5.511  0.1772 -2.3535  0.2811
16445TIP3    H270827   5.785   6.320   5.648 -0.5097 -0.5144  1.2322
16446TIP3   OH270828   4.583   5.016  11.227  0.1521  0.1478  0.5353
16446TIP3    H170829   4.536   4.933  11.222 -0.6485  0.6542 -1.1471
16446TIP3    H270830   4.661   5.003  11.172 -0.6874  0.9042 -0.8932
16447TIP3   OH270831   4.309   3.913  13.172  0.5356  0.3754 -0.0377
16447TIP3    H170832   4.314   3.984  13.237 -0.0517  2.3473 -2.0409
16447TIP3    H270833   4.248   3.850  13.210 -0.5939  1.9642  0.9038
16448TIP3   OH270834   5.314   4.506   6.157 -0.4957 -0.3572  0.2093
16448TIP3    H170835   5.315   4.411   6.146 -1.9465 -0.3841  0.0932
16448TIP3    H270836   5.334   4.520   6.250  2.9067 -0.5753 -0.3765
16449TIP3   OH270837   3.955   4.986  14.689  0.5369  0.2008 -0.1915
16449TIP3    H170838   4.046   4.954  14.686  0.1841 -0.7882 -1.6419
16449TIP3    H270839   3.902   4.910  14.667 -0.6335  0.8854  0.1523
16450TIP3   OH270840   1.099   4.078  11.888  0.0691 -0.3457 -0.6094
16450TIP3    H170841   1.194   4.082  11.903 -0.0283  0.1937 -0.1141
16450TIP3    H270842   1.069   4.168  11.903 -0.4254 -0.3631 -1.4425
16451TIP3   OH270843   1.888   3.313  14.099  0.0705 -0.3722 -0.4950
16451TIP3    H170844   1.950   3.385  14.113  0.0981 -0.4827 -0.0269
16451TIP3    H270845   1.899   3.289  14.007  0.8530 -0.5078 -0.3712
16452TIP3   OH270846   2.530   0.671   2.653  0.9962 -0.3129  0.0857
16452TIP3    H170847   2.434   0.672   2.654  0.9198 -0.0340 -2.0914
16452TIP3    H270848   2.554   0.763   2.646  1.1846 -0.4928 -3.6414
16453TIP3   OH270849   0.336   0.389   5.204 -0.0117 -0.3337 -0.4465
16453TIP3    H170850   0.253   0.380   5.249 -1.1926  1.4283 -2.1031
16453TIP3    H270851   0.402   0.390   5.273 -1.6368  1.2799  1.1677
16454TIP3   OH270852   1.067   5.304  13.302  0.0421  0.2752 -0.3462
16454TIP3    H170853   1.080   5.323  13.394 -0.4957 -1.3104  0.0893
16454TIP3    H270854   0.973   5.289  13.292  0.3781 -2.3320 -0.5087
16455TIP3   OH270855   6.489   0.431  11.295 -0.6705 -0.3247  0.5043
16455TIP3    H170856   6.577   0.401  11.316 -0.3763 -0.4444 -0.8318
16455TIP3    H270857   6.495   0.527  11.299  0.1181 -0.2342 -1.7233
16456TIP3   OH270858   3.984   5.398  16.639  0.2550  0.1568 -0.4028
16456TIP3    H170859   3.974   5.312  16.678 -0.6052  0.0166 -0.8850
16456TIP3    H270860   3.999   5.457  16.712 -1.8096 -0.0217  0.2283
16457TIP3   OH270861   2.817   4.406   4.161 -0.2246  0.0318  0.4786
16457TIP3    H170862   2.723   4.385   4.158 -0.1141 -0.4511  0.2352
16457TIP3    H270863   2.859   4.323   4.183  0.0466  0.5672  2.1532
16458TIP3   OH270864   3.595   3.074  11.876 -0.1192  0.6802  0.0725
16458TIP3    H170865   3.529   3.069  11.945  0.4124  1.6330  0.6702
16458TIP3    H270866   3.666   3.126  11.914  1.5950 -1.4230 -0.0482
16459TIP3   OH270867   5.653   6.405  15.121 -0.8120  0.0457 -0.3036
16459TIP3    H170868   5.658   6.469  15.192  0.5737  0.0501 -0.3827
16459TIP3    H270869   5.589   6.341  15.151  0.5369 -0.5458  1.4706
16460TIP3   OH270870   6.126   6.349  11.719 -0.0428  0.1013  0.3962
16460TIP3    H170871   6.182   6.420  11.751 -0.6024  0.0633  1.5057
16460TIP3    H270872   6.178   6.270  11.732 -0.5515  0.0013  1.9802
16461TIP3   OH270873   5.861   1.299  12.071 -0.4795  0.5643 -0.2299
16461TIP3    H170874   5.801   1.246  12.018 -0.4939  1.8560 -1.5620
16461TIP3    H270875   5.848   1.389  12.040  0.7046  1.1458  0.8522
16462TIP3   OH270876   4.640   1.631  12.020  0.0992 -0.0915  0.2544
16462TIP3    H170877   4.706   1.680  11.971 -0.8051  0.5646 -0.3430
16462TIP3    H270878   4.575   1.697  12.044 -1.4296 -1.0435 -1.0417
16463TIP3   OH270879   1.502   3.109   6.491  0.2688  0.3977 -0.6994
16463TIP3    H170880   1.445   3.092   6.566  0.0636  1.3335 -0.6378
16463TIP3    H270881   1.578   3.054   6.507  0.7223  1.3908  0.7770
16464TIP3   OH270882   3.078   4.747   3.431  0.1213 -0.0188  0.3908
16464TIP3    H170883   3.133   4.701   3.367 -0.4704 -2.2136  1.3697
16464TIP3    H270884   2.990   4.742   3.395  0.3346  2.9274 -0.8507
16465TIP3   OH270885   6.068   4.680  15.155  0.6079 -0.3817 -0.2802
16465TIP3    H170886   6.127   4.661  15.228  0.2223 -1.0330 -0.1316
16465TIP3    H270887   6.027   4.762  15.178  1.5395  0.1507 -0.4425
16466TIP3   OH270888   6.701   5.321   4.141 -0.7223 -0.6147 -0.0211
16466TIP3    H170889   6.710   5.300   4.234 -0.7804 -0.3120  0.0520
16466TIP3    H270890   6.621   5.374   4.136 -1.5169 -1.8097 -0.4253
16467TIP3   OH270891   2.543   6.750  12.380 -0.2930  0.2607  0.0289
16467TIP3    H170892   2.504   6.741  12.467 -1.2938 -1.4901 -0.5422
16467TIP3    H270893   2.524   6.840  12.354  0.8268  1.1138  1.9540
16468TIP3   OH270894   0.388   5.326  11.994 -0.2227  0.2161 -0.0040
16468TIP3    H170895   0.322   5.318  11.925 -0.8565 -0.5030  0.6637
16468TIP3    H270896   0.361   5.263  12.061  1.9444 -1.2116 -0.3419
16469TIP3   OH270897   6.122   0.006  14.643 -0.2943  0.1559  0.0598
16469TIP3    H170898   6.157  -0.020  14.558 -1.9140  3.7536 -1.9442
16469TIP3    H270899   6.199   0.027  14.696  0.7556  1.2387 -1.7898
16470TIP3   OH270900   1.446   3.117   2.011 -0.3010 -0.5403  0.1826
16470TIP3    H170901   1.369   3.139   2.063 -0.3230  1.3068 -0.5507
16470TIP3    H270902   1.508   3.079   2.074 -0.4136  1.4084  1.5567
16471TIP3   OH270903   1.602   2.746  14.770 -0.7267 -0.1178  0.1633
16471TIP3    H170904   1.607   2.838  14.798  0.9476  0.3441 -1.4761
16471TIP3    H270905   1.508   2.726  14.773 -1.0482  1.3789  1.3416
16472TIP3   OH270906   0.757   0.194  13.698 -0.0581 -0.2139 -0.1586
16472TIP3    H170907   0.771   0.288  13.702 -0.6346 -0.0446 -1.6105
16472TIP3    H270908   0.688   0.177  13.761 -1.7196  0.7404 -1.6431
16473TIP3   OH270909   1.764   3.842   5.155 -0.1657  0.3041 -0.0109
16473TIP3    H170910   1.848   3.888   5.156  0.0680 -0.1230  1.0264
16473TIP3    H270911   1.698   3.910   5.169  0.1489  0.3960  1.0883
16474TIP3   OH270912   5.338   3.647  15.293 -0.1341  0.1265 -0.4575
16474TIP3    H170913   5.394   3.678  15.221  0.0988  0.3402 -0.1889
16474TIP3    H270914   5.249   3.659  15.261 -0.0337  0.3425 -0.6648
16475TIP3   OH270915   5.485   0.608  14.644  0.6118  0.6584 -0.1672
16475TIP3    H170916   5.404   0.596  14.595 -0.4129 -0.1745  1.6286
16475TIP3    H270917   5.507   0.520  14.675  1.1334  1.1593  0.9523
16476TIP3   OH270918   6.091   4.945   2.908  0.2672  0.0359 -0.0582
16476TIP3    H170919   6.005   4.921   2.941 -0.2576  1.4990 -0.3136
16476TIP3    H270920   6.102   5.037   2.933  0.3561  0.8654 -2.8795
16477TIP3   OH270921   0.564   5.166   5.216 -0.5013 -0.6513  0.1290
16477TIP3    H170922   0.513   5.180   5.136  0.3522  1.0807 -0.1654
16477TIP3    H270923   0.500   5.175   5.287 -1.1882 -1.7899 -0.3205
16478TIP3   OH270924   5.595   6.015   3.649 -0.1237  1.3164  0.2046
16478TIP3    H170925   5.545   5.964   3.584  1.7049  1.9727 -1.8365
16478TIP3    H270926   5.675   5.965   3.662  0.6289  2.4387  0.0262
16479TIP3   OH270927   5.953   3.415  14.940  0.2528  0.5860 -0.4419
16479TIP3    H170928   6.027   3.431  14.997 -0.5615 -0.8456  1.0974
16479TIP3    H270929   5.981   3.448  14.854  2.9122 -0.4993 -0.0808
16480TIP3   OH270930   4.276   5.321  12.718 -0.4518 -0.4297 -0.0635
16480TIP3    H170931   4.279   5.257  12.646  2.2953 -2.0523  1.3289
16480TIP3    H270932   4.226   5.277  12.787 -1.0147  0.1507 -0.0878
16481TIP3   OH270933   5.091   4.823   5.606  0.5108 -0.1298  0.0986
16481TIP3    H170934   5.156   4.753   5.603  1.8428  1.0814 -0.7817
16481TIP3    H270935   5.082   4.843   5.699 -1.0958 -2.4833  0.5275
16482TIP3   OH270936   1.081   2.615  15.533 -0.2298  0.1945  0.2528
16482TIP3    H170937   1.085   2.635  15.626 -0.1014 -0.5374  0.4155
16482TIP3    H270938   1.067   2.520  15.530 -0.2811  0.2189 -0.4713
16483TIP3   OH270939   0.385   3.480  14.595  0.1747 -0.2604 -0.2238
16483TIP3    H170940   0.471   3.449  14.622  1.6156  2.3970 -1.3454
16483TIP3    H270941   0.360   3.423  14.522  0.8831 -1.1620  0.2299
16484TIP3   OH270942   4.713   0.372  13.378  0.0118 -0.4278  0.4513
16484TIP3    H170943   4.707   0.367  13.283 -0.5521  0.5735  0.4112
16484TIP3    H270944   4.768   0.449  13.394  0.5427 -0.9028  0.9301
16485TIP3   OH270945   3.690   3.290   0.947 -0.3403 -0.0877  0.1267
16485TIP3    H170946   3.676   3.337   1.029 -0.7596  0.4409 -0.2422
16485TIP3    H270947   3.783   3.266   0.949 -0.2452  0.3013  0.5576
16486TIP3   OH270948   0.947   0.488   0.308 -0.2812  0.4046  0.6116
16486TIP3    H170949   0.937   0.426   0.236  1.2656 -0.0113  0.7103
16486TIP3    H270950   1.031   0.531   0.290 -0.0964  0.6143  1.9250
16487TIP3   OH270951   2.950   0.490   1.743  0.7560  0.1278  0.4749
16487TIP3    H170952   2.974   0.424   1.807  1.4001  0.7273  0.8728
16487TIP3    H270953   2.999   0.568   1.769 -0.0384  0.7906  0.0680
16488TIP3   OH270954   0.715   4.258  12.910  0.2754 -0.1911  0.3195
16488TIP3    H170955   0.762   4.260  12.993  0.5156  0.6229  0.1766
16488TIP3    H270956   0.667   4.175  12.912  2.6620 -1.6785 -0.0884
16489TIP3   OH270957   6.789   5.888  13.047 -0.1980 -0.1995  0.4972
16489TIP3    H170958   6.812   5.965  12.995 -1.1242 -0.5083 -0.3951
16489TIP3    H270959   6.866   5.831  13.039 -1.1537 -1.2452 -2.4970
16490TIP3   OH270960   0.032   3.251   6.325  0.2349  0.2463  0.1722
16490TIP3    H170961   0.006   3.205   6.405 -1.3199 -1.2789 -1.1322
16490TIP3    H270962  -0.009   3.337   6.333 -0.2779 -0.0493  0.8262
16491TIP3   OH270963   6.237   3.926  12.058 -0.2341 -0.1024  0.0140
16491TIP3    H170964   6.326   3.938  12.092  0.1520 -0.4543 -0.8515
16491TIP3    H270965   6.249   3.886  11.972 -1.1875  0.8412 -0.5797
16492TIP3   OH270966   6.632   6.135   5.880  0.0196  0.2842  0.4639
16492TIP3    H170967   6.607   6.074   5.810 -1.6392  2.0502 -0.5527
16492TIP3    H270968   6.561   6.129   5.944 -0.2317  1.2388  0.2839
16493TIP3   OH270969   0.512   4.263   2.209 -0.2273 -0.4544 -0.4625
16493TIP3    H170970   0.545   4.208   2.280  0.6424  0.0843 -0.4405
16493TIP3    H270971   0.548   4.223   2.129 -1.7540 -1.4635 -0.6868
16494TIP3   OH270972   2.644   4.696   5.778 -0.1468  0.2377  0.3903
16494TIP3    H170973   2.596   4.712   5.859  1.1396  0.0911  1.2062
16494TIP3    H270974   2.607   4.615   5.744 -0.4022  0.0656  1.0591
16495TIP3   OH270975   4.301   5.593  11.305 -0.2755 -0.0916  0.5247
16495TIP3    H170976   4.366   5.618  11.370  0.4793 -1.4410  0.3331
16495TIP3    H270977   4.235   5.661  11.310  0.1991  0.3036  2.0813
16496TIP3   OH270978   5.875   2.154  13.790  0.2450  0.4349 -0.2438
16496TIP3    H170979   5.847   2.078  13.740  1.0934  0.7197 -1.1855
16496TIP3    H270980   5.967   2.137  13.811  0.6548  1.4738 -1.0636
16497TIP3   OH270981   6.807   1.626  11.661 -0.0842 -0.0043 -0.2376
16497TIP3    H170982   6.718   1.659  11.672  0.4126  1.6051 -0.8256
16497TIP3    H270983   6.832   1.651  11.572  0.6007 -1.3496 -0.4503
16498TIP3   OH270984   2.052   5.912  14.337  0.4200 -0.7364 -0.0622
16498TIP3    H170985   2.136   5.955  14.349 -0.3891  0.7611  0.5124
16498TIP3    H270986   2.036   5.915  14.243  0.2210  0.6107 -0.0086
16499TIP3   OH270987   1.614   5.677   3.138 -0.1917  0.4060 -0.1241
16499TIP3    H170988   1.536   5.660   3.086  0.5354 -0.0068 -1.1136
16499TIP3    H270989   1.616   5.772   3.150 -0.1519  0.5579 -1.2274
16500TIP3   OH270990   3.894   5.215  13.195 -0.5296 -0.1697 -0.0922
16500TIP3    H170991   3.858   5.232  13.282  0.5887  1.0004  0.1745
16500TIP3    H270992   3.916   5.122  13.196 -1.8773 -0.5026  0.3448
16501TIP3   OH270993   4.582   3.246  13.241 -0.2366 -0.0203 -0.0024
16501TIP3    H170994   4.534   3.306  13.298 -0.3250 -0.1981  0.1090
16501TIP3    H270995   4.572   3.161  13.282 -0.3453 -0.1576 -0.3142
16502TIP3   OH270996   6.129   5.101   4.726  0.0187 -0.1893 -0.0374
16502TIP3    H170997   6.104   5.064   4.641 -1.3990  0.9099 -0.1390
16502TIP3    H270998   6.053   5.088   4.781  0.8537 -0.6999  1.0280
16503TIP3   OH270999   4.971   3.512   1.369  0.2320  0.2779  0.0551
16503TIP3    H171000   5.008   3.593   1.335 -2.2261  1.2771 -0.4073
16503TIP3    H271001   4.990   3.447   1.301  0.1148  1.0237 -0.7127
16504TIP3   OH271002   1.174   1.155   4.431  0.9598 -0.0080  0.2455
16504TIP3    H171003   1.114   1.229   4.439  0.7851 -0.2385  1.2298
16504TIP3    H271004   1.260   1.194   4.415  0.8412  0.3955  0.5919
16505TIP3   OH271005   0.841   1.813   0.204  0.1611  0.0328  0.1282
16505TIP3    H171006   0.869   1.775   0.121 -0.0644 -1.2771  0.6286
16505TIP3    H271007   0.746   1.808   0.202  0.1621 -0.2136  0.5545
16506TIP3   OH271008   5.580   5.801  12.703 -0.2358 -0.1761  0.7282
16506TIP3    H171009   5.603   5.851  12.625 -0.0047  1.3305  1.7161
16506TIP3    H271010   5.636   5.837  12.772 -0.0029 -1.8730  1.4798
16507TIP3   OH271011   3.266   0.103  12.172 -0.3022  0.4487 -0.3948
16507TIP3    H171012   3.313   0.054  12.240 -1.9855  0.0329  0.5307
16507TIP3    H271013   3.333   0.154  12.128  1.0538 -0.3803  0.6407
16508TIP3   OH271014   2.889   4.524  15.566 -0.3252 -0.4723 -0.5480
16508TIP3    H171015   2.801   4.507  15.600 -0.5489 -0.5909 -1.1785
16508TIP3    H271016   2.881   4.605  15.515  0.0085 -0.2903 -0.3163
16509TIP3   OH271017   4.707   5.150   2.330  0.1449 -0.0247 -0.3282
16509TIP3    H171018   4.720   5.059   2.303 -1.2207 -0.1230 -0.7379
16509TIP3    H271019   4.791   5.192   2.315  1.1207 -1.4397  0.8385
16510TIP3   OH271020   5.264   5.841  13.241 -0.1745  0.4669  0.4908
16510TIP3    H171021   5.255   5.764  13.185  0.0774  1.0511 -0.3673
16510TIP3    H271022   5.314   5.810  13.316 -2.1392 -0.8154  1.3809
16511TIP3   OH271023   0.174   3.109   0.642 -0.1327 -0.3913  0.0447
16511TIP3    H171024   0.161   3.025   0.687 -1.8944  0.3258  0.9382
16511TIP3    H271025   0.145   3.175   0.705  3.7324  1.2023  0.4753
16512TIP3   OH271026   0.790   0.353  13.423 -0.1364 -0.8614  0.1082
16512TIP3    H171027   0.801   0.354  13.328 -3.0270  2.5563 -0.4008
16512TIP3    H271028   0.706   0.308  13.437 -0.1136 -0.6560  0.9639
16513TIP3   OH271029   2.108   0.611  12.476 -0.3566  0.2991  0.3143
16513TIP3    H171030   2.180   0.629  12.537 -0.4534  1.6709  0.0449
16513TIP3    H271031   2.033   0.657  12.514 -0.9102 -0.4583  0.1678
16514TIP3   OH271032   0.925   5.196   5.730 -0.3285  0.5597 -0.0747
16514TIP3    H171033   0.890   5.152   5.652 -2.1385 -0.2752  1.1405
16514TIP3    H271034   0.864   5.268   5.745  1.5988  2.4763 -0.9910
16515TIP3   OH271035   2.280   1.200   4.126  0.6301  0.2685 -0.5540
16515TIP3    H171036   2.191   1.164   4.126  0.1878  1.2837 -2.1152
16515TIP3    H271037   2.307   1.200   4.034  1.9070  0.7968 -0.2095
16516TIP3   OH271038   2.267   1.455   0.302  0.2777  0.2435  0.4424
16516TIP3    H171039   2.287   1.548   0.300  0.4687  0.1908 -0.9500
16516TIP3    H271040   2.217   1.439   0.222 -2.0074 -0.3816  1.9287
16517TIP3   OH271041   5.893   2.816   1.889  0.0409 -0.1584 -0.1272
16517TIP3    H171042   5.918   2.784   1.802  1.9272  0.0581  0.2899
16517TIP3    H271043   5.960   2.881   1.910  0.1121 -0.8185  1.8495
16518TIP3   OH271044   5.104   5.947  14.140  0.2152 -0.1874  0.2591
16518TIP3    H171045   5.154   5.998  14.204  1.6283 -1.0184 -0.1546
16518TIP3    H271046   5.140   5.972  14.055 -0.5517 -0.2871 -0.1049
16519TIP3   OH271047   4.310   0.413  16.467 -0.5973 -0.0046  0.6598
16519TIP3    H171048   4.371   0.480  16.435  0.7294 -1.4197  0.0880
16519TIP3    H271049   4.253   0.460  16.527  1.4723  1.2946  1.7495
16520TIP3   OH271050   2.863   0.452  16.303  0.0522 -0.1932 -0.4580
16520TIP3    H171051   2.942   0.459  16.250  0.8006  0.4179  0.7037
16520TIP3    H271052   2.857   0.359  16.325 -0.4823 -0.5244 -1.8913
16521TIP3   OH271053   5.550   5.441  14.971 -0.2013 -0.3327 -0.6842
16521TIP3    H171054   5.495   5.472  14.899 -0.3429 -0.0775 -0.4634
16521TIP3    H271055   5.541   5.507  15.039  1.5285  0.5020 -1.1918
16522TIP3   OH271056   6.818   3.538  15.368  0.3104  0.7859 -0.2660
16522TIP3    H171057   6.843   3.620  15.411  2.2181 -0.2076  0.6585
16522TIP3    H271058   6.766   3.491  15.433  1.7541  0.0190  0.3830
16523TIP3   OH271059   1.234   3.830   4.012 -0.7948  0.2155  0.2442
16523TIP3    H171060   1.143   3.814   4.033 -1.0938  1.7615  0.2644
16523TIP3    H271061   1.252   3.918   4.046  0.8061 -0.2063  0.5842
16524TIP3   OH271062   1.442   0.608   1.484 -0.4790  0.2878  0.2978
16524TIP3    H171063   1.498   0.535   1.512 -0.2999  0.5976  0.7401
16524TIP3    H271064   1.354   0.571   1.481 -0.2144 -0.3042 -0.7505
16525TIP3   OH271065   6.660   1.073   0.352  0.0202  0.4342  0.0956
16525TIP3    H171066   6.678   1.081   0.259  1.4464 -0.1748  0.2960
16525TIP3    H271067   6.644   0.980   0.366 -0.6230  0.5826  0.3973
16526TIP3   OH271068   0.650   6.424  16.851 -0.1440 -0.3773 -0.0575
16526TIP3    H171069   0.601   6.349  16.818  0.1105 -0.1369 -1.0231
16526TIP3    H271070   0.728   6.386  16.891 -0.1024 -0.6379 -0.3840
16527TIP3   OH271071   0.283   4.980  15.656 -0.0599 -0.1382  0.5192
16527TIP3    H171072   0.233   4.995  15.736 -0.6644  1.7446 -0.1618
16527TIP3    H271073   0.366   5.025  15.671  0.3755 -0.9433  0.5886
16528TIP3   OH271074   4.036   2.513   4.837  0.3059  0.4688 -0.5639
16528TIP3    H171075   4.070   2.602   4.847  1.4716 -0.0256  0.1703
16528TIP3    H271076   4.058   2.490   4.746  0.5859  0.7073 -0.5610
16529TIP3   OH271077   0.909   6.284  16.909  0.0345 -0.1500  0.4689
16529TIP3    H171078   0.986   6.226  16.907  0.3925  0.3237 -0.8046
16529TIP3    H271079   0.935   6.359  16.855 -1.3295  0.0090  0.0084
16530TIP3   OH271080   0.200   3.008  16.000 -0.3815  0.2009  0.4588
16530TIP3    H171081   0.181   3.056  16.080 -0.9508 -0.3211  0.6375
16530TIP3    H271082   0.153   2.926  16.009  0.3204 -0.2627  0.0082
16531TIP3   OH271083   3.235   3.277  16.085  0.0518  0.3766 -0.4293
16531TIP3    H171084   3.219   3.287  15.991  0.1221  0.2835 -0.4536
16531TIP3    H271085   3.242   3.366  16.119 -0.6815  0.4196 -0.3887
16532TIP3   OH271086   2.488   4.143   5.592  0.3863  0.1521  1.0164
16532TIP3    H171087   2.512   4.128   5.683  0.6771  1.0097  1.0911
16532TIP3    H271088   2.402   4.102   5.583  1.1643 -1.5854  1.1663
16533TIP3   OH271089   4.295   2.509  14.769 -0.6297 -0.0471 -0.1912
16533TIP3    H171090   4.322   2.536  14.857  0.1124  0.2836 -0.5070
16533TIP3    H271091   4.213   2.554  14.753  0.7490  2.4420 -0.8479
16534TIP3   OH271092   4.401   2.950   1.205 -0.3300  0.0002 -0.0186
16534TIP3    H171093   4.327   2.945   1.265  0.6377 -1.3712  1.1203
16534TIP3    H271094   4.428   3.041   1.207 -1.1351  0.2320  0.5929
16535TIP3   OH271095   2.063   6.733   6.371 -1.2020 -0.1303 -0.0658
16535TIP3    H171096   2.118   6.674   6.318 -0.2336  0.3808  0.3498
16535TIP3    H271097   1.987   6.679   6.395 -1.7835 -0.3311 -2.1072
16536TIP3   OH271098   4.774   0.972  13.982  0.3651  0.1068 -0.3890
16536TIP3    H171099   4.712   0.911  14.023  1.0897 -0.6432 -0.3801
16536TIP3    H271100   4.801   1.030  14.053  1.1130 -0.7711  0.0565
16537TIP3   OH271101   5.502   2.277   3.514 -0.1986  0.4065  0.1902
16537TIP3    H171102   5.489   2.275   3.609 -3.2258  0.1216 -0.1278
16537TIP3    H271103   5.534   2.189   3.493  1.1646  0.6867  0.9859
16538TIP3   OH271104   1.987   3.753  14.796  0.1333 -0.1732 -0.1571
16538TIP3    H171105   1.961   3.752  14.704  0.4257  1.2385 -0.2794
16538TIP3    H271106   1.997   3.846  14.817  2.5786 -0.5374  0.5922
16539TIP3   OH271107   5.521   5.770  12.153 -0.2858 -0.1250  0.5565
16539TIP3    H171108   5.580   5.695  12.144 -0.3255 -0.0978  0.0190
16539TIP3    H271109   5.523   5.812  12.067 -0.5013  0.3146  0.7643
16540TIP3   OH271110   3.174   3.968  12.928 -0.0515 -0.3558 -0.2065
16540TIP3    H171111   3.212   3.886  12.897  1.3043  0.7430 -1.6218
16540TIP3    H271112   3.154   4.018  12.849 -0.5590  0.8187  0.6161
16541TIP3   OH271113   1.593   4.242  12.811 -0.1345 -0.1632 -0.6838
16541TIP3    H171114   1.670   4.294  12.789  0.3700 -1.3183 -1.7745
16541TIP3    H271115   1.606   4.159  12.765 -1.3921 -0.8838  0.1946
16542TIP3   OH271116   6.825   6.463  14.140  0.1134  0.1571  0.0697
16542TIP3    H171117   6.796   6.546  14.178  1.0349  0.2722  0.5526
16542TIP3    H271118   6.920   6.470  14.137  0.3288 -1.4506  1.4976
16543TIP3   OH271119   0.741   5.966   2.433 -0.6254  0.0047 -0.1244
16543TIP3    H171120   0.759   5.881   2.393  2.8592  1.4157 -1.9142
16543TIP3    H271121   0.758   5.953   2.526 -1.3018 -1.5047 -0.1935
16544TIP3   OH271122   0.104   6.423   1.026  0.1873  0.0252  0.4443
16544TIP3    H171123   0.057   6.341   1.044  1.0384 -0.2839  1.3816
16544TIP3    H271124   0.192   6.408   1.061  0.2184  1.5245  1.0758
16545TIP3   OH271125   6.567   5.399  17.043 -0.3417 -0.4169  0.1538
16545TIP3    H171126   6.558   5.305  17.028  1.8836 -1.4430  3.8247
16545TIP3    H271127   6.643   5.424  16.990  0.0347 -1.0939  0.3518
16546TIP3   OH271128   2.809   1.973   2.015 -0.4867  0.2640 -0.3689
16546TIP3    H171129   2.829   1.882   1.992  1.1052 -0.0305  1.8759
16546TIP3    H271130   2.726   1.991   1.971  0.6423 -1.2436 -3.3970
16547TIP3   OH271131   3.340   4.162   6.253  0.1581 -0.1011 -0.4708
16547TIP3    H171132   3.289   4.092   6.211  0.3369 -0.1588 -0.5948
16547TIP3    H271133   3.395   4.116   6.317 -0.3177  0.0176  0.0314
16548TIP3   OH271134   3.987   0.778  10.794  0.1568 -0.9176 -0.6868
16548TIP3    H171135   4.078   0.749  10.793 -0.4344 -2.9181 -0.6639
16548TIP3    H271136   3.988   0.864  10.752  2.2511 -0.2175  0.6369
16549TIP3   OH271137   1.055   0.250  10.692 -0.1009  0.0122  0.1375
16549TIP3    H171138   1.097   0.164  10.682 -1.3994 -0.5535 -0.6947
16549TIP3    H271139   1.116   0.311  10.650  0.7810 -0.5044  0.6245
16550TIP3   OH271140   6.511   0.052   4.177  0.0132 -0.2407  0.1987
16550TIP3    H171141   6.429   0.018   4.213 -0.5576  0.9988  0.1128
16550TIP3    H271142   6.505   0.147   4.188  0.2015  0.1462 -2.3046
16551TIP3   OH271143   2.998   6.245  11.694  1.0106 -0.0477 -0.2714
16551TIP3    H171144   3.075   6.274  11.645  1.3425  1.8949  1.2492
16551TIP3    H271145   2.928   6.243  11.629  2.1691 -1.3161 -1.5750
16552TIP3   OH271146   3.347   0.845   1.839 -0.0413  0.5909  0.0746
16552TIP3    H171147   3.346   0.915   1.773 -0.0006  0.5657  0.0475
16552TIP3    H271148   3.439   0.828   1.854 -0.0266  1.2556  0.8339
16553TIP3   OH271149   1.014   0.365   0.538  0.1071  0.0836 -0.4729
16553TIP3    H171150   0.994   0.416   0.459 -1.2655  1.5357  0.7420
16553TIP3    H271151   1.050   0.429   0.600 -1.1465 -0.4992  0.9156
16554TIP3   OH271152   2.358   1.597  16.668 -0.2856 -0.1831  0.1292
16554TIP3    H171153   2.304   1.518  16.674 -1.0146  0.4048  1.7931
16554TIP3    H271154   2.426   1.585  16.733 -1.7510  1.4994  2.1244
16555TIP3   OH271155   0.329   0.879  11.681 -0.4273  0.0834 -0.2837
16555TIP3    H171156   0.261   0.842  11.736 -0.5646 -1.4234 -1.4022
16555TIP3    H271157   0.411   0.856  11.725 -0.5643 -0.1527 -0.1536
16556TIP3   OH271158   1.299   4.526   5.708  0.2378 -0.3895 -0.4263
16556TIP3    H171159   1.309   4.595   5.643 -0.8775  1.6329  1.4133
16556TIP3    H271160   1.299   4.445   5.657  0.3370  1.0201 -2.8172
16557TIP3   OH271161   5.348   5.367   5.426 -0.6560 -0.6967  0.0341
16557TIP3    H171162   5.277   5.333   5.372  0.7386 -0.4317 -2.0517
16557TIP3    H271163   5.424   5.370   5.368  0.5184  1.1808  1.5445
16558TIP3   OH271164   1.519   2.510  15.021  0.2501  0.3303  0.5040
16558TIP3    H171165   1.567   2.591  15.007  0.9060 -0.0282  0.6490
16558TIP3    H271166   1.429   2.538  15.037  0.1167  0.9340 -1.1437
16559TIP3   OH271167   6.077   4.275  15.972  0.0618  0.3884 -0.0813
16559TIP3    H171168   6.070   4.295  15.879  1.9015  0.6896 -0.1873
16559TIP3    H271169   6.132   4.344  16.007  1.9384 -1.3782  0.6314
16560TIP3   OH271170   5.841   5.337  13.858 -0.4333  0.0070  0.1648
16560TIP3    H171171   5.767   5.339  13.797 -0.9849  1.0672  0.8298
16560TIP3    H271172   5.903   5.401  13.823 -0.3185 -0.0820  0.2037
16561TIP3   OH271173   3.440   6.421   0.275  0.1476 -0.0823 -0.1748
16561TIP3    H171174   3.507   6.457   0.217 -0.7258  1.4928 -0.2528
16561TIP3    H271175   3.367   6.400   0.218  0.2185 -0.9611  0.0341
16562TIP3   OH271176   3.191   5.231  15.268 -0.4442 -0.2217 -0.2131
16562TIP3    H171177   3.110   5.281  15.274  0.2973  0.9682  0.1700
16562TIP3    H271178   3.239   5.270  15.196  0.3316 -0.0903  0.3587
16563TIP3   OH271179   0.727   1.603  12.817 -0.2804 -0.1361 -0.0817
16563TIP3    H171180   0.781   1.672  12.856 -1.1603  0.2308  0.5238
16563TIP3    H271181   0.683   1.562  12.891 -0.2221 -0.9592 -0.4957
16564TIP3   OH271182   1.500   0.002   4.221  0.1709  0.1317 -0.8285
16564TIP3    H171183   1.542   0.001   4.307 -1.8649  1.8304  0.2908
16564TIP3    H271184   1.556   0.058   4.168 -0.2177  1.8075  0.4332
16565TIP3   OH271185   4.411   1.792   0.799  0.7078  0.1014 -0.0620
16565TIP3    H171186   4.487   1.758   0.752  0.7658  1.5988 -1.1285
16565TIP3    H271187   4.370   1.852   0.737 -2.5436 -2.1036 -0.2838
16566TIP3   OH271188   5.187   2.573   5.842 -0.3485 -0.1024 -0.2122
16566TIP3    H171189   5.116   2.629   5.873  0.5664  0.1044  1.6850
16566TIP3    H271190   5.152   2.531   5.763 -2.0021  1.1289 -0.1927
16567TIP3   OH271191   1.055   1.307  16.387 -0.0057 -0.0218  0.1792
16567TIP3    H171192   1.068   1.216  16.359 -0.3376 -0.1697  0.5049
16567TIP3    H271193   0.961   1.320  16.385  0.0664  0.4540 -0.2870
16568TIP3   OH271194   2.658   5.001   4.486 -0.3191  0.1365  0.1579
16568TIP3    H171195   2.620   5.064   4.426 -1.1074 -0.6616 -0.2087
16568TIP3    H271196   2.707   4.941   4.430 -3.1498 -2.1480 -0.1027
16569TIP3   OH271197   0.804   2.896   4.087  0.4592  0.0781 -0.0072
16569TIP3    H171198   0.799   2.893   3.992 -0.6123 -0.8187  0.0448
16569TIP3    H271199   0.887   2.938   4.106  2.2358 -2.5373 -1.3591
16570TIP3   OH271200   0.070   0.282   0.131  0.2460  0.4688 -0.6326
16570TIP3    H171201   0.084   0.187   0.139 -1.7855  0.2850  2.1056
16570TIP3    H271202   0.127   0.308   0.059  0.2351 -2.9642 -2.0948
16571TIP3   OH271203   2.305   2.302   4.100 -0.5263  0.3392  0.6497
16571TIP3    H171204   2.211   2.320   4.093 -0.3877  0.8007 -0.2613
16571TIP3    H271205   2.320   2.228   4.041 -0.3689  0.0538  1.0455
16572TIP3   OH271206   2.062   1.295  12.525 -0.0957  0.3271  0.5496
16572TIP3    H171207   2.009   1.269  12.601 -1.4157 -2.6436 -1.2212
16572TIP3    H271208   2.151   1.271  12.549 -0.2111  1.0361  1.7887
16573TIP3   OH271209   1.720   0.947  15.060  0.3560 -0.3706  0.1497
16573TIP3    H171210   1.816   0.948  15.051  0.5555  0.1114  1.9268
16573TIP3    H271211   1.693   0.866  15.018  1.5748 -0.5971 -0.2363
16574TIP3   OH271212   3.400   5.645  12.940  0.4781 -0.4860 -0.0473
16574TIP3    H171213   3.341   5.605  13.003  3.5451 -3.2904  1.3521
16574TIP3    H271214   3.463   5.576  12.919  0.7419  0.8986 -4.8507
16575TIP3   OH271215   0.917   3.957  12.872 -0.7245  0.1747  0.0669
16575TIP3    H171216   0.944   4.047  12.858 -0.7244  0.1563 -0.0547
16575TIP3    H271217   0.911   3.948  12.967  0.0981  0.0571  0.1145
16576TIP3   OH271218   5.617   0.534  12.172  0.4906 -0.6398  0.2348
16576TIP3    H171219   5.687   0.572  12.224 -0.3469  1.0987  0.1625
16576TIP3    H271220   5.622   0.580  12.088 -0.0855 -1.2328 -0.1341
16577TIP3   OH271221   3.576   4.582   4.533  0.6603 -0.2115  0.0385
16577TIP3    H171222   3.512   4.558   4.601  0.0180  3.3500  0.9461
16577TIP3    H271223   3.661   4.557   4.570  0.0859 -1.4247  0.5939
16578TIP3   OH271224   2.757   5.034   6.537 -0.5889 -0.1002  0.2666
16578TIP3    H171225   2.740   5.059   6.628  0.6793 -1.0055  0.7708
16578TIP3    H271226   2.788   4.944   6.541  1.1122  0.3736 -0.8871
16579TIP3   OH271227   2.049   5.495   1.048 -0.4409 -0.1838  0.6311
16579TIP3    H171228   2.078   5.506   1.138  0.6333  2.0573  0.1068
16579TIP3    H271229   1.954   5.499   1.052 -0.3767  0.6527  1.6008
16580TIP3   OH271230   1.475   5.673  13.970 -0.1040 -0.2014  0.3556
16580TIP3    H171231   1.428   5.609  13.917 -0.6960 -0.8205  1.5773
16580TIP3    H271232   1.405   5.723  14.013  0.3462 -0.2515  1.1634
16581TIP3   OH271233   5.533   3.798  11.804  0.0486  0.4133  0.2287
16581TIP3    H171234   5.605   3.779  11.743 -0.4304 -0.0349 -0.2056
16581TIP3    H271235   5.496   3.713  11.826 -0.4340  0.6477  0.3531
16582TIP3   OH271236   1.600   5.583  16.407  0.2399  0.8623 -0.2500
16582TIP3    H171237   1.662   5.526  16.454 -0.4418  0.4192  0.1288
16582TIP3    H271238   1.514   5.544  16.423 -0.1940  1.7322 -0.3913
16583TIP3   OH271239   5.665   0.206  13.518  0.2536  0.7622 -0.1139
16583TIP3    H171240   5.658   0.171  13.607  0.0088 -1.5437 -0.9591
16583TIP3    H271241   5.744   0.260  13.519  1.0156 -0.3225  1.1654
16584TIP3   OH271242   3.009   5.198  10.627  0.4276 -0.5328  0.6796
16584TIP3    H171243   2.941   5.176  10.564  0.5179 -0.3561  0.5168
16584TIP3    H271244   3.082   5.141  10.605  0.7043 -0.0015  0.1817
16585TIP3   OH271245   3.413   1.154   3.641  0.2206  0.2610 -0.5499
16585TIP3    H171246   3.323   1.138   3.668 -0.3209  0.7984 -1.9182
16585TIP3    H271247   3.405   1.194   3.554  1.7385  1.3214 -0.2437
16586TIP3   OH271248   0.593   6.509   5.991 -0.0584  0.1521 -0.9434
16586TIP3    H171249   0.540   6.580   6.029 -0.8218 -0.1441 -1.4250
16586TIP3    H271250   0.529   6.451   5.951  0.3687 -1.8282  1.0563
16587TIP3   OH271251   2.077   6.830  11.056  0.1768  0.3322  0.1239
16587TIP3    H171252   2.023   6.787  11.122  3.3274 -2.3917  1.2202
16587TIP3    H271253   2.062   6.779  10.976  1.1534 -0.5920  0.4931
16588TIP3   OH271254   2.607   2.654  13.085  0.0935 -0.6144  0.1259
16588TIP3    H171255   2.570   2.689  13.165  0.1898 -0.7358  0.2247
16588TIP3    H271256   2.611   2.559  13.099 -3.0934 -1.0978 -1.3325
16589TIP3   OH271257   4.873   6.332  12.079  0.1176  0.4579 -0.4561
16589TIP3    H171258   4.959   6.317  12.118  0.7109  0.1784 -1.8222
16589TIP3    H271259   4.866   6.267  12.009  0.2956  2.6840 -2.6909
16590TIP3   OH271260   3.786   3.594   5.850  0.2498 -0.2228  0.1364
16590TIP3    H171261   3.824   3.585   5.937  1.6241 -1.6470 -0.5697
16590TIP3    H271262   3.691   3.592   5.865  0.4588 -1.2629  1.5181
16591TIP3   OH271263   3.349   2.010  16.520  0.1156  0.1668 -0.2581
16591TIP3    H171264   3.268   2.054  16.496 -0.6591 -0.0941  1.6636
16591TIP3    H271265   3.419   2.068  16.489 -0.8520  2.0350  0.8584
16592TIP3   OH271266   2.244   4.298   5.420  0.1357 -0.6251 -0.4865
16592TIP3    H171267   2.267   4.391   5.424  0.6683 -0.7006 -1.4369
16592TIP3    H271268   2.296   4.264   5.347  0.5339 -1.8364  0.3308
16593TIP3   OH271269   0.206   5.788   1.407 -0.2150 -0.2033 -0.2521
16593TIP3    H171270   0.236   5.879   1.408 -0.3432 -0.1491 -0.8002
16593TIP3    H271271   0.145   5.782   1.481 -0.3486  0.2073 -0.3269
16594TIP3   OH271272   1.559   3.751  11.922 -0.1727 -0.0317  0.1636
16594TIP3    H171273   1.538   3.802  12.001  1.2048 -0.1623  0.6492
16594TIP3    H271274   1.498   3.678  11.923 -1.1541  0.7777  0.3024
16595TIP3   OH271275   1.313   1.110  10.657  0.2164 -0.0994 -0.2086
16595TIP3    H171276   1.319   1.033  10.714  0.1548 -0.1063 -0.2108
16595TIP3    H271277   1.370   1.089  10.583 -0.1105 -0.3179 -0.4056
16596TIP3   OH271278   6.808   2.632  10.746  0.1062  0.4865 -0.4032
16596TIP3    H171279   6.810   2.540  10.773 -0.7408  1.0418  1.8657
16596TIP3    H271280   6.761   2.632  10.663  0.4974 -1.1728 -0.6546
16597TIP3   OH271281   1.640   4.655   4.178  0.6369 -0.2578  0.2664
16597TIP3    H171282   1.654   4.741   4.218 -0.1741 -0.3225  0.7192
16597TIP3    H271283   1.578   4.671   4.107 -0.0605 -0.5518  0.7868
16598TIP3   OH271284   3.483   2.341   4.237 -0.5815 -0.0481 -0.2817
16598TIP3    H171285   3.415   2.328   4.171 -0.4093  3.0347 -1.1863
16598TIP3    H271286   3.564   2.317   4.193 -0.6622  0.1847 -0.5554
16599TIP3   OH271287   5.310   5.228   2.204  0.5825  0.1151  0.0195
16599TIP3    H171288   5.256   5.251   2.280 -1.5553 -0.0655 -1.3608
16599TIP3    H271289   5.369   5.159   2.236 -1.6042 -1.3765  1.0938
16600TIP3   OH271290   4.311   1.551  15.978 -0.0305  0.3973  0.2377
16600TIP3    H171291   4.290   1.556  15.885 -0.3093  0.3618  0.2985
16600TIP3    H271292   4.232   1.582  16.022 -0.8729 -2.0174  0.5524
16601TIP3   OH271293   2.286   5.702   6.721 -0.2366  0.2876 -0.3221
16601TIP3    H171294   2.302   5.616   6.682 -0.9953  0.6391 -1.4498
16601TIP3    H271295   2.274   5.684   6.814 -0.5309 -0.8517 -0.5661
16602TIP3   OH271296   2.529   3.433  15.647  0.5790 -0.3757 -0.2711
16602TIP3    H171297   2.556   3.374  15.576  2.3692 -0.6684  0.5933
16602TIP3    H271298   2.569   3.517  15.624  0.9241 -0.3984  0.2319
16603TIP3   OH271299   2.992   3.386   0.001  0.4160 -0.9443 -0.0898
16603TIP3    H171300   3.001   3.357  -0.090  0.8673 -0.5632 -0.1672
16603TIP3    H271301   3.073   3.358   0.043  0.8734  0.2281 -0.1750
16604TIP3   OH271302   4.396   1.578   2.403  0.4614  0.3201  0.1672
16604TIP3    H171303   4.443   1.568   2.485  2.5222  1.3095 -0.8327
16604TIP3    H271304   4.437   1.515   2.343 -0.1236  0.5318 -0.4817
16605TIP3   OH271305   0.324   4.872  12.078 -0.3368 -0.1973 -0.3950
16605TIP3    H171306   0.316   4.950  12.133 -0.9963 -1.7371  1.8112
16605TIP3    H271307   0.238   4.830  12.083 -0.2362 -0.7146 -2.1831
16606TIP3   OH271308   4.764   5.341   3.606  0.1375 -0.0996 -0.2194
16606TIP3    H171309   4.721   5.276   3.551 -0.1848 -0.2608  0.2231
16606TIP3    H271310   4.815   5.291   3.670 -0.9890  0.0489  0.8303
16607TIP3   OH271311   6.246   5.887  11.749  0.7647  0.8961  0.6340
16607TIP3    H171312   6.313   5.887  11.817  1.2047 -0.3140  0.2396
16607TIP3    H271313   6.211   5.798  11.750 -0.5688  1.4010  0.5615
16608TIP3   OH271314   2.863   4.327   1.864  0.4353  0.0966  1.3225
16608TIP3    H171315   2.800   4.399   1.866  0.1442 -0.0610 -0.4887
16608TIP3    H271316   2.812   4.249   1.887 -0.8164 -0.4701 -2.5842
16609TIP3   OH271317   5.981   4.587  13.551 -0.5251 -0.5756  0.0318
16609TIP3    H171318   6.076   4.573  13.559 -0.4612 -1.3277 -1.6106
16609TIP3    H271319   5.942   4.515  13.599 -0.1869 -3.1296 -3.1776
16610TIP3   OH271320   0.051   2.595   0.203  0.1872  0.4600 -0.2434
16610TIP3    H171321   0.038   2.633   0.116  0.3151  1.1951  0.0470
16610TIP3    H271322   0.085   2.668   0.255 -1.3411  0.4559  0.8144
16611TIP3   OH271323   2.692   3.303   2.670  0.0551  0.2040  0.1705
16611TIP3    H171324   2.732   3.232   2.719  0.6482 -0.4531 -1.2213
16611TIP3    H271325   2.608   3.268   2.641 -1.5054  1.4520  2.7695
16612TIP3   OH271326   5.838   0.521  11.266  0.6840 -0.0144  0.2033
16612TIP3    H171327   5.796   0.503  11.350 -1.7703  0.1634 -0.8708
16612TIP3    H271328   5.804   0.606  11.240  2.6674  0.6695 -0.2776
16613TIP3   OH271329   5.782   0.535   3.728  0.1157  0.4655  0.4652
16613TIP3    H171330   5.790   0.590   3.806  0.3235  1.8109 -0.4605
16613TIP3    H271331   5.864   0.549   3.680 -0.2955  0.2216 -0.3255
16614TIP3   OH271332   6.726   3.621  14.103  0.2647  0.2072 -0.2382
16614TIP3    H171333   6.671   3.673  14.162 -1.4333  0.5025 -2.0047
16614TIP3    H271334   6.719   3.532  14.136  1.5004  0.7101  1.5505
16615TIP3   OH271335   1.301   0.008  11.870 -0.4853  0.4881  0.8102
16615TIP3    H171336   1.288  -0.009  11.776  3.1323  0.8454  0.0992
16615TIP3    H271337   1.285  -0.077  11.912 -0.5709 -0.0928 -0.3389
16616TIP3   OH271338   2.862   5.248   5.184  0.2821  0.4113 -0.3113
16616TIP3    H171339   2.896   5.213   5.101  1.1463  0.3907  0.0360
16616TIP3    H271340   2.801   5.182   5.215 -0.8088  0.8666 -1.4138
16617TIP3   OH271341   6.087   4.451  11.068 -0.3596 -0.3693 -0.2581
16617TIP3    H171342   6.089   4.521  11.002 -2.9025  0.7103  0.6651
16617TIP3    H271343   6.055   4.375  11.020  2.6225 -1.0537 -1.3184
16618TIP3   OH271344   1.275   0.271   2.106  0.3263 -0.0261  0.1637
16618TIP3    H171345   1.201   0.261   2.046 -0.0820  0.8583  0.4913
16618TIP3    H271346   1.237   0.256   2.193  0.7347 -0.4936  0.2620
16619TIP3   OH271347   4.153   5.267   1.925  0.2560 -0.4562 -0.2626
16619TIP3    H171348   4.215   5.197   1.908  1.0878  0.3956 -0.8115
16619TIP3    H271349   4.171   5.294   2.015  0.1822 -0.6802 -0.1775
16620TIP3   OH271350   5.063   0.185  13.661 -0.3080  0.5036  0.0659
16620TIP3    H171351   4.993   0.250  13.654  0.2974  0.9844 -2.5901
16620TIP3    H271352   5.133   0.219  13.605  0.2998 -2.0483 -0.8464
16621TIP3   OH271353   5.639   2.476   5.019 -0.2620  0.4168 -0.9806
16621TIP3    H171354   5.729   2.452   5.040 -0.5293  0.2979  0.0958
16621TIP3    H271355   5.646   2.562   4.979  0.3799  0.1431 -1.4739
16622TIP3   OH271356   1.324   4.854  15.135 -0.2581  0.2654  0.1972
16622TIP3    H171357   1.385   4.896  15.196  0.5288  0.1021 -0.4568
16622TIP3    H271358   1.322   4.762  15.162  1.8769 -0.3236 -1.3638
16623TIP3   OH271359   2.846   3.055  14.396 -0.3222 -0.8876 -0.2880
16623TIP3    H171360   2.899   3.011  14.462 -0.9196  0.9562  1.4978
16623TIP3    H271361   2.780   2.990  14.372 -1.2837 -1.0385  2.3900
16624TIP3   OH271362   1.856   4.618  11.850 -0.0897  0.2392 -0.0277
16624TIP3    H171363   1.897   4.534  11.870  0.1236  0.0291 -1.2468
16624TIP3    H271364   1.927   4.682  11.855  0.3853 -0.0811 -1.8356
16625TIP3   OH271365   3.691   6.524  15.526  0.3396  0.7914 -0.0427
16625TIP3    H171366   3.725   6.538  15.614 -1.1916 -1.5369  0.9991
16625TIP3    H271367   3.709   6.432  15.507 -2.4700  0.2780 -0.6599
16626TIP3   OH271368   3.768   6.210   0.920 -0.1543  0.1398  0.3158
16626TIP3    H171369   3.708   6.234   0.850  0.4236 -0.5850 -0.4452
16626TIP3    H271370   3.761   6.115   0.927  0.6892  0.0767  0.4109
16627TIP3   OH271371   6.411   0.944   4.474  0.1698  0.1632  0.1512
16627TIP3    H171372   6.397   0.850   4.472  0.5340  0.1191 -0.8818
16627TIP3    H271373   6.495   0.955   4.518  0.5930 -0.0716 -0.5712
16628TIP3   OH271374   4.050   3.100   3.483  0.2796 -0.3245 -0.0667
16628TIP3    H171375   4.118   3.047   3.525  0.4954  0.6274  0.8461
16628TIP3    H271376   3.992   3.125   3.555 -0.2271  0.0446 -0.6001
16629TIP3   OH271377   4.174   0.600  11.548  0.3283 -0.0123 -0.7097
16629TIP3    H171378   4.150   0.510  11.525  0.1277  0.0394 -0.7103
16629TIP3    H271379   4.215   0.635  11.469  3.1476 -1.0369  0.2008
16630TIP3   OH271380   0.522   5.861   0.489  0.0399 -0.3532  0.1003
16630TIP3    H171381   0.525   5.855   0.584 -0.8758  0.8632  0.2377
16630TIP3    H271382   0.613   5.868   0.462  0.2617  0.3231  0.9748
16631TIP3   OH271383   4.843   2.790   5.210  0.2016  0.4727  0.0114
16631TIP3    H171384   4.771   2.820   5.155  1.1494  0.5944 -1.2129
16631TIP3    H271385   4.852   2.697   5.189  1.5121  0.8362 -1.2007
16632TIP3   OH271386   2.855   0.032   3.511  0.3168  0.5175  1.0127
16632TIP3    H171387   2.776   0.074   3.478 -1.4515 -0.9186  3.0946
16632TIP3    H271388   2.915   0.104   3.531 -0.4018  1.6343 -0.6887
16633TIP3   OH271389   2.896   1.444   1.109  0.2629 -0.4949  0.2547
16633TIP3    H171390   2.866   1.380   1.173 -1.2472  0.1480  0.2144
16633TIP3    H271391   2.922   1.520   1.162 -0.6430 -0.0987  0.1503
16634TIP3   OH271392   4.857   1.272  11.803  0.0026  0.5558 -0.2645
16634TIP3    H171393   4.860   1.347  11.743  1.0058  1.0670  0.3887
16634TIP3    H271394   4.937   1.281  11.855 -0.8690  0.1560  1.1771
16635TIP3   OH271395   6.368   1.095  14.093  0.3785  0.0542  0.2651
16635TIP3    H171396   6.420   1.049  14.159  2.5400  1.8480 -0.0915
16635TIP3    H271397   6.336   1.173  14.139 -0.1425  0.1010 -0.1643
16636TIP3   OH271398   6.141   6.047   1.717 -0.2055  0.3844  0.2042
16636TIP3    H171399   6.202   6.080   1.783  1.4929 -2.0222 -0.0292
16636TIP3    H271400   6.058   6.036   1.764 -0.2182  2.6284  0.8179
16637TIP3   OH271401   4.043   6.590   2.445 -0.1810  0.4151 -0.3659
16637TIP3    H171402   4.024   6.582   2.352 -0.3132 -2.0968 -0.1820
16637TIP3    H271403   4.137   6.603   2.450 -0.3066  1.6490 -0.8505
16638TIP3   OH271404   4.075   6.044   0.210 -0.2681  0.5928 -0.4232
16638TIP3    H171405   4.120   6.081   0.134  1.6880 -0.1559  0.3148
16638TIP3    H271406   4.087   6.109   0.279  0.2991  0.1025 -0.0450
16639TIP3   OH271407   1.422   5.910  11.694  0.4723  0.1170  0.3356
16639TIP3    H171408   1.490   5.917  11.760 -0.0750 -1.8403  1.1677
16639TIP3    H271409   1.452   5.966  11.622  2.1265  0.5700  1.3346
16640TIP3   OH271410   3.048   1.859  16.966 -0.2420  0.0289 -0.5466
16640TIP3    H171411   3.071   1.875  16.874 -2.4639 -2.7659 -1.7425
16640TIP3    H271412   2.997   1.936  16.991  1.4647  1.4319 -1.1746
16641TIP3   OH271413   0.529   5.977   4.897  0.5911 -0.0508 -0.2520
16641TIP3    H171414   0.558   5.994   4.807  1.0279 -0.5593 -0.2067
16641TIP3    H271415   0.481   5.895   4.891 -2.0558  1.3875 -0.5854
16642TIP3   OH271416   4.290   0.910   2.173  0.4494  0.2175 -0.3960
16642TIP3    H171417   4.339   0.867   2.243  3.7870  0.3961 -2.3816
16642TIP3    H271418   4.233   0.842   2.138  1.1987 -0.8363  0.3811
16643TIP3   OH271419   0.373   4.263  13.035  0.0419 -0.4272 -0.8659
16643TIP3    H171420   0.437   4.216  13.088 -0.6165 -0.9037 -0.4867
16643TIP3    H271421   0.288   4.236  13.068 -0.4520  2.9306  1.1061
16644TIP3   OH271422   5.968   4.398  13.842 -0.6580  0.2513  0.5143
16644TIP3    H171423   5.914   4.322  13.816 -0.7815  0.8410 -1.0736
16644TIP3    H271424   5.910   4.450  13.897 -0.8904 -0.3230  0.8309
16645TIP3   OH271425   6.785   2.474   0.688  0.9638  0.7130  0.4744
16645TIP3    H171426   6.849   2.488   0.618  0.7253 -0.7496 -0.0681
16645TIP3    H271427   6.727   2.406   0.654  0.4529  0.4319  1.8472
16646TIP3   OH271428   1.138   4.499   2.566  0.0647 -0.2481  0.0207
16646TIP3    H171429   1.175   4.585   2.590 -1.1248  0.5735 -0.9772
16646TIP3    H271430   1.211   4.453   2.526  0.7542  0.2457  0.6643
16647TIP3   OH271431   6.332   4.139   4.847  0.0546 -0.1225 -0.2307
16647TIP3    H171432   6.319   4.062   4.902 -1.4103 -0.1529 -0.5780
16647TIP3    H271433   6.317   4.213   4.905  1.4206 -0.0730  0.0924
16648TIP3   OH271434   1.220   1.024   2.691  0.6782  0.3182  0.1346
16648TIP3    H171435   1.258   0.945   2.730 -1.5540 -1.6828 -1.4168
16648TIP3    H271436   1.277   1.042   2.615  0.5269 -0.5817 -0.2131
16649TIP3   OH271437   1.367   4.115  11.907 -0.5041 -0.1913 -0.2698
16649TIP3    H171438   1.443   4.093  11.852  3.5854  1.4699  4.0436
16649TIP3    H271439   1.362   4.210  11.904 -1.4425 -0.1892  0.7465
16650TIP3   OH271440   0.397   3.919   0.174  0.7017 -0.8962  0.3278
16650TIP3    H171441   0.473   3.894   0.226 -0.5673  1.1644  3.4716
16650TIP3    H271442   0.324   3.869   0.210 -0.7214  2.4854  2.6774
16651TIP3   OH271443   4.133   4.450  11.672 -0.3801 -0.3099  0.2484
16651TIP3    H171444   4.169   4.510  11.607 -3.7614 -0.2619 -1.8281
16651TIP3    H271445   4.152   4.491  11.756  1.1610  1.4032 -0.8711
16652TIP3   OH271446   1.549   0.903   3.142 -0.0963 -0.1794 -0.8218
16652TIP3    H171447   1.478   0.920   3.080  0.5995 -0.1856 -1.6370
16652TIP3    H271448   1.547   0.808   3.156 -1.6517  0.0531  0.9020
16653TIP3   OH271449   2.551   4.347   0.870 -0.2024  0.2083  0.0513
16653TIP3    H171450   2.606   4.401   0.813  0.9850  0.6131  1.5170
16653TIP3    H271451   2.612   4.310   0.934 -1.4468 -0.4554  0.8904
16654TIP3   OH271452   5.635   4.911   0.730  0.0776  0.2281  0.4702
16654TIP3    H171453   5.604   4.868   0.650 -0.6062  0.0268  0.8340
16654TIP3    H271454   5.608   5.002   0.720 -0.6455  0.0610  0.7703
16655TIP3   OH271455   1.917   0.803  13.451 -0.2790  0.5101 -0.2737
16655TIP3    H171456   1.835   0.851  13.462 -1.1890 -1.0582 -0.0664
16655TIP3    H271457   1.931   0.758  13.534 -0.3125 -0.9010 -1.0064
16656TIP3   OH271458   0.060   1.259  12.373 -0.4530 -0.5740  0.4276
16656TIP3    H171459   0.126   1.329  12.372  0.8766 -1.7852 -0.0201
16656TIP3    H271460   0.087   1.203  12.446 -0.9205 -1.1696  0.1474
16657TIP3   OH271461   4.926   5.564   0.996  0.1050 -0.3277  0.5770
16657TIP3    H171462   4.832   5.545   1.004  0.1379 -0.6640  0.1747
16657TIP3    H271463   4.969   5.490   1.038  0.1814  0.3028  1.6559
16658TIP3   OH271464   4.060   6.641   4.504  0.5957  0.7351  0.6094
16658TIP3    H171465   4.017   6.714   4.459  0.2243 -0.3647 -0.9064
16658TIP3    H271466   4.151   6.647   4.478  0.2271 -0.4336 -1.1648
16659TIP3   OH271467   1.560   4.841   1.043 -0.0012 -0.0242  0.3592
16659TIP3    H171468   1.491   4.785   1.080 -1.3580  0.5668 -1.2034
16659TIP3    H271469   1.540   4.928   1.076 -1.2999  0.5337 -1.7569
16660TIP3   OH271470   1.185   4.109   4.363  0.1177 -0.5170 -0.4657
16660TIP3    H171471   1.126   4.048   4.319 -0.5335  0.1748 -0.5679
16660TIP3    H271472   1.138   4.136   4.442  0.5843 -0.4811 -0.1939
16661TIP3   OH271473   0.510   2.539  16.426  0.1708  0.6387 -0.4852
16661TIP3    H171474   0.476   2.551  16.514  1.6432  2.2779 -0.0849
16661TIP3    H271475   0.466   2.606  16.374 -0.3216 -0.0037 -0.9290
16662TIP3   OH271476   3.421   5.258  15.740 -0.2018  0.1597  0.3728
16662TIP3    H171477   3.365   5.205  15.797 -0.3143  1.0452  1.1115
16662TIP3    H271478   3.446   5.332  15.795  1.4094 -0.0392 -0.0639
16663TIP3   OH271479   3.643   5.180  15.270 -0.7212 -0.0946  1.1268
16663TIP3    H171480   3.658   5.186  15.176  0.2413  0.1007  1.2849
16663TIP3    H271481   3.641   5.271  15.300  1.0108 -0.1700  1.5840
16664TIP3   OH271482   0.550   2.495  17.050  0.2455  0.7207  0.0305
16664TIP3    H171483   0.487   2.436  17.093 -0.7744  1.8270  0.1067
16664TIP3    H271484   0.507   2.580  17.051  0.8952  1.1123 -1.7343
16665TIP3   OH271485   2.942   2.219  12.549  0.1072 -0.1367 -0.0899
16665TIP3    H171486   2.923   2.175  12.466 -0.0530 -0.4038  0.0903
16665TIP3    H271487   3.034   2.199  12.566  0.6063  1.2312 -1.0104
16666TIP3   OH271488   6.702   0.844  11.617 -0.2323 -0.0673  0.2129
16666TIP3    H171489   6.745   0.856  11.702 -0.1051 -0.5664  0.2203
16666TIP3    H271490   6.634   0.912  11.615  1.8147  2.0772 -0.6462
16667TIP3   OH271491   1.383   2.451   4.174 -0.8218 -0.3347 -0.1752
16667TIP3    H171492   1.345   2.387   4.235 -2.3787 -1.0058 -1.7527
16667TIP3    H271493   1.311   2.473   4.115  0.2691  1.2994 -0.9608
16668TIP3   OH271494   2.387   1.582  14.897 -0.1714 -0.0601  0.5878
16668TIP3    H171495   2.339   1.597  14.979 -1.1313 -0.7095  0.1540
16668TIP3    H271496   2.335   1.518  14.850  0.4587  0.1932 -0.4813
16669TIP3   OH271497   3.233   4.668  16.327 -0.7661  0.1822 -0.4978
16669TIP3    H171498   3.229   4.690  16.420  0.4061 -0.4880 -0.2708
16669TIP3    H271499   3.195   4.580  16.322 -0.8285  0.2171 -0.6555
16670TIP3   OH271500   4.778   5.204   1.080 -0.2068 -0.2577  0.0904
16670TIP3    H171501   4.799   5.137   1.145 -0.7631  1.5531  2.2693
16670TIP3    H271502   4.717   5.161   1.020 -0.6917 -1.6570  1.5089
16671TIP3   OH271503   3.307   6.245   4.199 -0.2505 -0.3138 -0.1627
16671TIP3    H171504   3.260   6.315   4.155  0.7452  1.5361  1.5237
16671TIP3    H271505   3.241   6.201   4.252 -0.6440  0.2572 -0.1753
16672TIP3   OH271506   1.125   5.402  13.562  0.1800 -0.2619 -0.2843
16672TIP3    H171507   1.153   5.351  13.637  2.3978  1.5123  0.2085
16672TIP3    H271508   1.036   5.431  13.584  0.2189 -1.0347  0.9423
16673TIP3   OH271509   0.512   1.780  14.484  0.2367 -0.2783  0.1222
16673TIP3    H171510   0.546   1.827  14.407  0.1125  0.4535  0.4980
16673TIP3    H271511   0.575   1.800  14.553 -1.7045  2.4860  1.2814
16674TIP3   OH271512   5.512   0.595   5.424  0.5180 -0.0493 -0.2189
16674TIP3    H171513   5.443   0.625   5.364  0.7556 -1.5874 -1.3044
16674TIP3    H271514   5.567   0.672   5.437 -0.8448  0.9510 -0.0884
16675TIP3   OH271515   6.244   3.466   3.338 -0.6089 -0.0329  0.3514
16675TIP3    H171516   6.329   3.466   3.382  0.1578 -2.5609 -0.8831
16675TIP3    H271517   6.211   3.376   3.349 -2.8683  0.7206  0.2928
16676TIP3   OH271518   3.396   0.094   5.778  0.1913  0.0953  0.2826
16676TIP3    H171519   3.396   0.178   5.824  0.2225  0.4362 -0.3269
16676TIP3    H271520   3.488   0.068   5.775  0.5145  1.2831 -1.7197
16677TIP3   OH271521   2.258   5.865   3.119  0.0641 -0.2610  0.4052
16677TIP3    H171522   2.169   5.849   3.148 -0.0200  0.0202  0.3096
16677TIP3    H271523   2.280   5.950   3.156 -0.1633  0.2628 -0.6119
16678TIP3   OH271524   4.642   6.046   4.535  0.1945 -0.1384 -0.1022
16678TIP3    H171525   4.643   6.094   4.617  1.2035  0.6079 -0.5326
16678TIP3    H271526   4.554   6.061   4.499 -0.5248 -1.1015  1.1709
16679TIP3   OH271527   3.977   6.645  12.655 -0.3867 -0.0877 -0.3758
16679TIP3    H171528   3.921   6.610  12.725 -1.4583  1.4821 -0.3942
16679TIP3    H271529   4.032   6.571  12.629 -1.6939 -1.3919  0.4052
16680TIP3   OH271530   0.391   0.624   3.327 -0.3208 -0.0862 -0.5050
16680TIP3    H171531   0.304   0.663   3.318  0.0425  1.0113  0.4016
16680TIP3    H271532   0.409   0.586   3.241 -1.8413 -0.6968 -0.5981
16681TIP3   OH271533   6.614   2.735  16.300  0.3119  0.3274  0.3939
16681TIP3    H171534   6.682   2.679  16.338 -1.1561 -1.5089  0.4748
16681TIP3    H271535   6.580   2.785  16.374  1.8085  1.6194  0.2781
16682TIP3   OH271536   5.205   2.307  10.980  0.0526 -0.3270  0.5090
16682TIP3    H171537   5.243   2.265  11.057  1.6065 -1.3090 -0.7257
16682TIP3    H271538   5.138   2.366  11.015  1.8462  0.5256  2.7025
16683TIP3   OH271539   6.708   2.734   3.305  0.7143 -0.2312  0.7402
16683TIP3    H171540   6.765   2.751   3.229  0.2979 -0.6392  0.3271
16683TIP3    H271541   6.769   2.717   3.377  1.1524  1.7520  0.9158
16684TIP3   OH271542   3.336   4.768   3.202 -0.0881  0.7625 -0.0389
16684TIP3    H171543   3.400   4.821   3.250  2.2604 -0.2134 -1.8680
16684TIP3    H271544   3.303   4.827   3.134 -0.5449  1.0161  0.3916
16685TIP3   OH271545   0.795   5.444  12.216 -0.8355  0.4155  0.0416
16685TIP3    H171546   0.843   5.502  12.276  1.5880  0.9958 -2.2611
16685TIP3    H271547   0.703   5.461  12.235 -0.1768  2.2505  2.0007
16686TIP3   OH271548   1.284   5.693  12.248 -0.0739  0.0182 -0.2283
16686TIP3    H171549   1.225   5.626  12.282  0.4001  0.1545  0.9168
16686TIP3    H271550   1.230   5.748  12.192 -0.9142 -0.1789  0.3815
16687TIP3   OH271551   0.818   6.181  14.525 -0.1485 -0.1522  0.3664
16687TIP3    H171552   0.724   6.170  14.537 -0.0413 -2.1170 -0.1190
16687TIP3    H271553   0.857   6.148  14.606  0.1456 -0.5823  0.0547
16688TIP3   OH271554   6.135   5.183   2.715 -0.1181  0.4934  0.4356
16688TIP3    H171555   6.137   5.089   2.736  1.0215  0.1624 -0.9787
16688TIP3    H271556   6.207   5.221   2.765 -0.6092  0.6292  1.0446
16689TIP3   OH271557   4.669   0.076   5.257 -0.2216 -0.4299 -0.0794
16689TIP3    H171558   4.762   0.081   5.237 -0.1161  1.6311  0.6062
16689TIP3    H271559   4.663   0.100   5.350 -1.3696 -1.3169  0.0972
16690TIP3   OH271560   4.689   3.770  16.890  0.5422  0.4377  0.6567
16690TIP3    H171561   4.724   3.838  16.832  0.3056  0.5328  0.6246
16690TIP3    H271562   4.679   3.693  16.834 -0.9699  0.9057  0.2247
16691TIP3   OH271563   4.718   1.777   1.108 -0.2770  0.1843  0.5794
16691TIP3    H171564   4.778   1.715   1.065 -0.4693  0.5966 -0.3013
16691TIP3    H271565   4.645   1.723   1.136  0.4404 -0.3050  1.5549
16692TIP3   OH271566   0.414   3.856  16.628 -0.1860  0.5706 -0.2757
16692TIP3    H171567   0.338   3.850  16.570 -0.9595  0.9337  0.6795
16692TIP3    H271568   0.387   3.812  16.709  0.3314  1.3879  0.3659
16693TIP3   OH271569   4.686   4.478  15.083  0.0112  0.1902  0.2112
16693TIP3    H171570   4.622   4.446  15.147  0.7379 -0.7052  0.4957
16693TIP3    H271571   4.669   4.572  15.078  0.1128  0.3260  1.9298
16694TIP3   OH271572   3.123   1.860  14.137  0.2010 -0.3144 -0.2422
16694TIP3    H171573   3.163   1.796  14.197  0.1898 -0.9028 -0.8499
16694TIP3    H271574   3.131   1.820  14.050  0.7786  0.8085 -0.7256
16695TIP3   OH271575   5.105   6.266  13.107  0.1158  0.1607 -0.2469
16695TIP3    H171576   5.103   6.198  13.174  0.9413  0.5350  0.1729
16695TIP3    H271577   5.041   6.331  13.137  1.0836  0.7270  0.6264
16696TIP3   OH271578   5.493   1.529  10.428  0.5362 -0.3309 -0.2701
16696TIP3    H171579   5.489   1.613  10.473  0.6575  0.0844 -1.0208
16696TIP3    H271580   5.407   1.489  10.443  0.4234 -0.0035 -0.0434
16697TIP3   OH271581   2.604   1.497  13.881  0.0577  0.6433 -0.6529
16697TIP3    H171582   2.548   1.447  13.822 -0.3794 -1.3894  1.3185
16697TIP3    H271583   2.683   1.445  13.889 -0.3098  0.2942  1.2807
16698TIP3   OH271584   3.320   0.103  15.434  0.2329  0.4938 -1.1467
16698TIP3    H171585   3.395   0.044  15.437  1.7691  2.3447  1.8528
16698TIP3    H271586   3.328   0.147  15.348  1.6732 -0.4368 -1.5306
16699TIP3   OH271587   2.558   4.734  15.758 -0.7922 -0.5076 -0.0517
16699TIP3    H171588   2.496   4.662  15.775 -0.3261 -0.5146  1.7620
16699TIP3    H271589   2.529   4.804  15.816  0.3985 -0.2170  0.2052
16700TIP3   OH271590   1.490   3.949  13.023 -0.7660  0.2064  0.0835
16700TIP3    H171591   1.455   3.892  12.955  1.6789 -0.1045 -1.0161
16700TIP3    H271592   1.425   4.020  13.031 -2.1406 -0.8692 -1.0197
16701TIP3   OH271593   3.635   6.729  16.769 -0.0225  0.2498  0.1783
16701TIP3    H171594   3.562   6.737  16.829  0.2529  2.4308  0.3110
16701TIP3    H271595   3.704   6.785  16.807  0.8970  0.0266 -1.0813
16702TIP3   OH271596   3.376   1.781   4.899  0.0939 -0.5122  0.2480
16702TIP3    H171597   3.420   1.702   4.927  1.0930  0.1357  0.5466
16702TIP3    H271598   3.340   1.819   4.979  0.5690 -0.0946  0.2673
16703TIP3   OH271599   2.357   6.424   5.842 -0.6863 -0.3253 -0.1676
16703TIP3    H171600   2.327   6.352   5.896  0.0687 -1.1125 -0.7778
16703TIP3    H271601   2.320   6.502   5.883 -0.1857 -0.9080  1.4295
16704TIP3   OH271602   5.354   4.756   0.669  0.1879  0.0323  0.6082
16704TIP3    H171603   5.287   4.688   0.664 -1.1919  1.3215  0.6048
16704TIP3    H271604   5.397   4.753   0.584 -0.5277 -0.1998  0.2427
16705TIP3   OH271605   6.775   1.675  14.694  0.3755 -0.5257 -0.2669
16705TIP3    H171606   6.726   1.593  14.698  0.2673 -0.4599 -0.2075
16705TIP3    H271607   6.799   1.692  14.785  1.4984 -1.1430 -0.4274
16706TIP3   OH271608   0.773   4.982  13.948  0.6989 -0.0021 -0.2897
16706TIP3    H171609   0.793   4.981  13.855  1.0207  0.3077 -0.2245
16706TIP3    H271610   0.833   4.918  13.987  0.8360  0.1590 -0.2385
16707TIP3   OH271611   6.506   4.458   4.883  0.7477 -0.0057  0.7876
16707TIP3    H171612   6.580   4.405   4.853 -0.4131 -1.5693  0.6181
16707TIP3    H271613   6.489   4.518   4.810  1.3989 -0.0787  0.5619
16708TIP3   OH271614   6.452   6.521  17.053  0.1024 -0.0505 -0.0581
16708TIP3    H171615   6.527   6.465  17.073  2.3832  1.8622 -2.4780
16708TIP3    H271616   6.402   6.473  16.987  1.6308  0.3697 -1.5756
16709TIP3   OH271617   1.722   1.776  11.250 -0.2219 -0.8675 -0.1333
16709TIP3    H171618   1.676   1.715  11.192  0.8244 -0.3348 -1.5820
16709TIP3    H271619   1.668   1.855  11.248 -0.9189 -1.2859  0.7710
16710TIP3   OH271620   4.842   2.963  13.297 -0.3585  0.4540  0.2794
16710TIP3    H171621   4.751   2.985  13.319 -0.9626 -2.5852  1.3183
16710TIP3    H271622   4.890   2.974  13.379 -0.5721 -1.3630  0.6841
16711TIP3   OH271623   2.411   2.683   0.005  0.4236 -0.3397 -0.0439
16711TIP3    H171624   2.332   2.635   0.031 -0.6375  1.0026 -0.6717
16711TIP3    H271625   2.429   2.741   0.079 -0.3478  0.7472 -0.6880
16712TIP3   OH271626   2.293   6.445   2.822  0.2062  0.0121  0.0193
16712TIP3    H171627   2.360   6.512   2.834 -1.1518  1.3201  0.6598
16712TIP3    H271628   2.245   6.444   2.905 -1.9856  0.7789 -1.1469
16713TIP3   OH271629   2.428   4.005  16.018 -0.7647  0.6186 -0.0697
16713TIP3    H171630   2.491   3.963  15.960 -0.9824  0.4835 -0.2068
16713TIP3    H271631   2.481   4.066  16.070 -0.5490  0.6430 -0.3139
16714TIP3   OH271632   1.050   4.942   2.028  0.0191  0.1374 -0.5506
16714TIP3    H171633   0.956   4.921   2.024  0.1863 -0.7613 -0.0757
16714TIP3    H271634   1.053   5.037   2.039 -0.8282  0.2152 -0.8866
16715TIP3   OH271635   1.725   4.952  14.997  0.0471  0.2102  0.1621
16715TIP3    H171636   1.663   5.019  15.027  0.7243  0.8520  0.1449
16715TIP3    H271637   1.782   4.997  14.936 -2.0075 -1.2965 -3.1741
16716TIP3   OH271638   1.725   3.685  12.345  0.2836 -0.2978  0.3643
16716TIP3    H171639   1.715   3.739  12.267 -2.7772 -0.9868  0.1309
16716TIP3    H271640   1.721   3.747  12.418  1.3815  0.1762  0.0420
16717TIP3   OH271641   3.923   5.594  12.055  0.1510 -0.4702 -0.9117
16717TIP3    H171642   3.870   5.593  12.135  0.0997 -0.4090 -0.9448
16717TIP3    H271643   3.934   5.502  12.033  1.9121 -0.6169  0.3136
16718TIP3   OH271644   3.876   3.948   3.728  0.0466  0.5028 -0.6605
16718TIP3    H171645   3.902   3.924   3.817  1.9731  1.8747 -0.7816
16718TIP3    H271646   3.928   3.891   3.671  0.4984  1.1558 -0.9085
16719TIP3   OH271647   2.785   1.691   0.220 -0.3332 -0.0123  0.0771
16719TIP3    H171648   2.794   1.633   0.144  1.0197  0.2365  0.0148
16719TIP3    H271649   2.814   1.638   0.294 -2.9572 -0.7149  0.7012
16720TIP3   OH271650   1.052   5.453  14.333  0.0491 -0.4191  0.4952
16720TIP3    H171651   1.065   5.477  14.241  3.2172 -2.4524  0.2387
16720TIP3    H271652   1.099   5.520  14.382  1.3855 -1.2106  0.3443
16721TIP3   OH271653   2.642   6.358   0.094 -0.2736  0.0339  0.4771
16721TIP3    H171654   2.567   6.323   0.047 -0.7752  2.3673 -0.6402
16721TIP3    H271655   2.635   6.321   0.182 -2.5515 -0.0736  0.3024
16722TIP3   OH271656   1.710   4.764   3.014 -0.1759 -0.7499 -0.2838
16722TIP3    H171657   1.786   4.812   2.981 -1.6499  0.7521 -1.6858
16722TIP3    H271658   1.728   4.673   2.993  0.5393 -0.2274 -2.0796
16723TIP3   OH271659   4.155   6.253   0.371  0.0240 -0.1000 -0.2789
16723TIP3    H171660   4.064   6.279   0.381  0.5014  1.5944 -0.0521
16723TIP3    H271661   4.201   6.296   0.443  0.9283 -1.3830 -0.0534
16724TIP3   OH271662   1.751   5.377  16.194  0.2377  0.5894  0.8072
16724TIP3    H171663   1.679   5.439  16.182 -0.9782 -0.7796  0.6434
16724TIP3    H271664   1.782   5.394  16.283 -2.7434 -1.1023  2.3585
16725TIP3   OH271665   3.229   6.494  13.732 -0.3929  0.0789  0.2491
16725TIP3    H171666   3.185   6.546  13.665 -0.7325  0.0569  0.4524
16725TIP3    H271667   3.233   6.552  13.808 -0.4158 -0.0598  0.3532
16726TIP3   OH271668   6.229   2.361  12.499  0.2228  0.2363 -0.0859
16726TIP3    H171669   6.134   2.356  12.510  0.2242  0.8109  0.2686
16726TIP3    H271670   6.252   2.286  12.444 -0.5689  0.7082 -1.0826
16727TIP3   OH271671   6.166   1.249  11.113 -0.5921 -0.2172 -0.3012
16727TIP3    H171672   6.137   1.211  11.030 -0.3788  0.8981 -0.9014
16727TIP3    H271673   6.260   1.261  11.103 -0.5371 -0.2316  0.1701
16728TIP3   OH271674   5.475   0.723  15.052 -0.7079 -0.5181 -0.1954
16728TIP3    H171675   5.503   0.774  15.129  2.6478 -1.1645 -0.8500
16728TIP3    H271676   5.514   0.769  14.978 -0.1932 -2.3361 -1.0880
16729TIP3   OH271677   2.329   4.109  11.626 -0.7896  0.0809  0.4647
16729TIP3    H171678   2.358   4.020  11.648 -1.4055 -0.5222 -1.0132
16729TIP3    H271679   2.296   4.102  11.536 -1.5259  1.6592  0.5771
16730TIP3   OH271680   1.853   1.620  13.191 -0.1537  0.4804  0.4253
16730TIP3    H171681   1.844   1.663  13.106 -1.5355  0.1044  0.3562
16730TIP3    H271682   1.772   1.570  13.201  0.1660  0.2016  1.7856
16731TIP3   OH271683   0.424   1.489   5.577  0.3682 -0.5515  0.4992
16731TIP3    H171684   0.384   1.405   5.555 -0.4213  0.1410 -0.8154
16731TIP3    H271685   0.440   1.484   5.672 -1.5863 -1.3884  0.8281
16732TIP3   OH271686   0.984   5.326  15.034 -0.1670 -0.1550  0.0866
16732TIP3    H171687   0.941   5.250  15.073 -1.8881  0.6636 -0.1098
16732TIP3    H271688   0.912   5.387  15.016  0.8730  0.5465 -1.9647
16733TIP3   OH271689   1.851   1.324  17.026  0.1860 -0.1394  0.0666
16733TIP3    H171690   1.918   1.381  16.988  0.7680 -1.8892 -1.7040
16733TIP3    H271691   1.855   1.340  17.120  1.0429  1.9286 -0.2837
16734TIP3   OH271692   6.329   5.873   2.067  0.2907 -0.5722  0.0492
16734TIP3    H171693   6.401   5.839   2.014  0.1088  0.5257 -0.9226
16734TIP3    H271694   6.250   5.834   2.029  0.3300 -1.8264  1.1520
16735TIP3   OH271695   5.712   1.534   2.115 -0.0834 -0.4275 -0.1362
16735TIP3    H171696   5.641   1.530   2.051  0.0808  0.5637 -0.3938
16735TIP3    H271697   5.792   1.530   2.062  0.1129  3.0139 -0.3008
16736TIP3   OH271698   0.066   1.228  16.141 -0.1211  0.0549 -0.5338
16736TIP3    H171699   0.150   1.193  16.109  0.0298  0.4507 -0.5727
16736TIP3    H271700   0.035   1.162  16.204  0.0281 -0.2821 -0.8062
16737TIP3   OH271701   3.971   0.398   5.367  0.3068 -0.2255  0.6278
16737TIP3    H171702   4.047   0.438   5.324 -1.1558 -0.1981 -2.2171
16737TIP3    H271703   3.906   0.469   5.370 -0.8915 -1.1948 -0.6538
16738TIP3   OH271704   1.627   5.122   4.029  0.4463  0.5036  0.0369
16738TIP3    H171705   1.590   5.134   3.942  0.9427  2.3430  0.0358
16738TIP3    H271706   1.583   5.188   4.083  0.4273 -0.3484  1.0906
16739TIP3   OH271707   3.626   5.153  16.476  0.1522  0.2705  0.3106
16739TIP3    H171708   3.719   5.178  16.477 -0.0512  1.1133 -0.1666
16739TIP3    H271709   3.587   5.212  16.410 -0.5183 -0.8047 -0.2757
16740TIP3   OH271710   5.799   2.658   2.572  0.1001 -0.1065  0.7356
16740TIP3    H171711   5.717   2.658   2.522 -0.7820 -0.8539  2.1365
16740TIP3    H271712   5.830   2.568   2.568 -1.1329 -0.7367  3.2702
16741TIP3   OH271713   5.344   1.246  14.243 -0.0433  0.7307  0.2378
16741TIP3    H171714   5.303   1.330  14.222  0.3838  0.9400  0.2305
16741TIP3    H271715   5.437   1.267  14.257  0.1503  0.1984 -0.2024
16742TIP3   OH271716   2.214   0.134  10.819 -0.2978 -0.0121  0.1380
16742TIP3    H171717   2.185   0.096  10.735  0.6183 -1.1963  0.3277
16742TIP3    H271718   2.247   0.220  10.796 -0.8239  0.0112 -0.5841
16743TIP3   OH271719   2.370   3.115   6.073  0.5325  0.0179  0.4866
16743TIP3    H171720   2.281   3.082   6.086  0.4626  0.1358  0.3074
16743TIP3    H271721   2.415   3.094   6.155 -0.1021  1.3614  1.2263
16744TIP3   OH271722   0.452   0.411  14.540  0.4634 -0.4122  0.4718
16744TIP3    H171723   0.396   0.357  14.484 -1.7727  3.2035 -1.2078
16744TIP3    H271724   0.407   0.413  14.624  0.1290 -0.5723  0.2987
16745TIP3   OH271725   1.711   5.220   2.592  0.0536 -0.4767 -0.3973
16745TIP3    H171726   1.648   5.183   2.655  0.1094  0.1578  0.0419
16745TIP3    H271727   1.702   5.315   2.603  0.6513 -0.3769 -0.7687
16746TIP3   OH271728   1.308   0.495   4.307 -0.2032  0.4415  0.2571
16746TIP3    H171729   1.292   0.402   4.322 -0.3868  0.5433  0.6896
16746TIP3    H271730   1.360   0.498   4.226  1.4791 -0.1546  1.2722
16747TIP3   OH271731   1.543   3.054   5.717 -0.5333 -0.0256 -0.0596
16747TIP3    H171732   1.487   3.122   5.753  0.6522  0.2341  1.3711
16747TIP3    H271733   1.602   3.101   5.657  0.9617  0.4358  1.6951
16748TIP3   OH271734   0.285   6.518  14.049  0.3824 -0.2753 -0.1525
16748TIP3    H171735   0.350   6.584  14.074 -0.0786  0.4214 -0.7414
16748TIP3    H271736   0.321   6.435  14.080  1.3493  0.1564 -0.0916
16749TIP3   OH271737   3.527   1.617   1.352  0.1264 -0.2328 -0.0944
16749TIP3    H171738   3.493   1.596   1.265  1.8504  1.9180 -1.3759
16749TIP3    H271739   3.461   1.675   1.390 -0.2066 -0.4560 -0.3289
16750TIP3   OH271740   2.847   4.580  10.684 -0.8464  0.3282 -0.1842
16750TIP3    H171741   2.830   4.500  10.635 -3.8591  1.7301 -1.6954
16750TIP3    H271742   2.790   4.646  10.644 -0.3195  2.6524  2.5316
16751TIP3   OH271743   5.107   3.482   5.211  0.0944 -0.2063 -0.0868
16751TIP3    H171744   5.148   3.418   5.153  1.5418  0.5925 -0.0085
16751TIP3    H271745   5.058   3.539   5.153 -1.4932 -1.5404 -0.1254
16752TIP3   OH271746   3.947   4.012  12.741  0.2901  0.2338 -0.0759
16752TIP3    H171747   4.012   4.037  12.806  1.9907 -0.6319 -1.3791
16752TIP3    H271748   3.936   4.090  12.686  0.0680  0.4359  0.2500
16753TIP3   OH271749   5.814   0.963   1.498  0.2890  0.1426 -0.4923
16753TIP3    H171750   5.750   0.940   1.431 -1.6947  2.5918  0.4044
16753TIP3    H271751   5.773   0.937   1.580  0.3268  1.8373  0.1059
16754TIP3   OH271752   1.541   4.167   1.176  0.0302 -0.2319 -0.0406
16754TIP3    H171753   1.541   4.081   1.133  2.1548  0.0208 -0.6469
16754TIP3    H271754   1.503   4.151   1.263  0.5324 -1.8195 -0.0901
16755TIP3   OH271755   6.661   1.140   4.163  0.6803  0.2251 -0.1574
16755TIP3    H171756   6.669   1.113   4.072 -2.6391  1.5861 -0.9843
16755TIP3    H271757   6.578   1.102   4.192  0.3026  2.0878  1.4059
16756TIP3   OH271758   5.967   3.980   0.236  0.0087 -0.0220  0.5327
16756TIP3    H171759   5.877   4.002   0.260  0.2032  1.4580 -0.0018
16756TIP3    H271760   6.013   3.973   0.320  0.0130  2.1290  0.7760
16757TIP3   OH271761   4.621   6.792   2.083 -0.1260  0.7638 -0.0712
16757TIP3    H171762   4.622   6.714   2.139 -1.8081 -0.1825 -1.2332
16757TIP3    H271763   4.590   6.759   1.998  0.4784  2.4783 -1.0067
16758TIP3   OH271764   4.069   1.210  16.242 -0.1401 -0.1899  0.0941
16758TIP3    H171765   3.995   1.206  16.303 -0.9681  3.7580 -0.3474
16758TIP3    H271766   4.140   1.248  16.294  0.3974 -0.5118 -0.4071
16759TIP3   OH271767   6.419   6.749  13.704 -0.0139  0.2524  0.3637
16759TIP3    H171768   6.513   6.764  13.690 -0.3308  0.6037 -1.7132
16759TIP3    H271769   6.399   6.673  13.649 -1.1102  0.6985  0.1326
16760TIP3   OH271770   1.755   2.688   5.453 -0.0014  0.2616 -0.0067
16760TIP3    H171771   1.685   2.745   5.485  0.3934  0.3677  0.6986
16760TIP3    H271772   1.829   2.707   5.511  1.0461  1.1404 -1.5639
16761TIP3   OH271773   0.174   0.768   2.816  0.2642 -0.2369 -0.0679
16761TIP3    H171774   0.233   0.842   2.806 -1.8194  2.1339  3.1059
16761TIP3    H271775   0.115   0.774   2.740  1.2350  0.1994 -0.8112
16762TIP3   OH271776   6.031   6.763   5.948 -0.1604 -0.2379  0.4133
16762TIP3    H171777   6.035   6.831   6.015 -0.6566 -0.6851  0.9103
16762TIP3    H271778   6.120   6.729   5.944  0.2365  0.8343 -0.2688
16763TIP3   OH271779   2.347   4.904   0.717  0.1425  0.0451 -0.1415
16763TIP3    H171780   2.271   4.846   0.719 -0.9064  1.3756 -0.5673
16763TIP3    H271781   2.388   4.893   0.803  0.1220 -1.4939 -0.2990
16764TIP3   OH271782   5.410   4.299  12.063  0.1068  0.6922 -0.3074
16764TIP3    H171783   5.373   4.375  12.108  0.5913  1.8546 -1.8323
16764TIP3    H271784   5.356   4.288  11.985 -1.4480 -2.0111  0.9913
16765TIP3   OH271785   4.136   4.117   5.742 -0.2829 -0.5944  0.2667
16765TIP3    H171786   4.067   4.064   5.782 -1.5020 -0.1593 -1.1823
16765TIP3    H271787   4.098   4.149   5.660  0.9203  1.3560  0.4053
16766TIP3   OH271788   6.390   3.367  16.589 -0.2321  0.0648  0.3563
16766TIP3    H171789   6.303   3.332  16.569 -0.4121  0.6130  0.1786
16766TIP3    H271790   6.415   3.418  16.512  0.0496  0.2895  0.5934
16767TIP3   OH271791   4.045   0.290   3.300  0.3516 -0.3445 -0.0684
16767TIP3    H171792   4.009   0.207   3.331  1.4173 -1.5056 -1.7620
16767TIP3    H271793   4.120   0.264   3.246  0.5721  1.7123 -0.8138
16768TIP3   OH271794   0.906   4.355  11.018  0.1789 -0.4229 -0.0319
16768TIP3    H171795   0.889   4.299  10.942 -0.7487  1.3117 -1.1654
16768TIP3    H271796   0.823   4.400  11.034 -0.4040 -2.4096  3.5482
16769TIP3   OH271797   6.264   6.292   0.685 -0.6589 -0.1914  1.0149
16769TIP3    H171798   6.285   6.317   0.775 -1.4697 -0.7124  1.3553
16769TIP3    H271799   6.190   6.347   0.660 -1.0361 -0.7003  0.9970
16770TIP3   OH271800   5.846   4.019  12.012 -0.1675 -0.1434  0.3207
16770TIP3    H171801   5.822   3.991  11.924  0.6182 -2.1830  0.6951
16770TIP3    H271802   5.766   4.056  12.049 -0.8146 -0.3715 -0.8235
16771TIP3   OH271803   4.636   5.594  14.170  0.1004 -0.2289 -0.1380
16771TIP3    H171804   4.622   5.658  14.100 -1.6317  0.1202  0.4591
16771TIP3    H271805   4.662   5.647  14.245  0.7090 -0.4688 -0.1746
16772TIP3   OH271806   6.105   6.671   3.485 -0.2466 -0.1474  0.2912
16772TIP3    H171807   6.200   6.660   3.490 -0.0331  1.4269  0.3681
16772TIP3    H271808   6.075   6.669   3.576 -0.4399 -1.5840  0.2198
16773TIP3   OH271809   3.913   4.692  15.918 -0.2396  0.4823  0.9981
16773TIP3    H171810   3.891   4.690  15.825 -1.3712 -0.7616  1.2563
16773TIP3    H271811   3.878   4.776  15.949 -3.6889 -0.8028  1.0973
16774TIP3   OH271812   2.001   2.906   4.037  0.5029 -0.3289  0.1439
16774TIP3    H171813   2.015   2.867   3.951  0.0635  0.1228 -0.1375
16774TIP3    H271814   2.048   2.848   4.097  0.2549 -1.0303 -0.3146
16775TIP3   OH271815   6.303   3.517  12.051 -0.0491 -0.1480  0.1873
16775TIP3    H171816   6.247   3.500  11.975 -0.5991  2.0605  0.0031
16775TIP3    H271817   6.242   3.536  12.122  0.3753  1.7551  0.1228
16776TIP3   OH271818   4.581   5.319  15.628 -0.6207  0.3112  0.1616
16776TIP3    H171819   4.655   5.370  15.660 -0.5545  0.8690 -0.8354
16776TIP3    H271820   4.518   5.320  15.700 -0.1654  0.8912  0.5607
16777TIP3   OH271821   5.455   0.964  16.678 -0.1195 -0.1830  0.0762
16777TIP3    H171822   5.393   1.009  16.735  0.3912  0.4568  0.1456
16777TIP3    H271823   5.485   1.032  16.617  0.9240 -0.3311  0.3955
16778TIP3   OH271824   4.268   3.752  13.937 -0.0294 -0.1147  0.2094
16778TIP3    H171825   4.342   3.753  13.877 -0.1135 -1.1579  0.0816
16778TIP3    H271826   4.204   3.694  13.895 -0.5784  0.1035  0.7288
16779TIP3   OH271827   1.258   0.999  16.148  0.5078 -0.0905 -0.2270
16779TIP3    H171828   1.323   1.057  16.109  1.0194  0.2407  1.0506
16779TIP3    H271829   1.229   0.943  16.076  3.3825 -1.3600 -0.5565
16780TIP3   OH271830   2.368   6.195   3.910  0.1017  0.2860  0.5209
16780TIP3    H171831   2.348   6.104   3.933  2.3267 -0.2351  0.5916
16780TIP3    H271832   2.302   6.246   3.957 -0.1372 -1.1865  1.8802
16781TIP3   OH271833   5.455   1.152  14.708 -0.5553  0.8424 -0.1455
16781TIP3    H171834   5.534   1.187  14.749 -0.8881  0.6141  0.7190
16781TIP3    H271835   5.481   1.066  14.675 -0.2420  1.0965 -0.5729
16782TIP3   OH271836   2.512   1.402   5.045  0.4162  0.0048 -0.2176
16782TIP3    H171837   2.554   1.467   5.101 -0.8346  0.6364  0.0211
16782TIP3    H271838   2.485   1.333   5.105  0.1882  0.0924 -0.2194
16783TIP3   OH271839   3.440   2.210   2.467  0.2515 -0.0473 -0.3268
16783TIP3    H171840   3.357   2.168   2.443  0.0446 -0.7366  1.4117
16783TIP3    H271841   3.480   2.234   2.384 -2.4305  1.8288 -1.2174
16784TIP3   OH271842   3.139   2.534  11.449  0.4405 -0.3816 -0.5577
16784TIP3    H171843   3.098   2.450  11.471 -0.0511  0.1438  0.6065
16784TIP3    H271844   3.133   2.539  11.353 -1.2831 -0.7997 -0.5079
16785TIP3   OH271845   1.290   6.184   2.854  0.1998  0.4707  0.1288
16785TIP3    H171846   1.286   6.090   2.868  0.9245  0.1032 -1.7517
16785TIP3    H271847   1.382   6.207   2.866 -0.2698  1.3237  2.4685
16786TIP3   OH271848   6.370   5.339   3.304 -0.1396 -0.0901 -0.2533
16786TIP3    H171849   6.305   5.346   3.374  0.1206 -1.9533  0.2480
16786TIP3    H271850   6.336   5.393   3.233  0.0956  2.7400  1.6359
16787TIP3   OH271851   3.885   4.012  10.294  0.0263  0.5716  0.4545
16787TIP3    H171852   3.842   4.061  10.224 -1.3334 -0.0850  0.8058
16787TIP3    H271853   3.825   3.940  10.314  0.7851  0.2526  1.7019
16788TIP3   OH271854   2.837   6.151  13.642 -0.3279  0.3034  0.3277
16788TIP3    H171855   2.781   6.181  13.713 -1.3528  0.9440 -0.7288
16788TIP3    H271856   2.788   6.081  13.600  0.3516 -0.1975  0.3566
16789TIP3   OH271857   2.877   1.940  15.842  0.7211  0.6146 -0.0114
16789TIP3    H171858   2.877   2.009  15.908  1.1770  2.0739 -1.4521
16789TIP3    H271859   2.846   1.862  15.887 -2.6140  2.3802  1.0564
16790TIP3   OH271860   2.667   3.750  13.349  0.3649  0.0559 -0.6602
16790TIP3    H171861   2.649   3.692  13.276 -2.3918  0.2947 -0.2461
16790TIP3    H271862   2.763   3.746  13.359  0.7494 -0.7025 -3.6248
16791TIP3   OH271863   5.736   5.884  14.829 -0.3055  0.3341 -0.0887
16791TIP3    H171864   5.641   5.870  14.825 -0.2472 -0.4380  0.8510
16791TIP3    H271865   5.774   5.804  14.794  0.0242  1.1559 -1.7251
16792TIP3   OH271866   2.181   4.434  14.859  0.1673  0.3804  0.5344
16792TIP3    H171867   2.270   4.420  14.828 -0.4071  1.0390 -1.5797
16792TIP3    H271868   2.163   4.526  14.841 -1.3076 -0.0028 -0.1775
16793TIP3   OH271869   5.195   3.727  14.938  0.9815 -0.0933  0.1452
16793TIP3    H171870   5.260   3.657  14.949  1.3078 -0.0018 -1.1016
16793TIP3    H271871   5.127   3.688  14.883 -0.3922 -0.4044  1.9623
16794TIP3   OH271872   5.282   6.205  13.394 -0.6510  0.1448 -0.5649
16794TIP3    H171873   5.223   6.137  13.363 -0.8086 -0.6914  1.3786
16794TIP3    H271874   5.333   6.163  13.464  0.3960  1.5700 -0.4120
16795TIP3   OH271875   1.274   6.157   1.189 -0.0318 -0.3059 -0.2575
16795TIP3    H171876   1.235   6.201   1.264  0.3765 -1.4605  0.6719
16795TIP3    H271877   1.204   6.099   1.156  0.0448 -0.3890 -0.2744
16796TIP3   OH271878   0.054   1.691  15.717 -0.1495 -0.1891  0.0577
16796TIP3    H171879   0.097   1.610  15.688 -1.5323 -1.7378  2.0241
16796TIP3    H271880   0.021   1.670  15.805 -1.9291  1.9993 -0.0057
16797TIP3   OH271881   2.651   6.205   5.726  0.1424  0.3663 -0.3274
16797TIP3    H171882   2.674   6.251   5.806  2.2609 -1.9556  0.5138
16797TIP3    H271883   2.629   6.116   5.754  1.0085 -0.5302 -2.3045
16798TIP3   OH271884   2.050   2.237   1.881 -0.4204 -0.3700  0.2565
16798TIP3    H171885   2.117   2.176   1.850  0.1740  0.4753 -0.2113
16798TIP3    H271886   2.008   2.268   1.801 -1.0395 -0.5220  0.5196
16799TIP3   OH271887   1.725   1.035  11.493 -0.1913 -0.2062 -0.0911
16799TIP3    H171888   1.768   1.089  11.559 -0.5383 -3.4902  3.0853
16799TIP3    H271889   1.790   0.969  11.469 -1.5593 -1.9017  0.6455
16800TIP3   OH271890   6.118   1.124   4.091 -1.0002 -0.3669  0.0393
16800TIP3    H171891   6.058   1.150   4.160 -0.0514  2.3797 -0.0460
16800TIP3    H271892   6.163   1.047   4.126 -0.8061  0.7207  2.3568
16801TIP3   OH271893   6.006   1.573  11.100  0.4329  0.4382  0.0185
16801TIP3    H171894   6.076   1.635  11.075  0.0250  1.0228  0.3187
16801TIP3    H271895   6.046   1.487  11.087  1.1956  0.7619  0.1181
16802TIP3   OH271896   1.744   2.058  16.828  0.2494  0.5487  0.1009
16802TIP3    H171897   1.766   2.145  16.794 -2.3367  1.0568 -0.4703
16802TIP3    H271898   1.695   2.017  16.757 -0.9510 -0.2963  1.3781
16803TIP3   OH271899   5.806   3.392   3.018 -0.6085 -0.2434  0.7425
16803TIP3    H171900   5.780   3.410   3.108  1.1391  2.5365  0.8062
16803TIP3    H271901   5.742   3.437   2.964  0.4120  1.2846  0.7489
16804TIP3   OH271902   3.867   3.750  12.725  0.3936 -0.6676 -0.0548
16804TIP3    H171903   3.801   3.751  12.656  0.0570  0.3922  0.2690
16804TIP3    H271904   3.902   3.839  12.725 -0.9601 -0.0634  2.4335
16805TIP3   OH271905   3.487   0.090   0.645 -0.1279  0.0208 -0.0352
16805TIP3    H171906   3.456   0.006   0.612  0.0436  0.3700 -1.1214
16805TIP3    H271907   3.419   0.153   0.619 -0.6794  0.1029  1.5246
16806TIP3   OH271908   0.445   5.741   3.321  0.1739  0.3100 -0.0708
16806TIP3    H171909   0.405   5.798   3.386 -0.1560  0.6067 -0.5342
16806TIP3    H271910   0.529   5.716   3.360 -0.5903 -0.6244  1.0826
16807TIP3   OH271911   1.909   1.435   0.909  0.1849  0.3435  0.0372
16807TIP3    H171912   1.888   1.457   0.818 -0.5910  1.1216  0.3940
16807TIP3    H271913   1.839   1.476   0.960 -0.0416 -1.0894  0.9020
16808TIP3   OH271914   3.187   2.267   5.153  0.6458 -0.2535 -0.0899
16808TIP3    H171915   3.108   2.231   5.194  0.7744 -0.5331 -0.0865
16808TIP3    H271916   3.156   2.344   5.104  0.2556 -0.7949 -0.6976
16809TIP3   OH271917   4.852   6.099  14.243 -0.4700 -0.6426  0.0157
16809TIP3    H171918   4.801   6.172  14.208 -1.0096 -0.5964  0.8757
16809TIP3    H271919   4.940   6.112  14.205 -0.7142  0.1033 -0.3220
16810TIP3   OH271920   5.250   4.120  15.413  0.4107 -0.1850  0.3143
16810TIP3    H171921   5.245   4.025  15.426 -0.3466 -0.5748 -2.1923
16810TIP3    H271922   5.330   4.133  15.363 -0.3566  0.2375 -0.8530
16811TIP3   OH271923   5.796   5.322  14.966  0.3491  0.4511 -0.2468
16811TIP3    H171924   5.707   5.359  14.961  0.3745  0.4358 -0.9066
16811TIP3    H271925   5.794   5.266  15.043 -0.2950  0.2547 -0.4006
16812TIP3   OH271926   5.102   4.208   2.196 -0.2124 -0.0123  0.1630
16812TIP3    H171927   5.084   4.295   2.161 -0.8699  0.6458  2.0032
16812TIP3    H271928   5.195   4.194   2.177  0.0771  1.3749  0.3886
16813TIP3   OH271929   0.783   4.903  11.644  0.1167  0.6736  0.1672
16813TIP3    H171930   0.730   4.983  11.646 -0.4920  0.3212 -0.8496
16813TIP3    H271931   0.824   4.905  11.557  0.2847  0.0024  0.2293
16814TIP3   OH271932   4.150   5.564   1.403  0.0562  0.1901  0.2635
16814TIP3    H171933   4.084   5.530   1.343  1.4044  0.9062 -1.7622
16814TIP3    H271934   4.130   5.524   1.488 -1.6563 -1.2575 -0.7656
16815TIP3   OH271935   5.186   4.122  13.093 -0.1156  0.3403 -0.2500
16815TIP3    H171936   5.235   4.095  13.171  0.3546 -2.0992 -1.2880
16815TIP3    H271937   5.096   4.135  13.125  0.4920  1.6456  1.0684
16816TIP3   OH271938   0.951   0.449   1.291  0.2530  0.1507  0.0454
16816TIP3    H171939   0.927   0.361   1.319  1.8382 -0.2698  0.1577
16816TIP3    H271940   1.038   0.440   1.252 -0.0604  1.4663 -1.0646
16817TIP3   OH271941   1.214   0.553  11.526 -0.0612 -0.8294  0.0240
16817TIP3    H171942   1.137   0.596  11.562  0.3993 -1.1564  1.5062
16817TIP3    H271943   1.269   0.536  11.603  1.9424  0.2959 -1.0814
16818TIP3   OH271944   5.162   5.696  11.629 -0.1760  1.2967 -0.2925
16818TIP3    H171945   5.232   5.735  11.577 -0.1134  0.9151 -0.4962
16818TIP3    H271946   5.083   5.708  11.577 -0.0775  0.7120 -0.5869
16819TIP3   OH271947   4.322   0.613   1.741  0.2174 -0.2082  0.1024
16819TIP3    H171948   4.329   0.708   1.732 -1.4240  0.0127  0.7528
16819TIP3    H271949   4.322   0.580   1.651  3.0751  0.1496 -0.1170
16820TIP3   OH271950   0.165   1.976   3.585 -0.4462 -0.9850 -0.2718
16820TIP3    H171951   0.142   2.031   3.510  0.4302  0.3572  0.4049
16820TIP3    H271952   0.232   2.026   3.631 -1.6343 -1.3212  1.9459
16821TIP3   OH271953   5.484   4.443   0.075 -0.4467  0.3879  0.4418
16821TIP3    H171954   5.424   4.507   0.112 -1.3104 -0.5014  0.6299
16821TIP3    H271955   5.570   4.466   0.112 -0.5318  2.0481 -0.3195
16822TIP3   OH271956   6.681   3.518   6.185  0.0817 -0.0437 -0.3225
16822TIP3    H171957   6.592   3.514   6.220  0.2821  0.4013  0.2634
16822TIP3    H271958   6.737   3.518   6.263  0.6223 -0.9831 -0.6936
16823TIP3   OH271959   1.525   5.650  10.683  0.4561 -0.4296 -0.3692
16823TIP3    H171960   1.611   5.686  10.708  0.3753 -0.3742 -0.1703
16823TIP3    H271961   1.520   5.567  10.729 -0.2233  0.2453  0.8160
16824TIP3   OH271962   1.337   5.407   0.091 -0.0758  0.2626  0.4311
16824TIP3    H171963   1.420   5.434   0.050 -0.1828  1.0044  0.7013
16824TIP3    H271964   1.293   5.489   0.112 -0.2733 -0.1231  1.5405
16825TIP3   OH271965   2.122   5.337  15.843 -0.2726  0.1342 -0.3214
16825TIP3    H171966   2.073   5.408  15.802  1.1139  0.0248 -2.2760
16825TIP3    H271967   2.065   5.308  15.915 -1.1740  2.7076  0.0883
16826TIP3   OH271968   5.952   2.297   4.095 -0.3093 -0.6731  0.0561
16826TIP3    H171969   6.037   2.333   4.070 -0.0024 -1.3789  0.0742
16826TIP3    H271970   5.919   2.255   4.016  0.1432 -1.8967  0.4966
16827TIP3   OH271971   3.162   2.483  13.438  0.1633  0.2517  0.2869
16827TIP3    H171972   3.097   2.466  13.369  1.1343  0.1548 -0.6261
16827TIP3    H271973   3.191   2.573  13.422 -0.3439  0.6021  1.2235
16828TIP3   OH271974   0.323   6.254  12.387  0.2821 -0.3077 -0.4448
16828TIP3    H171975   0.366   6.270  12.302  2.0148 -1.9778  0.0379
16828TIP3    H271976   0.371   6.310  12.448 -0.4239  0.2779 -0.4201
16829TIP3   OH271977   2.902   5.853   1.334  0.1615  0.4146  0.5491
16829TIP3    H171978   2.955   5.820   1.406  1.4162  0.5885 -0.2692
16829TIP3    H271979   2.888   5.778   1.276  0.4777  0.6239  0.1952
16830TIP3   OH271980   1.368   1.078  13.347 -0.4426 -0.1413 -0.2835
16830TIP3    H171981   1.407   1.040  13.426 -0.7784  0.2925  0.0992
16830TIP3    H271982   1.273   1.070  13.361 -0.5125 -1.4355 -1.3213
16831TIP3   OH271983   1.781   1.703   4.040  0.4560 -0.4167  0.1560
16831TIP3    H171984   1.688   1.701   4.059  0.3640 -3.6070 -0.1610
16831TIP3    H271985   1.818   1.761   4.107 -1.4040 -1.2604  2.0247
16832TIP3   OH271986   6.576   3.064   6.554 -0.0655  0.1402  0.4056
16832TIP3    H171987   6.496   3.014   6.539  0.4101 -0.8952  1.2034
16832TIP3    H271988   6.569   3.139   6.494  0.2445 -2.0329 -2.6110
16833TIP3   OH271989   0.290   3.612  16.412 -0.1872  0.1321 -0.0214
16833TIP3    H171990   0.340   3.661  16.346  2.0894 -0.9971  0.7556
16833TIP3    H271991   0.199   3.638  16.397  0.7855  4.3863  0.1441
16834TIP3   OH271992   1.149   0.218  12.981 -0.2564 -0.0936 -0.4783
16834TIP3    H171993   1.110   0.139  13.019 -0.5133  1.3290  2.4799
16834TIP3    H271994   1.242   0.197  12.972 -0.5763 -1.2563 -1.2710
16835TIP3   OH271995   4.021   2.441  15.991 -0.1516 -0.2783  0.3407
16835TIP3    H171996   3.992   2.354  15.964 -1.4663  0.4095 -0.6339
16835TIP3    H271997   4.007   2.496  15.913 -2.8232  1.5304  1.9274
16836TIP3   OH271998   5.281   4.048  13.351  0.3570  0.1357  0.0366
16836TIP3    H171999   5.264   4.035  13.444 -0.5856 -0.5684 -0.2198
16836TIP3    H272000   5.258   3.964  13.310 -0.8774  0.9648 -1.0395
16837TIP3   OH272001   4.758   2.384  16.292 -0.3677  0.1072  0.1215
16837TIP3    H172002   4.686   2.323  16.279 -0.7523  0.5129  0.3143
16837TIP3    H272003   4.764   2.432  16.210 -0.0678 -0.1780 -0.0284
16838TIP3   OH272004   6.823   1.147   1.511  0.3427  0.0377 -0.7005
16838TIP3    H172005   6.885   1.122   1.442 -2.1141 -0.6749 -2.8427
16838TIP3    H272006   6.755   1.197   1.465  0.7591  3.4816  2.0251
16839TIP3   OH272007   2.576   3.750  17.116 -0.2363 -0.2096  0.2737
16839TIP3    H172008   2.497   3.705  17.086 -0.2810 -0.2462  0.4425
16839TIP3    H272009   2.565   3.840  17.085 -0.7000 -0.0291  0.9435
16840TIP3   OH272010   5.345   0.539  16.170  0.2692  0.2467  0.2360
16840TIP3    H172011   5.377   0.451  16.150 -1.5140 -0.5869  0.8844
16840TIP3    H272012   5.260   0.525  16.211  1.2947  2.1082  3.3301
16841TIP3   OH272013   1.350   5.794   2.710  0.0024  0.5006 -0.3347
16841TIP3    H172014   1.266   5.827   2.741  0.4790  0.6295  0.8813
16841TIP3    H272015   1.330   5.749   2.628 -1.0652  1.5061 -0.6423
16842TIP3   OH272016   3.512   4.005  11.467  0.1502  0.8294  0.2856
16842TIP3    H172017   3.555   4.091  11.466  1.0572  0.4531 -2.4179
16842TIP3    H272018   3.585   3.942  11.473 -0.3625  0.2211  0.2695
16843TIP3   OH272019   4.390   1.617  14.917  0.4953  0.0383 -0.2585
16843TIP3    H172020   4.380   1.526  14.886 -0.0880  0.4341 -1.2794
16843TIP3    H272021   4.387   1.669  14.837 -3.1278  1.2953  0.4948
16844TIP3   OH272022   2.167   5.811  16.021 -0.5326 -0.1122  0.7632
16844TIP3    H172023   2.096   5.808  16.085 -1.9777  1.7505 -0.6390
16844TIP3    H272024   2.236   5.862  16.064 -0.3509 -1.1955  1.8132
16845TIP3   OH272025   4.285   0.042  13.562 -0.0486  0.1416  0.1679
16845TIP3    H172026   4.337   0.101  13.617  0.9134 -1.0368  0.5732
16845TIP3    H272027   4.350  -0.005  13.510 -0.6994 -1.2700  0.5862
16846TIP3   OH272028   1.456   0.013   0.138 -0.5751 -0.8306 -0.0850
16846TIP3    H172029   1.462   0.098   0.095 -1.2397 -0.8597 -0.2460
16846TIP3    H272030   1.379   0.020   0.195  0.0187 -0.9512  0.7408
16847TIP3   OH272031   6.145   2.608   5.374  0.1102  0.2191  0.0526
16847TIP3    H172032   6.070   2.663   5.351  0.2234 -0.6036 -2.5592
16847TIP3    H272033   6.217   2.642   5.321  0.5549 -1.4647 -0.4884
16848TIP3   OH272034   0.027   5.921   6.935 -0.9839  0.1261  0.3601
16848TIP3    H172035   0.022   5.968   6.851 -0.3471  1.1178  0.8550
16848TIP3    H272036   0.117   5.934   6.964 -1.5268  0.8953  1.7979
16849TIP3   OH272037   4.178   1.776  12.717 -0.0712  0.0044  0.2092
16849TIP3    H172038   4.258   1.752  12.670 -0.3350 -0.1722 -0.1536
16849TIP3    H272039   4.190   1.868  12.739  0.8196 -0.3716  1.3524
16850TIP3   OH272040   1.115   6.136  17.157  0.2351  1.1208 -0.3747
16850TIP3    H172041   1.092   6.043  17.153 -0.7094  1.2256  1.5454
16850TIP3    H272042   1.159   6.153  17.074  1.6456 -1.3638 -0.2380
16851TIP3   OH272043   2.820   6.818  11.099 -0.2636 -0.4886  0.0365
16851TIP3    H172044   2.829   6.737  11.150  0.8812 -0.3717  0.0586
16851TIP3    H272045   2.828   6.790  11.008 -0.3067 -0.4526  0.0222
16852TIP3   OH272046   0.244   5.009  13.677  0.9262 -0.4507 -0.0375
16852TIP3    H172047   0.286   5.020  13.593 -0.0708 -1.0099 -0.6339
16852TIP3    H272048   0.189   5.086  13.687  1.0728 -0.3664  0.1172
16853TIP3   OH272049   2.341   0.423  15.690  0.0791 -0.0474 -0.0979
16853TIP3    H172050   2.287   0.383  15.759 -0.4166  0.9763  0.1159
16853TIP3    H272051   2.283   0.427  15.614 -0.8158  2.6884  0.6159
16854TIP3   OH272052   3.364   1.809  13.615  0.3216 -0.1088 -0.0663
16854TIP3    H172053   3.355   1.714  13.612  2.1669 -0.3391  0.3117
16854TIP3    H272054   3.432   1.829  13.551 -0.4533  1.0390 -0.5730
16855TIP3   OH272055   2.650   2.932   1.623  0.3901 -0.0582  0.7719
16855TIP3    H172056   2.572   2.928   1.567  1.0522 -0.6144 -0.1492
16855TIP3    H272057   2.633   3.006   1.682 -0.6528  0.0866  0.3231
16856TIP3   OH272058   6.696   5.442  11.547 -0.1591  0.1847 -0.4700
16856TIP3    H172059   6.626   5.377  11.541 -0.4125  0.5775 -2.2097
16856TIP3    H272060   6.777   5.391  11.545 -0.3377 -0.2888  1.7715
16857TIP3   OH272061   6.398   5.229   6.220 -0.2096 -0.0269  0.3104
16857TIP3    H172062   6.466   5.163   6.231  0.9544  0.8753 -1.0674
16857TIP3    H272063   6.388   5.267   6.307  2.8334  1.4370  0.1762
16858TIP3   OH272064   5.707   0.302  16.898  0.4823  0.2375 -0.3304
16858TIP3    H172065   5.771   0.301  16.970 -0.6732  1.7144  0.7816
16858TIP3    H272066   5.756   0.332  16.822  2.5379 -4.2477 -1.1220
16859TIP3   OH272067   2.652   0.876  16.001  0.0701  0.2421 -0.3076
16859TIP3    H172068   2.593   0.806  15.971 -1.2168  0.9214  0.5409
16859TIP3    H272069   2.693   0.841  16.080 -0.3582  0.3307 -0.0425
16860TIP3   OH272070   2.923   0.502   4.839 -0.1086 -0.4170 -0.0548
16860TIP3    H172071   3.005   0.518   4.793 -0.5197  0.2082 -0.5846
16860TIP3    H272072   2.903   0.410   4.821 -0.8324  0.0810 -2.1073
16861TIP3   OH272073   1.740   0.353   1.162 -0.4603  0.2932 -0.5024
16861TIP3    H172074   1.787   0.329   1.082 -2.2247 -2.1066 -0.9268
16861TIP3    H272075   1.782   0.300   1.230 -1.2001 -0.2941 -0.5004
16862TIP3   OH272076   3.094   2.200   1.434  0.0639  0.3589 -0.7291
16862TIP3    H172077   3.026   2.215   1.369 -0.1664 -1.6356 -1.0092
16862TIP3    H272078   3.049   2.161   1.508  0.8195 -0.7029 -0.7979
16863TIP3   OH272079   0.423   5.461   5.603  0.1289  0.6431  0.3776
16863TIP3    H172080   0.441   5.470   5.509  1.3824 -0.0773  0.5225
16863TIP3    H272081   0.328   5.453   5.609  0.0940 -0.2992 -0.9234
16864TIP3   OH272082   5.954   2.043  12.982  0.0092 -0.0316  0.1062
16864TIP3    H172083   5.950   1.948  12.967  0.9369 -0.3511  1.6691
16864TIP3    H272084   5.870   2.065  13.022 -1.4266  0.3843 -2.8527
16865TIP3   OH272085   6.654   0.503  12.978 -0.4127 -0.0955 -0.0951
16865TIP3    H172086   6.601   0.447  13.035  0.7344 -0.7697  0.3576
16865TIP3    H272087   6.641   0.466  12.891 -0.4058 -0.4803  0.0625
16866TIP3   OH272088   0.653   3.068  16.981  0.5481 -0.8201 -0.3166
16866TIP3    H172089   0.677   3.134  17.047  1.0902 -0.8114 -0.5153
16866TIP3    H272090   0.674   3.110  16.898  3.2678 -2.1334 -0.3785
16867TIP3   OH272091   0.370   0.229  16.618 -0.0059 -0.5319 -0.3558
16867TIP3    H172092   0.335   0.222  16.529  1.4331 -1.7733 -0.8824
16867TIP3    H272093   0.392   0.138  16.641 -0.0743 -0.1807  1.1504
16868TIP3   OH272094   0.252   2.553   0.748  0.0373 -0.2173  0.0540
16868TIP3    H172095   0.298   2.608   0.684  0.1723 -0.3164  0.0647
16868TIP3    H272096   0.216   2.481   0.695 -1.3987  0.6475 -0.1952
16869TIP3   OH272097   3.567   4.290  11.255 -0.4475  0.2355 -0.2254
16869TIP3    H172098   3.483   4.300  11.211 -0.2556 -1.4166 -1.0449
16869TIP3    H272099   3.570   4.362  11.319 -2.0956  0.8098 -0.7575
16870TIP3   OH272100   5.211   4.942   3.074  0.0125 -0.1849 -0.3532
16870TIP3    H172101   5.287   4.978   3.119  1.2481 -0.5086 -2.0700
16870TIP3    H272102   5.190   4.863   3.123 -0.8563  1.1908  1.6477
16871TIP3   OH272103   0.565   5.990   5.202 -0.1384 -0.2586 -0.1260
16871TIP3    H172104   0.561   5.994   5.107  1.9697 -1.1550 -0.3108
16871TIP3    H272105   0.477   5.965   5.229 -0.0253 -3.2763 -2.1072
16872TIP3   OH272106   5.117   6.002   1.115  0.1246 -0.5839  0.2087
16872TIP3    H172107   5.161   6.046   1.042 -0.2233  2.6937  1.7915
16872TIP3    H272108   5.189   5.961   1.164  0.4464 -2.0764 -1.4228
16873TIP3   OH272109   1.045   1.598   6.048  0.2220 -0.5706 -0.1736
16873TIP3    H172110   0.997   1.519   6.073 -0.5243  0.1984  0.8810
16873TIP3    H272111   1.060   1.644   6.131 -1.9591  1.8687 -1.0155
16874TIP3   OH272112   5.379   4.449   5.127  0.8413  0.0540 -0.1492
16874TIP3    H172113   5.423   4.396   5.193  2.0331  1.2614  0.0538
16874TIP3    H272114   5.298   4.400   5.108  0.2927 -0.1842  2.4106
16875TIP3   OH272115   1.153   2.263   2.333 -0.2150 -0.1571 -0.0831
16875TIP3    H172116   1.219   2.262   2.263  1.6930  2.4455  1.5079
16875TIP3    H272117   1.115   2.351   2.329  0.2289  0.2104  2.3522
16876TIP3   OH272118   4.583   6.806  13.773 -0.2134  0.3459  0.2191
16876TIP3    H172119   4.531   6.859  13.713 -1.5288 -0.8641  0.2475
16876TIP3    H272120   4.649   6.866  13.807  1.5282  0.8291 -3.4739
16877TIP3   OH272121   6.415   3.182  15.152 -0.4264 -0.5965 -0.0880
16877TIP3    H172122   6.329   3.178  15.110 -0.7798 -2.5815  0.6894
16877TIP3    H272123   6.402   3.135  15.235  0.9818  0.6334  0.8706
16878TIP3   OH272124   6.323   5.663  17.015 -0.6269  0.4799  0.4682
16878TIP3    H172125   6.247   5.639  17.068 -0.4796  1.4684  1.1440
16878TIP3    H272126   6.399   5.643  17.070 -0.3957 -0.3067 -0.1243
16879TIP3   OH272127   4.781   2.541  13.068 -0.0524 -0.3810 -0.3784
16879TIP3    H172128   4.690   2.568  13.059  0.3571  0.9549 -0.6256
16879TIP3    H272129   4.795   2.479  12.996 -1.1619 -1.7983  0.5568
16880TIP3   OH272130   0.971   1.934  11.009 -0.3320  0.3253 -0.7431
16880TIP3    H172131   0.975   1.949  11.104 -2.1881 -2.7747 -0.0366
16880TIP3    H272132   1.060   1.951  10.979  0.2848  1.5243  1.4978
16881TIP3   OH272133   6.275   2.783  12.087 -0.1937  0.1825 -0.2773
16881TIP3    H172134   6.201   2.799  12.146 -1.9776 -0.0620 -2.3221
16881TIP3    H272135   6.269   2.852  12.021  2.2560  0.9697  0.2175
16882TIP3   OH272136   4.987   4.563   0.363 -0.4235  0.7767  0.0671
16882TIP3    H172137   5.002   4.495   0.297  0.2238  0.5835  0.4080
16882TIP3    H272138   4.964   4.515   0.442 -0.3959  0.9730  0.1945
16883TIP3   OH272139   0.763   5.285   2.001  0.3527 -0.5381  0.0178
16883TIP3    H172140   0.721   5.302   1.916  0.5805  1.6146  0.2795
16883TIP3    H272141   0.713   5.212   2.038  0.1139 -1.4063 -1.8429
16884TIP3   OH272142   4.065   4.835  11.524 -0.1643  0.7323  0.0699
16884TIP3    H172143   4.012   4.830  11.445 -0.6861 -0.3050  0.4774
16884TIP3    H272144   4.005   4.868  11.591  0.0543  0.8159  0.2262
16885TIP3   OH272145   1.234   3.004   0.527 -0.4355 -0.2255 -0.1723
16885TIP3    H172146   1.323   3.023   0.498 -0.3178  1.3978  1.1231
16885TIP3    H272147   1.245   2.935   0.593 -0.0244  0.5914  0.6301
16886TIP3   OH272148   6.353   1.831  13.635 -0.5864  0.3369  0.0032
16886TIP3    H172149   6.446   1.810  13.631 -0.4991  0.7905 -0.4380
16886TIP3    H272150   6.309   1.748  13.618 -0.2570  0.2797 -0.5987
16887TIP3   OH272151   5.891   5.887   4.845  0.6228  0.5239 -0.4947
16887TIP3    H172152   5.818   5.855   4.792  0.4984 -0.0553  0.0137
16887TIP3    H272153   5.858   5.968   4.883  0.0887  0.0582  0.0544
16888TIP3   OH272154   2.527   1.024   4.063 -0.6427 -0.2410 -0.7896
16888TIP3    H172155   2.473   1.086   4.111 -0.3764 -1.1946  0.8194
16888TIP3    H272156   2.488   0.938   4.082  2.1167 -1.1432  1.5857
16889TIP3   OH272157   3.948   4.722   3.203  0.8356 -0.2355 -0.1303
16889TIP3    H172158   3.878   4.658   3.217  2.4630 -2.0027  0.3030
16889TIP3    H272159   3.912   4.804   3.236 -1.1381 -1.0228 -0.2155
16890TIP3   OH272160   3.195   0.946  12.498  0.2387 -0.5912  0.3059
16890TIP3    H172161   3.273   0.919  12.448  0.4958  0.3038  0.1912
16890TIP3    H272162   3.230   0.978  12.581 -0.2064 -2.2534  1.1575
16891TIP3   OH272163   6.605   3.484  17.124 -0.3637  0.2900 -0.4776
16891TIP3    H172164   6.628   3.514  17.212 -0.2825  0.5176 -0.5780
16891TIP3    H272165   6.552   3.555  17.087 -1.2472 -0.2229 -0.2463
16892TIP3   OH272166   5.018   6.783  11.822 -0.2693  0.1975 -0.2878
16892TIP3    H172167   5.101   6.827  11.839  0.6742 -1.1196 -1.2607
16892TIP3    H272168   4.964   6.803  11.899  1.6001 -0.4528  1.2738
16893TIP3   OH272169   6.055   0.157  15.343  0.3223 -0.2378  0.0556
16893TIP3    H172170   6.096   0.235  15.382 -1.7533  0.0185  1.9219
16893TIP3    H272171   5.975   0.189  15.303 -0.1169 -1.2782  0.0712
16894TIP3   OH272172   3.608   1.595  14.378  0.2013  0.2642 -0.1533
16894TIP3    H172173   3.689   1.608  14.428 -1.2455  1.6196  2.0101
16894TIP3    H272174   3.565   1.520  14.421 -1.1500  1.5637  0.8751
16895TIP3   OH272175   6.614   4.640  15.061 -0.0843 -0.3287 -0.5147
16895TIP3    H172176   6.627   4.657  14.968 -1.2345 -1.9209 -1.0156
16895TIP3    H272177   6.665   4.708  15.105  1.4060 -0.2135 -2.2847
16896TIP3   OH272178   0.241   3.701  12.684  0.1875  0.7268  0.3276
16896TIP3    H172179   0.197   3.617  12.696 -0.0551  0.8407  0.2186
16896TIP3    H272180   0.237   3.718  12.590  1.7795  0.0089  0.0971
16897TIP3   OH272181   1.030   5.558  11.368 -0.1078 -0.0307  0.5062
16897TIP3    H172182   1.029   5.548  11.273  1.7591 -2.3269  0.6486
16897TIP3    H272183   1.026   5.653  11.382 -1.9311  0.3380 -1.7548
16898TIP3   OH272184   5.622   1.936  14.591  0.1350 -0.1161 -0.2106
16898TIP3    H172185   5.560   2.008  14.598  1.0811  0.8947 -1.7053
16898TIP3    H272186   5.610   1.902  14.502  0.5143 -1.0390  0.0802
16899TIP3   OH272187   2.369   0.556   1.880 -0.2520  0.0084 -0.9173
16899TIP3    H172188   2.353   0.648   1.904 -0.2395 -0.3819  0.7463
16899TIP3    H272189   2.408   0.560   1.793  1.6870  1.7292 -0.0582
16900TIP3   OH272190   0.142   2.364  15.700 -0.1578 -0.5396  0.3119
16900TIP3    H172191   0.180   2.451  15.709 -1.2528 -0.1645  1.7175
16900TIP3    H272192   0.217   2.304  15.706  0.4328  0.2475  1.1415
16901TIP3   OH272193   1.024   3.189   1.884  0.6073 -0.0064  0.8509
16901TIP3    H172194   1.069   3.232   1.957  0.4776 -0.0849  0.9791
16901TIP3    H272195   1.086   3.194   1.811  1.3151 -1.1423  1.3351
16902TIP3   OH272196   0.980   5.351   0.428 -0.0794  0.7023  0.2638
16902TIP3    H172197   1.033   5.277   0.398 -0.5759  0.0008  1.0434
16902TIP3    H272198   0.967   5.334   0.522  1.7293  2.9889  1.0105
16903TIP3   OH272199   6.494   4.434   0.015  0.1117  0.4307  0.0739
16903TIP3    H172200   6.550   4.442  -0.062 -0.2553 -0.2463 -0.2750
16903TIP3    H272201   6.454   4.347   0.007 -1.7203  1.2405 -0.2067
16904TIP3   OH272202   1.852   5.898   1.001 -0.2327 -0.5659  0.6157
16904TIP3    H172203   1.856   5.958   0.926 -0.9521  0.4078  1.3239
16904TIP3    H272204   1.899   5.943   1.070 -1.7296 -0.2804  1.4918
16905TIP3   OH272205   0.830   3.310  13.030  0.5689 -0.8793  0.2023
16905TIP3    H172206   0.835   3.218  13.008  2.7096 -0.3833 -1.7001
16905TIP3    H272207   0.770   3.347  12.965  1.3800 -0.5897 -0.3896
16906TIP3   OH272208   3.334   4.573  13.402  0.1836 -0.2391 -0.3737
16906TIP3    H172209   3.360   4.502  13.459 -0.8561 -0.6182 -0.3557
16906TIP3    H272210   3.295   4.530  13.326  0.6552  0.2839 -0.9233
16907TIP3   OH272211   2.889   2.164   1.188  0.1297  0.5247 -0.5208
16907TIP3    H172212   2.820   2.162   1.254  0.2374  0.8904 -0.3905
16907TIP3    H272213   2.856   2.221   1.119  1.7293  3.9014  1.2296
16908TIP3   OH272214   5.383   0.762   1.021 -0.1206  0.0383 -0.1513
16908TIP3    H172215   5.473   0.769   1.052 -0.6213  0.3939  1.3107
16908TIP3    H272216   5.390   0.761   0.925  1.4159  0.1647 -0.0578
16909TIP3   OH272217   6.060   1.233  11.768 -0.3323 -0.5905 -0.3367
16909TIP3    H172218   5.978   1.192  11.794 -0.4356 -0.5538 -0.5940
16909TIP3    H272219   6.039   1.276  11.685 -0.6896  1.4458  0.7447
16910TIP3   OH272220   6.227   2.045   4.328  0.3166  0.0816  0.4465
16910TIP3    H172221   6.297   2.107   4.307  0.7236 -0.0172  1.4369
16910TIP3    H272222   6.182   2.030   4.245 -0.1335  2.1179  0.2737
16911TIP3   OH272223   3.826   5.998   0.290 -0.0855  0.5441 -0.4841
16911TIP3    H172224   3.764   6.060   0.251 -0.5032 -0.3851 -1.3860
16911TIP3    H272225   3.912   6.029   0.262 -0.0237  2.3450  1.4983
16912TIP3   OH272226   0.319   2.002  13.885 -0.1108  0.0825  0.8435
16912TIP3    H172227   0.256   1.937  13.853  0.0455  0.2436  0.1953
16912TIP3    H272228   0.265   2.079  13.906 -0.2375 -0.0912  1.1772
16913TIP3   OH272229   6.361   1.514  11.242 -0.9578  0.3429  0.1833
16913TIP3    H172230   6.421   1.443  11.267 -0.3815  0.6313 -0.3523
16913TIP3    H272231   6.283   1.498  11.294 -1.0455 -1.0139 -0.3124
16914TIP3   OH272232   2.156   5.255  14.615 -0.0274 -1.2111  0.0170
16914TIP3    H172233   2.142   5.350  14.609  1.3273 -1.0007 -0.0175
16914TIP3    H272234   2.142   5.234  14.707  0.5013 -0.8436  0.1792
16915TIP3   OH272235   5.252   0.081   5.077 -0.4653 -0.6369 -0.5147
16915TIP3    H172236   5.261   0.149   5.144  1.1506 -0.1674 -1.1604
16915TIP3    H272237   5.231   0.129   4.997 -2.9552 -1.2394 -0.2974
16916TIP3   OH272238   5.454   0.759  16.306  0.0861 -0.5029 -0.2222
16916TIP3    H172239   5.522   0.736  16.370 -0.8357 -0.3008  0.8603
16916TIP3    H272240   5.458   0.688  16.242  0.2748 -1.3381  0.6744
16917TIP3   OH272241   0.913   4.394   3.813  0.0812  0.3673 -0.4272
16917TIP3    H172242   0.980   4.348   3.862 -1.7070 -2.6469 -0.5575
16917TIP3    H272243   0.853   4.428   3.879 -0.2073 -0.2120 -0.3822
16918TIP3   OH272244   3.877   1.265  17.159  0.0538 -0.5204 -0.1638
16918TIP3    H172245   3.814   1.229  17.097  2.0185 -1.5563 -1.6839
16918TIP3    H272246   3.908   1.190  17.208  0.4520 -0.1049  0.2318
16919TIP3   OH272247   4.518   3.534  17.077  0.1714  0.1780  0.4600
16919TIP3    H172248   4.487   3.444  17.073  0.0322  0.2466 -3.1137
16919TIP3    H272249   4.441   3.587  17.058  1.0532  0.6585 -2.4096
16920TIP3   OH272250   3.008   0.261   4.673  0.2228  0.4366  0.0849
16920TIP3    H172251   3.070   0.333   4.671 -0.2997  0.8860 -0.5182
16920TIP3    H272252   3.027   0.214   4.754 -0.3702  2.1035  1.2330
16921TIP3   OH272253   5.127   1.350   4.767 -0.1687 -0.1130 -0.3000
16921TIP3    H172254   5.083   1.350   4.852  4.0549  0.2808  2.1711
16921TIP3    H272255   5.148   1.258   4.750 -2.2030 -0.3752 -1.7633
16922TIP3   OH272256   6.402   1.171   3.228 -0.0109  0.1643  0.4543
16922TIP3    H172257   6.382   1.128   3.146 -1.3516  1.8623 -0.1687
16922TIP3    H272258   6.491   1.144   3.249  0.1164 -0.7939 -1.2200
16923TIP3   OH272259   2.624   3.115  11.055 -0.6877  0.3900  0.1617
16923TIP3    H172260   2.666   3.196  11.028 -0.9942  0.6667  0.5067
16923TIP3    H272261   2.650   3.051  10.989 -0.8004  0.8746 -0.3567
16924TIP3   OH272262   5.426   1.278  13.825  0.4022 -0.1276 -0.4958
16924TIP3    H172263   5.373   1.234  13.892  0.2191  0.6380 -0.1255
16924TIP3    H272264   5.450   1.208  13.764 -0.9750 -0.5037 -0.6381
16925TIP3   OH272265   1.523   0.486  15.323  0.4460  0.7672 -0.3327
16925TIP3    H172266   1.472   0.521  15.396 -0.4208 -1.4528  0.1886
16925TIP3    H272267   1.517   0.391  15.332  0.7106  0.4118 -3.0178
16926TIP3   OH272268   5.765   2.414  10.718 -0.0993  0.3094 -0.4667
16926TIP3    H172269   5.777   2.325  10.685 -0.5651 -0.0209  0.2211
16926TIP3    H272270   5.846   2.459  10.695 -0.3850  0.0784 -1.9759
16927TIP3   OH272271   2.837   5.296  13.753 -0.0461 -0.1822 -0.1180
16927TIP3    H172272   2.887   5.293  13.671  0.7921 -0.2603  0.3775
16927TIP3    H272273   2.746   5.292  13.726  0.2415 -1.0932 -1.0131
16928TIP3   OH272274   0.098   6.389  11.194 -0.2938 -0.3085 -0.3771
16928TIP3    H172275   0.156   6.457  11.229  0.8948 -1.3861 -0.1490
16928TIP3    H272276   0.042   6.364  11.267  0.6543 -0.9824  0.1367
16929TIP3   OH272277   1.635   2.330   4.227 -0.0067  0.0299  0.6601
16929TIP3    H172278   1.555   2.359   4.184  0.8779  1.4277 -0.1207
16929TIP3    H272279   1.656   2.246   4.187 -0.2168  0.4270 -0.3129
16930TIP3   OH272280   1.988   1.636  14.911  0.0032 -0.8684  0.5433
16930TIP3    H172281   2.039   1.617  14.832 -0.6096  2.2280 -0.7484
16930TIP3    H272282   1.897   1.642  14.881 -0.1851  0.8659  1.3307
16931TIP3   OH272283   6.043   6.119  15.770 -0.2695  0.4303  0.6407
16931TIP3    H172284   5.961   6.132  15.721 -0.0701 -0.1171  0.1619
16931TIP3    H272285   6.112   6.127  15.704 -0.0530 -1.4997  0.5837
16932TIP3   OH272286   5.814   4.493   4.778 -0.0972 -0.4304 -0.0399
16932TIP3    H172287   5.802   4.417   4.722 -1.7668 -0.0901 -0.1856
16932TIP3    H272288   5.747   4.484   4.846  0.0398  0.6274  0.2554
16933TIP3   OH272289   1.118   4.419   0.106  0.2126 -0.2364 -0.3562
16933TIP3    H172290   1.103   4.384   0.018  2.8234 -1.4400 -0.4216
16933TIP3    H272291   1.129   4.513   0.093  0.4904 -0.3909 -1.3120
16934TIP3   OH272292   5.644   3.564  13.323  0.1196  0.0401  0.5631
16934TIP3    H172293   5.672   3.480  13.287 -0.7018  0.3706 -0.9409
16934TIP3    H272294   5.562   3.545  13.367 -1.7495  0.4699 -2.4175
16935TIP3   OH272295   4.298   4.395   4.791 -0.3314 -0.0631 -0.3017
16935TIP3    H172296   4.365   4.455   4.759 -0.8775  0.3584 -0.6807
16935TIP3    H272297   4.343   4.311   4.799  0.2974  0.2633 -0.3270
16936TIP3   OH272298   0.316   0.452   3.685 -0.2633  0.0459 -0.1848
16936TIP3    H172299   0.278   0.412   3.607 -1.8599  1.0608  0.0274
16936TIP3    H272300   0.344   0.539   3.657 -2.5489  1.1462  0.7265
16937TIP3   OH272301   0.288   6.086   2.456  0.0500  0.5392  0.2572
16937TIP3    H172302   0.235   6.018   2.496 -0.8641  1.7845  1.2310
16937TIP3    H272303   0.290   6.064   2.363 -4.2720  1.7459 -0.2968
16938TIP3   OH272304   5.957   4.209  13.335 -0.1855  0.3939  0.6815
16938TIP3    H172305   5.912   4.270  13.277  1.1151  0.3795 -0.4127
16938TIP3    H272306   5.971   4.131  13.281 -1.0229 -0.5526  1.7740
16939TIP3   OH272307   4.114   4.376   2.973  0.6849 -0.1288  0.1370
16939TIP3    H172308   4.190   4.373   2.915 -0.2160 -0.9695 -1.0686
16939TIP3    H272309   4.075   4.461   2.956  0.0756 -0.6134 -1.0105
16940TIP3   OH272310   5.043   4.440  14.008  0.3806 -0.3522 -0.0088
16940TIP3    H172311   5.002   4.417  14.091  0.6427 -3.0641 -0.5443
16940TIP3    H272312   4.987   4.401  13.942  0.4853  1.2870 -1.1292
16941TIP3   OH272313   2.356   6.415  15.604 -0.0222  0.0374 -0.2282
16941TIP3    H172314   2.349   6.322  15.626  0.3112  0.1925  0.5533
16941TIP3    H272315   2.378   6.416  15.511 -1.9761 -0.6160 -0.7392
16942TIP3   OH272316   5.665   2.860   0.498 -0.1919 -0.2209 -0.1664
16942TIP3    H172317   5.650   2.804   0.574 -1.7607 -0.2798 -0.4900
16942TIP3    H272318   5.759   2.876   0.499 -0.0424 -0.9804  1.2490
16943TIP3   OH272319   5.519   5.261   3.646 -0.8779 -0.4286  0.4421
16943TIP3    H172320   5.442   5.305   3.680 -0.5706 -0.3926  1.1042
16943TIP3    H272321   5.562   5.326   3.591 -0.9044 -0.1939  0.6980
16944TIP3   OH272322   3.684   5.289  14.428  0.5707 -0.8000 -0.1426
16944TIP3    H172323   3.630   5.212  14.410  0.3875 -0.5174 -0.8249
16944TIP3    H272324   3.774   5.256  14.427  0.4307 -1.2705  0.9985
16945TIP3   OH272325   1.965   4.824   0.062 -0.7317  0.1539  0.5136
16945TIP3    H172326   1.890   4.876   0.035 -0.5715  0.8638  1.3806
16945TIP3    H272327   2.025   4.827  -0.012 -0.9758  0.7267  0.3387
16946TIP3   OH272328   5.511   6.102   0.400 -0.0333  0.1304  0.6088
16946TIP3    H172329   5.565   6.142   0.332 -2.0091  0.6140 -0.7717
16946TIP3    H272330   5.428   6.084   0.357 -0.5065 -1.9848  2.2329
16947TIP3   OH272331   4.498   0.602  16.417  0.8111  0.0638  0.2039
16947TIP3    H172332   4.574   0.648  16.383 -0.5679  1.2761 -1.4385
16947TIP3    H272333   4.497   0.623  16.510  2.0711  0.6271  0.1104
16948TIP3   OH272334   2.128   5.806  12.862  0.2867 -0.0303  0.0174
16948TIP3    H172335   2.036   5.805  12.887  0.1481 -0.1090 -0.4832
16948TIP3    H272336   2.176   5.812  12.945 -0.1197 -1.5919  0.4038
16949TIP3   OH272337   6.113   5.550  16.338  0.4029  0.4770 -0.0830
16949TIP3    H172338   6.035   5.603  16.351  0.9578  2.4214 -3.4642
16949TIP3    H272339   6.087   5.461  16.363 -2.5908  1.2128 -0.2429
16950TIP3   OH272340   3.857   4.880   1.232 -0.4383 -0.1038 -0.2449
16950TIP3    H172341   3.907   4.811   1.275  2.1984  0.6903 -1.7911
16950TIP3    H272342   3.766   4.855   1.245  0.3382 -2.4897  1.4107
16951TIP3   OH272343   1.997   6.113  11.361 -0.5500  0.0208 -0.4123
16951TIP3    H172344   2.056   6.039  11.378 -1.1334 -0.5151 -0.6917
16951TIP3    H272345   2.031   6.183  11.416  1.9625  0.5970 -2.5012
16952TIP3   OH272346   3.305   4.534  15.922 -0.1792 -0.1838 -0.5759
16952TIP3    H172347   3.283   4.441  15.918 -1.8812  0.1607 -0.2137
16952TIP3    H272348   3.259   4.573  15.848 -1.0723  0.6365  0.3791
16953TIP3   OH272349   3.210   5.439   2.983  0.7053 -0.7797 -0.4472
16953TIP3    H172350   3.199   5.422   3.077  1.4189  2.1056  0.2478
16953TIP3    H272351   3.158   5.371   2.941  1.5680 -3.1260  1.9585
16954TIP3   OH272352   5.733   5.100   2.791 -0.2023  0.0203  0.0047
16954TIP3    H172353   5.673   5.169   2.762 -0.4332  1.1314  2.8219
16954TIP3    H272354   5.681   5.047   2.851  0.7040 -1.0672 -0.1373
16955TIP3   OH272355   0.100   4.721  12.060  0.0419 -0.4124 -0.3569
16955TIP3    H172356   0.005   4.727  12.051  0.0790 -0.3713 -0.7019
16955TIP3    H272357   0.121   4.631  12.032  0.2403 -0.0431 -1.4250
16956TIP3   OH272358   1.387   5.437   5.273  0.3299  0.1103  0.2790
16956TIP3    H172359   1.347   5.351   5.262  0.8503 -0.1380  0.3104
16956TIP3    H272360   1.480   5.423   5.257  0.2813  0.8642 -0.7171
16957TIP3   OH272361   5.248   0.330  13.485  0.1649 -0.1214 -0.0848
16957TIP3    H172362   5.229   0.360  13.396  1.0801 -0.5904 -0.4500
16957TIP3    H272363   5.336   0.293  13.480 -0.0581 -0.8210  0.8535
16958TIP3   OH272364   5.788   4.557  15.743  0.2763  0.3071  0.2383
16958TIP3    H172365   5.881   4.555  15.721  0.0433 -1.3779 -0.7524
16958TIP3    H272366   5.783   4.517  15.830  0.5284  1.0346  0.5977
16959TIP3   OH272367   3.708   0.795   3.251 -0.2352  0.0903 -0.4730
16959TIP3    H172368   3.630   0.762   3.297  0.2398  0.0578  0.3364
16959TIP3    H272369   3.760   0.716   3.234 -0.4723  0.0876 -1.2014
16960TIP3   OH272370   5.786   5.581   3.453  0.3671 -0.2602  0.6321
16960TIP3    H172371   5.781   5.674   3.435 -0.0065 -0.4983 -0.5437
16960TIP3    H272372   5.815   5.576   3.544  0.0964  0.9976  0.8028
16961TIP3   OH272373   5.359   1.568  15.353  0.5402 -0.7907  0.2103
16961TIP3    H172374   5.265   1.552  15.352 -0.5935  4.0730  1.1083
16961TIP3    H272375   5.387   1.556  15.263 -1.0067 -1.8473 -0.1681
16962TIP3   OH272376   2.396   5.717  15.280 -0.2087 -0.3774 -0.6800
16962TIP3    H172377   2.437   5.742  15.363 -1.7253  0.7100 -0.2192
16962TIP3    H272378   2.388   5.799  15.232  2.0330 -1.1761 -2.6261
16963TIP3   OH272379   2.359   2.584   4.776  0.1930 -0.2853  0.0715
16963TIP3    H172380   2.438   2.529   4.772 -0.0097 -0.6434  0.8162
16963TIP3    H272381   2.287   2.523   4.755 -0.1184 -0.5111  1.7008
16964TIP3   OH272382   4.778   2.570  15.792 -0.0362 -0.9118  0.1572
16964TIP3    H172383   4.720   2.646  15.792 -0.1561 -1.0038 -0.1436
16964TIP3    H272384   4.855   2.598  15.742 -0.2024 -1.0821 -0.1934
16965TIP3   OH272385   2.317   5.855  10.318  0.0243  0.7337 -0.1718
16965TIP3    H172386   2.250   5.809  10.369 -0.4280  0.3881 -1.0585
16965TIP3    H272387   2.394   5.857  10.376 -0.5138  0.4697  0.5686
16966TIP3   OH272388   1.666   1.471   5.239  0.4842 -0.0513 -0.3337
16966TIP3    H172389   1.718   1.464   5.159  0.8718  1.6646 -0.2744
16966TIP3    H272390   1.577   1.489   5.209  0.5567  0.2168 -0.3892
16967TIP3   OH272391   3.669   6.436  14.880  0.0353 -0.0219 -0.1400
16967TIP3    H172392   3.734   6.416  14.813 -0.9686 -3.1802 -0.3453
16967TIP3    H272393   3.609   6.362  14.878 -2.1338  1.5172  1.7978
16968TIP3   OH272394   1.213   2.953  11.653  0.3431  0.5201  0.2214
16968TIP3    H172395   1.136   2.921  11.700  1.2588  1.5662  2.6154
16968TIP3    H272396   1.177   3.002  11.579 -1.1360 -2.2671 -1.0564
16969TIP3   OH272397   3.115   3.813  16.723  0.0290  0.0837 -0.3141
16969TIP3    H172398   3.112   3.749  16.794 -0.1164 -0.3267 -0.6854
16969TIP3    H272399   3.196   3.862  16.738 -1.1512  1.5994  1.4932
16970TIP3   OH272400   3.794   3.728   3.041 -0.5129 -0.1160  0.1705
16970TIP3    H172401   3.837   3.800   2.995 -1.7153  0.4447 -0.1026
16970TIP3    H272402   3.755   3.675   2.972  1.6484 -1.9610  0.2345
16971TIP3   OH272403   3.283   0.245   2.132 -0.6191 -0.1188 -0.2044
16971TIP3    H172404   3.189   0.262   2.142 -0.2416  2.2907 -0.1593
16971TIP3    H272405   3.317   0.248   2.222 -0.3481  0.1900 -0.3136
16972TIP3   OH272406   4.784   3.846   5.182  0.5530  0.1899 -0.7705
16972TIP3    H172407   4.876   3.863   5.202 -0.0427  1.0774  1.6640
16972TIP3    H272408   4.745   3.933   5.173 -0.4396 -0.0726  0.5655
16973TIP3   OH272409   4.714   5.053  12.549  0.2222 -0.2010  0.0588
16973TIP3    H172410   4.656   5.042  12.474  0.8469  2.4976 -0.9438
16973TIP3    H272411   4.658   5.090  12.617  0.2435  0.2037 -0.1349
16974TIP3   OH272412   3.724   5.812   4.987  0.9006 -0.0714 -0.3213
16974TIP3    H172413   3.737   5.907   4.987  0.2050  0.0533 -1.9132
16974TIP3    H272414   3.749   5.784   5.075  0.3001  1.6916  0.4445
16975TIP3   OH272415   1.746   2.249   3.260  0.2032  0.6163  0.5115
16975TIP3    H172416   1.716   2.158   3.262  0.3817  0.5450  0.0704
16975TIP3    H272417   1.822   2.248   3.201  0.1843  1.0540  0.4767
16976TIP3   OH272418   6.803   1.513   5.257  0.1998  0.0881 -0.2441
16976TIP3    H172419   6.778   1.529   5.348  1.7531  0.8419  0.0898
16976TIP3    H272420   6.898   1.525   5.256  0.2579 -0.2656 -1.9011
16977TIP3   OH272421   6.650   4.766  13.659 -0.2827 -0.3201 -0.3869
16977TIP3    H172422   6.690   4.687  13.623 -2.1902 -0.7626 -1.6678
16977TIP3    H272423   6.606   4.737  13.739 -0.7741 -0.4991 -0.7233
16978TIP3   OH272424   6.080   1.476   0.557 -0.1015  0.1210  0.2566
16978TIP3    H172425   6.029   1.409   0.602  1.1604  0.6218  2.5979
16978TIP3    H272426   6.169   1.466   0.591  1.0758  0.3188 -2.4700
16979TIP3   OH272427   6.019   3.082  13.505 -0.3293  0.1147 -0.1948
16979TIP3    H172428   6.075   3.129  13.443 -1.1498  0.1354 -0.9411
16979TIP3    H272429   5.930   3.110  13.483 -0.6524  0.0324  0.9238
16980TIP3   OH272430   3.221   3.038   6.318  0.1584  0.2155 -0.2317
16980TIP3    H172431   3.249   3.128   6.338  1.1947  0.3506 -2.0506
16980TIP3    H272432   3.299   2.996   6.282 -1.2746 -0.1050 -3.3446
16981TIP3   OH272433   2.581   5.841   2.248  0.2109  0.0342  0.0687
16981TIP3    H172434   2.586   5.853   2.343  1.0127  1.1940 -0.1017
16981TIP3    H272435   2.493   5.871   2.224 -0.0272 -0.3486  0.4415
16982TIP3   OH272436   1.989   6.677   3.140 -0.4180 -0.4320  0.2424
16982TIP3    H172437   2.079   6.648   3.157 -1.3355 -3.4927  0.4582
16982TIP3    H272438   1.959   6.711   3.223  0.0782 -0.8310  0.5951
16983TIP3   OH272439   2.651   2.187   0.835  0.7168 -0.3177  0.0180
16983TIP3    H172440   2.634   2.095   0.856  0.8673 -0.3588 -0.0364
16983TIP3    H272441   2.644   2.192   0.740  1.4512 -0.4332 -0.0501
16984TIP3   OH272442   0.273   0.887  10.806  0.8581  0.2019  0.4284
16984TIP3    H172443   0.366   0.877  10.789  0.4152  0.8950 -3.2756
16984TIP3    H272444   0.252   0.975  10.774 -0.8798  0.5392  2.2941
16985TIP3   OH272445   3.968   1.369   2.877  0.1975  0.1179 -0.3102
16985TIP3    H172446   4.036   1.350   2.813  0.1993 -1.6957  0.1809
16985TIP3    H272447   3.886   1.362   2.828  0.2212 -0.8877 -0.2402
16986TIP3   OH272448   4.854   4.765  14.902  0.1700  0.0564 -0.0856
16986TIP3    H172449   4.833   4.682  14.944  1.1571 -0.5837 -0.8215
16986TIP3    H272450   4.827   4.831  14.966 -0.2578 -0.8273  0.6792
16987TIP3   OH272451   5.051   1.646  10.890  0.2737  0.1922 -0.1471
16987TIP3    H172452   5.069   1.735  10.921 -0.1878  0.1828  0.1608
16987TIP3    H272453   5.044   1.655  10.795  1.4857  0.2576 -0.2422
16988TIP3   OH272454   2.921   3.827   6.097 -0.2123  0.2416  0.2398
16988TIP3    H172455   2.997   3.775   6.122 -0.6718 -0.7178 -0.3126
16988TIP3    H272456   2.909   3.809   6.003 -1.0945  0.4023  0.3090
16989TIP3   OH272457   5.147   5.363  13.706 -0.3549 -0.1036 -0.5134
16989TIP3    H172458   5.074   5.422  13.686 -1.4470 -2.1011 -2.9449
16989TIP3    H272459   5.219   5.397  13.653 -0.1458  0.5570  0.1667
16990TIP3   OH272460   3.738   0.291   5.011 -0.0512 -0.1578 -0.7297
16990TIP3    H172461   3.764   0.249   5.094 -1.6154  0.5847  0.1770
16990TIP3    H272462   3.666   0.237   4.979  0.6311 -0.5146 -1.7006
16991TIP3   OH272463   6.021   2.223  14.062  0.3310 -0.2454 -0.0426
16991TIP3    H172464   6.000   2.212  14.155 -0.2245  3.2426  0.3717
16991TIP3    H272465   5.942   2.197  14.016  0.3984 -1.4109  0.4631
16992TIP3   OH272466   6.184   3.121   4.732  0.2343  0.0973 -0.1875
16992TIP3    H172467   6.250   3.134   4.800  1.1595  0.7261 -1.1775
16992TIP3    H272468   6.222   3.160   4.653 -0.8867 -0.4512 -1.0352
16993TIP3   OH272469   5.345   1.912   6.295  0.8403 -0.2263 -0.2966
16993TIP3    H172470   5.340   1.963   6.214  1.2218 -1.9177 -1.4392
16993TIP3    H272471   5.439   1.911   6.316  0.7392  0.2345  0.2063
16994TIP3   OH272472   2.168   2.842  16.422  0.3616  0.5903  0.6256
16994TIP3    H172473   2.234   2.784  16.462 -0.8324 -1.1952  0.1294
16994TIP3    H272474   2.159   2.914  16.484  0.9328 -0.4451  1.9711
16995TIP3   OH272475   2.423   5.221  13.921  0.3149 -0.0814  0.2034
16995TIP3    H172476   2.371   5.188  13.995  0.4251  0.9400  0.7577
16995TIP3    H272477   2.493   5.157  13.910 -0.9271 -1.3709 -0.4173
16996TIP3   OH272478   6.811   5.896  17.049 -0.1912 -0.3222 -0.1427
16996TIP3    H172479   6.719   5.894  17.022  0.0402 -0.1333 -0.9619
16996TIP3    H272480   6.858   5.852  16.979  0.6716  2.0232 -1.1566
16997TIP3   OH272481   3.946   2.629  14.038  0.1429 -0.0382 -0.1022
16997TIP3    H172482   3.890   2.706  14.031  0.9096  0.5419  0.0099
16997TIP3    H272483   4.035   2.664  14.040  0.5970 -1.0002 -1.5464
16998TIP3   OH272484   0.744   5.554  16.167 -1.1689  0.5177  0.7061
16998TIP3    H172485   0.678   5.557  16.098 -2.3541  0.0748  1.7834
16998TIP3    H272486   0.780   5.643  16.169 -0.2096  0.2488 -1.2697
16999TIP3   OH272487   2.410   0.570   2.269  0.0935  0.0360 -0.0622
16999TIP3    H172488   2.433   0.528   2.351  2.3890 -0.3354 -0.8070
16999TIP3    H272489   2.482   0.632   2.253 -1.1147  1.2642 -1.0166
17000TIP3   OH272490   5.185   2.659   5.024 -0.6183 -0.4837 -0.0138
17000TIP3    H172491   5.202   2.657   5.118 -1.9781  3.0317  0.4803
17000TIP3    H272492   5.269   2.685   4.985 -0.4593 -0.2826  0.4519
17001TIP3   OH272493   0.579   6.248  14.088 -0.1158  0.3658  0.3350
17001TIP3    H172494   0.498   6.235  14.040  0.5055  2.2134 -1.3225
17001TIP3    H272495   0.552   6.287  14.172 -1.0370 -0.7718  0.5850
17002TIP3   OH272496   2.814   2.670   1.310  0.0700  0.1203  0.2066
17002TIP3    H172497   2.840   2.732   1.378 -0.3190 -0.4744  0.9044
17002TIP3    H272498   2.897   2.633   1.279  0.4152  1.8724 -1.0997
17003TIP3   OH272499   1.108   4.151   5.677 -0.0935 -0.5988 -0.1189
17003TIP3    H172500   1.125   4.200   5.596 -0.0362 -2.6502 -1.4369
17003TIP3    H272501   1.040   4.201   5.722  0.8908  1.3609 -0.7085
17004TIP3   OH272502   2.202   3.443  16.201 -0.1345  0.2217  0.0128
17004TIP3    H172503   2.284   3.445  16.152 -0.0812  0.9428  0.1158
17004TIP3    H272504   2.166   3.532  16.191 -1.0777 -0.1880 -0.3329
17005TIP3   OH272505   6.028   0.555   4.541 -0.1813 -0.6765 -0.3192
17005TIP3    H172506   6.054   0.556   4.449 -1.5384 -0.9779 -0.7195
17005TIP3    H272507   6.003   0.646   4.560  0.0762 -0.6194 -0.2462
17006TIP3   OH272508   6.584   2.757  10.994  0.0596  0.1261 -0.5154
17006TIP3    H172509   6.575   2.671  10.954  0.2019  1.0158 -2.5589
17006TIP3    H272510   6.519   2.757  11.065 -0.9138 -1.1707 -1.3546
17007TIP3   OH272511   4.600   4.706   4.376 -0.0623 -0.5272  0.1800
17007TIP3    H172512   4.591   4.794   4.339 -3.1442  0.1635  2.1884
17007TIP3    H272513   4.639   4.720   4.462  0.2601 -1.2246  0.1497
17008TIP3   OH272514   1.582   5.424   4.286 -0.2039  0.4036 -0.4178
17008TIP3    H172515   1.576   5.479   4.364 -0.2009  0.3413 -0.3736
17008TIP3    H272516   1.659   5.457   4.240  1.5627 -1.4137  1.0561
17009TIP3   OH272517   2.030   3.337  16.405  0.0043 -0.2023  0.0610
17009TIP3    H172518   1.952   3.319  16.353 -0.1861 -1.7679  0.7977
17009TIP3    H272519   2.098   3.357  16.341 -0.6827 -0.1190 -0.6615
17010TIP3   OH272520   0.923   2.275   3.066 -0.0859 -0.6928  0.5091
17010TIP3    H172521   0.918   2.269   3.162 -0.0972 -4.2084  0.4280
17010TIP3    H272522   0.851   2.220   3.035 -0.0536  0.3597 -1.5458
17011TIP3   OH272523   4.718   1.477  11.539  0.4712 -0.2326  0.2976
17011TIP3    H172524   4.782   1.488  11.469  1.2027  1.5833  1.1740
17011TIP3    H272525   4.724   1.558  11.590 -1.2137 -0.7937  1.4982
17012TIP3   OH272526   1.437   6.276   1.521 -0.4400 -0.6332 -0.4816
17012TIP3    H172527   1.352   6.316   1.504  0.2714  0.3926 -1.7458
17012TIP3    H272528   1.454   6.293   1.614 -0.2127  1.9882 -0.9311
17013TIP3   OH272529   4.434   3.489   0.424 -0.5405 -0.3094 -0.1502
17013TIP3    H172530   4.354   3.542   0.419 -0.1893  0.2342 -0.1733
17013TIP3    H272531   4.505   3.554   0.423 -0.1177 -0.7478  0.5287
17014TIP3   OH272532   2.825   4.689   5.262  0.0794 -0.8360 -0.1203
17014TIP3    H172533   2.891   4.664   5.199  0.7104  2.2980 -0.8939
17014TIP3    H272534   2.863   4.764   5.308 -2.1390 -0.1797  0.7919
17015TIP3   OH272535   4.263   2.879   5.511 -0.1451 -0.5385  0.5652
17015TIP3    H172536   4.257   2.807   5.575 -0.1524 -0.3862  0.7366
17015TIP3    H272537   4.273   2.957   5.564 -0.5177 -0.3701  0.3891
17016TIP3   OH272538   1.662   0.920  14.526 -0.0307 -0.0480  0.1663
17016TIP3    H172539   1.633   1.011  14.533 -0.6713 -0.2902  0.7283
17016TIP3    H272540   1.596   0.877  14.472 -0.6434 -0.5596  1.2956
17017TIP3   OH272541   1.224   6.789  13.285  0.1840 -0.2193  0.0247
17017TIP3    H172542   1.268   6.867  13.317  0.8664 -0.4789 -0.2706
17017TIP3    H272543   1.185   6.816  13.202  1.8861 -0.6316 -0.9538
17018TIP3   OH272544   4.457   0.907   5.543 -0.1078 -0.1557 -0.4026
17018TIP3    H172545   4.408   0.825   5.544 -1.1572  0.4505  0.3752
17018TIP3    H272546   4.543   0.884   5.577 -0.7736 -0.7206  0.9804
17019TIP3   OH272547   2.152   5.625   0.687 -0.7133  0.2076  0.0260
17019TIP3    H172548   2.158   5.558   0.755 -0.9159 -1.2717 -1.3549
17019TIP3    H272549   2.123   5.703   0.733 -1.9891 -1.0494  1.4653
17020TIP3   OH272550   2.404   1.308  13.801 -0.2690 -0.2803 -0.4260
17020TIP3    H172551   2.393   1.301  13.706 -3.3556 -0.7064 -0.1472
17020TIP3    H272552   2.335   1.369  13.828  1.5709  1.1027  1.4195
17021TIP3   OH272553   1.907   6.332  13.640 -0.0749  0.0596 -0.0609
17021TIP3    H172554   1.895   6.426  13.645 -1.7003 -0.0297 -1.4431
17021TIP3    H272555   1.881   6.309  13.551 -2.2913 -2.0103  1.0188
17022TIP3   OH272556   0.064   0.545  16.052 -0.0496  0.1065 -0.6363
17022TIP3    H172557   0.071   0.544  15.957 -0.6286 -3.6758 -0.7636
17022TIP3    H272558   0.101   0.462  16.081 -0.4787  0.8377  2.4277
17023TIP3   OH272559   1.387   4.406  14.880  0.4860  0.6725 -0.2523
17023TIP3    H172560   1.466   4.458  14.868  0.7247  0.4332  0.2509
17023TIP3    H272561   1.381   4.353  14.800  1.1558  0.2744 -0.0437
17024TIP3   OH272562   6.541   0.214  16.994 -0.0130 -0.2345  0.2261
17024TIP3    H172563   6.590   0.250  17.067  0.8631  0.3800 -0.6479
17024TIP3    H272564   6.458   0.184  17.033 -0.2375  1.5332  1.2055
17025TIP3   OH272565   4.660   6.552  13.726 -0.3523 -0.0353  0.7772
17025TIP3    H172566   4.654   6.647  13.736  2.4535  0.2681  0.3901
17025TIP3    H272567   4.571   6.520  13.739 -1.6895  2.7769 -0.7561
17026TIP3   OH272568   4.014   3.960  16.761  0.5062  0.5849 -0.4955
17026TIP3    H172569   4.055   3.897  16.701 -0.9078 -0.0040 -0.8670
17026TIP3    H272570   3.958   4.014  16.705  1.1586  1.7399 -0.0745
17027TIP3   OH272571   5.186   6.268   0.255  0.0987  0.6597  0.1522
17027TIP3    H172572   5.230   6.193   0.295 -1.5134 -1.1828 -1.3067
17027TIP3    H272573   5.095   6.260   0.284 -0.4889  0.9322 -1.5106
17028TIP3   OH272574   5.379   2.037   2.451  0.2555 -0.3216  0.3792
17028TIP3    H172575   5.375   2.123   2.491 -1.7711 -0.3035  0.2438
17028TIP3    H272576   5.379   2.054   2.356 -0.9199 -0.4524  0.3401
17029TIP3   OH272577   2.315   0.899  14.165  0.1760  0.3027 -0.0266
17029TIP3    H172578   2.256   0.830  14.136  1.0632  0.2460 -1.8505
17029TIP3    H272579   2.339   0.875  14.255 -1.2174 -0.5655  0.1337
17030TIP3   OH272580   0.732   3.788   5.731 -0.2635  0.3678 -0.4805
17030TIP3    H172581   0.670   3.721   5.700  0.1990  0.1313 -0.9067
17030TIP3    H272582   0.706   3.867   5.685  0.3072  0.0594 -1.3626
17031TIP3   OH272583   0.004   6.360  12.658 -0.0779 -0.0797 -0.3904
17031TIP3    H172584   0.078   6.301  12.644 -0.9666 -0.9897 -1.4642
17031TIP3    H272585  -0.073   6.309  12.632 -0.7415  2.0268 -3.0439
17032TIP3   OH272586   5.356   4.942   5.368 -0.4871 -0.0118  0.2996
17032TIP3    H172587   5.328   4.852   5.382  0.9608 -0.1715  2.8609
17032TIP3    H272588   5.289   4.980   5.311 -2.1619 -2.1576  0.7127
17033TIP3   OH272589   5.867   4.710  14.399 -0.0965  0.4919 -0.1458
17033TIP3    H172590   5.952   4.670  14.417  0.3188  1.5041  0.2325
17033TIP3    H272591   5.889   4.795  14.361 -0.9327  0.8536  0.1632
17034TIP3   OH272592   1.009   0.024  14.442  0.4517  0.3398  0.1010
17034TIP3    H172593   1.082   0.001  14.499 -0.4387 -1.8039  0.4377
17034TIP3    H272594   0.983  -0.058  14.401 -0.5134  1.4045 -1.5606
17035TIP3   OH272595   0.083   2.786  16.115  0.1449  0.4385 -0.6766
17035TIP3    H172596   0.066   2.713  16.056  1.8929 -0.3112 -0.3124
17035TIP3    H272597   0.091   2.746  16.202  0.1533  1.1835 -0.3248
17036TIP3   OH272598   6.607   1.530   2.213 -0.0457  0.5346 -0.0551
17036TIP3    H172599   6.534   1.491   2.262  1.8781 -2.9144  0.4430
17036TIP3    H272600   6.596   1.497   2.124  1.8772 -1.8519  0.4790
17037TIP3   OH272601   6.082   1.679  14.223  0.4922  0.1514  0.5078
17037TIP3    H172602   6.031   1.599  14.207 -1.6539  0.9836  2.5885
17037TIP3    H272603   6.026   1.731  14.280  3.0388  1.9393  1.5202
17038TIP3   OH272604   0.470   0.873  14.755  0.2255  0.3905  0.2095
17038TIP3    H172605   0.441   0.951  14.708  0.6269  0.9128  0.8174
17038TIP3    H272606   0.562   0.890  14.775  1.1190 -1.3613 -1.9612
17039TIP3   OH272607   3.547   1.499  13.227 -0.3525  0.2296  0.4755
17039TIP3    H172608   3.555   1.508  13.322  1.3259  0.7565  0.3202
17039TIP3    H272609   3.619   1.440  13.202 -1.6613 -1.0876 -0.3199
17040TIP3   OH272610   0.147   2.977  16.678 -0.3991 -0.6413  0.0171
17040TIP3    H172611   0.058   2.995  16.708 -0.9226 -2.1511 -0.5503
17040TIP3    H272612   0.156   2.882  16.685  1.9002 -0.3969  2.0310
17041TIP3   OH272613   0.821   4.200   4.978 -0.5446 -0.2750 -0.6375
17041TIP3    H172614   0.907   4.199   4.936 -1.2533 -0.5722 -2.1600
17041TIP3    H272615   0.827   4.133   5.046 -0.1877 -1.7723 -2.0845
17042TIP3   OH272616   5.443   6.049   0.090  0.4938 -0.1800  0.1558
17042TIP3    H172617   5.453   6.088   0.004  1.3544 -0.6282  0.0335
17042TIP3    H272618   5.351   6.024   0.096  0.4369 -0.1720 -0.6496
17043TIP3   OH272619   4.926   5.603  16.424 -0.1403 -0.3371  0.2582
17043TIP3    H172620   4.848   5.558  16.390 -0.2997  0.7687 -0.9047
17043TIP3    H272621   4.891   5.683  16.464  0.4340  0.5237 -0.9087
17044TIP3   OH272622   5.468   3.225   2.966 -0.2155 -0.3592  0.3591
17044TIP3    H172623   5.518   3.162   3.018  0.1964  0.2227  0.6753
17044TIP3    H272624   5.377   3.199   2.979 -0.0637 -0.7589  0.6594
17045TIP3   OH272625   0.395   3.668   3.593 -0.1167  0.0898 -0.3722
17045TIP3    H172626   0.461   3.636   3.531  0.8192  1.0975  0.0714
17045TIP3    H272627   0.421   3.758   3.611 -0.5708 -0.0653  1.2230
17046TIP3   OH272628   3.840   3.294  14.685  0.4807 -0.2248 -0.0689
17046TIP3    H172629   3.914   3.253  14.730 -1.1904 -1.3633  1.8473
17046TIP3    H272630   3.779   3.222  14.669 -1.3037  1.0131  0.7677
17047TIP3   OH272631   1.534   4.313  11.325 -0.1883  0.3007 -0.4846
17047TIP3    H172632   1.493   4.243  11.375  0.3516 -0.3601 -0.9447
17047TIP3    H272633   1.615   4.275  11.291  0.9272  1.6179  0.5615
17048TIP3   OH272634   5.285   5.576   1.613 -0.0804 -0.2358  0.3551
17048TIP3    H172635   5.311   5.555   1.524 -1.9770  0.7799 -0.5029
17048TIP3    H272636   5.272   5.671   1.613 -0.9902 -0.3373  1.4367
17049TIP3   OH272637   3.962   0.017  13.180 -0.1960  0.0711 -0.1457
17049TIP3    H172638   3.953  -0.071  13.216  0.1019 -0.8779 -2.2635
17049TIP3    H272639   4.013   0.006  13.100  1.9812  2.5033  0.7244
17050TIP3   OH272640   2.254   3.105  13.180  0.5519 -0.0721  0.6946
17050TIP3    H172641   2.295   3.185  13.213 -0.2514 -0.1852  2.0732
17050TIP3    H272642   2.200   3.075  13.253 -0.3611 -1.0369 -0.3469
17051TIP3   OH272643   4.680   5.592  14.805  0.3610  0.3306 -0.0952
17051TIP3    H172644   4.750   5.533  14.833 -0.6408 -0.0010  1.8451
17051TIP3    H272645   4.637   5.545  14.734 -0.6842 -1.5536  1.6790
17052TIP3   OH272646   3.146   1.396   1.876 -0.0602 -0.1793 -0.2315
17052TIP3    H172647   3.237   1.409   1.901  0.2019 -0.6192 -0.9448
17052TIP3    H272648   3.096   1.423   1.953  0.6581  0.3470  0.0554
17053TIP3   OH272649   5.702   1.514   4.417  0.8063 -0.3587 -0.2736
17053TIP3    H172650   5.762   1.572   4.369  2.4203 -1.3907  0.3887
17053TIP3    H272651   5.741   1.506   4.504 -0.3917 -0.9607  0.2339
17054TIP3   OH272652   2.720   5.278  12.746 -0.4674 -0.1971  0.7399
17054TIP3    H172653   2.679   5.191  12.743 -0.4965 -0.1446 -1.5620
17054TIP3    H272654   2.647   5.339  12.756 -0.8158 -0.2446 -1.1904
17055TIP3   OH272655   2.307   6.542  14.805 -0.1256  0.8362  0.0118
17055TIP3    H172656   2.326   6.577  14.892 -0.0886  0.2609  0.2407
17055TIP3    H272657   2.393   6.525  14.767 -0.1415  0.2444  0.2194
17056TIP3   OH272658   2.301   6.136  16.389  0.1757 -0.1851  0.5155
17056TIP3    H172659   2.367   6.164  16.453 -0.5970  0.1356  1.1932
17056TIP3    H272660   2.227   6.107  16.442 -1.1293  1.6177 -0.2150
17057TIP3   OH272661   2.140   0.789  16.958 -0.2558 -0.7437 -0.5184
17057TIP3    H172662   2.099   0.857  17.011  1.4857 -1.0283  1.3229
17057TIP3    H272663   2.233   0.794  16.979  0.7288 -0.3649 -4.2173
17058TIP3   OH272664   1.853   6.440  11.691  0.5072 -0.2299 -0.8650
17058TIP3    H172665   1.877   6.368  11.633 -0.7898 -1.4586  0.0488
17058TIP3    H272666   1.917   6.437  11.761  1.6278  0.7873 -1.7960
17059TIP3   OH272667   6.715   1.789   5.382  0.0703  0.4021 -0.1424
17059TIP3    H172668   6.699   1.883   5.371  0.1891  0.3463 -0.7789
17059TIP3    H272669   6.810   1.781   5.377  0.0517  0.2310 -0.1942
17060TIP3   OH272670   1.702   1.915  14.874 -0.1487  0.0304  0.2403
17060TIP3    H172671   1.607   1.908  14.883 -0.0952 -0.1273  0.7388
17060TIP3    H272672   1.725   1.995  14.921  0.3253 -1.6697  3.1996
17061TIP3   OH272673   5.455   1.160  12.256 -0.3239 -0.0685  0.4609
17061TIP3    H172674   5.438   1.077  12.301  0.1238  0.2587  1.2449
17061TIP3    H272675   5.388   1.220  12.290  0.3462  0.3268  1.1137
17062TIP3   OH272676   2.666   4.527  12.756  0.1105  0.3410 -0.2541
17062TIP3    H172677   2.672   4.434  12.779  1.0483  0.2975 -0.6143
17062TIP3    H272678   2.676   4.529  12.661  0.4161  0.8329 -0.2155
17063TIP3   OH272679   1.009   2.139   6.288 -0.7086  0.0474 -0.0335
17063TIP3    H172680   1.012   2.043   6.285  0.4968 -0.0699  2.3012
17063TIP3    H272681   1.051   2.161   6.371 -1.5125  2.5933 -0.2295
17064TIP3   OH272682   0.833   5.681  12.030  0.4094  0.0151  0.3689
17064TIP3    H172683   0.788   5.632  12.099  1.1763 -1.6811 -0.2726
17064TIP3    H272684   0.925   5.680  12.056  0.8854 -1.6313 -1.1759
17065TIP3   OH272685   0.852   3.498  17.049 -0.0857 -0.2791 -0.4330
17065TIP3    H172686   0.841   3.592  17.065 -0.0924 -0.1297 -1.3013
17065TIP3    H272687   0.940   3.490  17.011 -0.1788 -0.5971 -0.5869
17066TIP3   OH272688   2.517   5.950  12.596 -0.0422 -0.9620 -0.3639
17066TIP3    H172689   2.554   5.968  12.510  2.9333  1.0211  1.1172
17066TIP3    H272690   2.572   5.879  12.631  0.2307 -0.2869  0.6341
17067TIP3   OH272691   5.024   3.884   4.025  0.1111  0.5741 -0.0822
17067TIP3    H172692   4.992   3.949   4.087  0.7027  0.2110  0.6301
17067TIP3    H272693   4.946   3.852   3.980 -0.5657 -0.3297  1.6420
17068TIP3   OH272694   2.427   1.913  14.420 -0.2307 -0.5377 -0.4633
17068TIP3    H172695   2.413   1.969  14.344 -0.0900  0.1733  0.0264
17068TIP3    H272696   2.447   1.974  14.491 -1.2833 -1.1279  0.3623
17069TIP3   OH272697   3.806   1.779  17.007  0.1431  0.2461  0.3035
17069TIP3    H172698   3.902   1.781  17.002  0.0949  1.4130 -0.6808
17069TIP3    H272699   3.786   1.831  17.085  0.2928  0.7170  0.0322
17070TIP3   OH272700   1.308   1.703   0.311 -0.0675 -0.2412  0.1827
17070TIP3    H172701   1.312   1.730   0.403 -2.4397  1.5507 -0.1336
17070TIP3    H272702   1.232   1.646   0.305  0.1634 -0.4837 -0.6452
17071TIP3   OH272703   2.902   2.823  16.178  0.1439  0.2697 -0.0602
17071TIP3    H172704   2.946   2.904  16.150  1.1624 -0.4580 -0.6503
17071TIP3    H272705   2.846   2.799  16.104  1.4242 -0.6557 -0.7677
17072TIP3   OH272706   6.228   0.545  16.926 -0.2923 -0.3317  0.3785
17072TIP3    H172707   6.323   0.551  16.937 -0.3115 -0.7408  0.7819
17072TIP3    H272708   6.213   0.458  16.889 -0.3170  0.6278 -2.0238
17073TIP3   OH272709   2.398   0.493   1.593  0.4860  0.1696  0.0102
17073TIP3    H172710   2.387   0.546   1.513 -0.3199  1.5832  0.9996
17073TIP3    H272711   2.434   0.410   1.562 -0.5515  0.3647 -1.9236
17074TIP3   OH272712   0.160   1.671  11.203 -0.2261  0.1460 -0.0242
17074TIP3    H172713   0.152   1.690  11.109 -0.2096  0.5207  0.0482
17074TIP3    H272714   0.189   1.580  11.207  0.8272  0.4529 -0.4062
17075TIP3   OH272715   2.558   4.133   1.704  0.3845 -0.0533  0.2442
17075TIP3    H172716   2.588   4.209   1.654  1.9518 -0.7207  0.1370
17075TIP3    H272717   2.524   4.073   1.637  2.4175 -0.9176 -0.0764
17076TIP3   OH272718   1.444   4.391   6.483  0.2259  0.3289 -0.0045
17076TIP3    H172719   1.430   4.314   6.537  0.0762 -0.0943 -0.6264
17076TIP3    H272720   1.472   4.460   6.544  1.3295 -0.4868  0.4373
17077TIP3   OH272721   1.458   3.068  16.257  0.0351 -0.5901  0.3283
17077TIP3    H172722   1.483   2.994  16.202 -0.7104 -0.3416 -0.3578
17077TIP3    H272723   1.421   3.132  16.197 -0.6554 -0.2424  1.1040
17078TIP3   OH272724   2.942   2.109  16.960 -0.3101 -0.0061  0.6659
17078TIP3    H172725   2.855   2.147  16.950  0.0875  0.6737 -0.2964
17078TIP3    H272726   2.973   2.096  16.871  0.8044  0.2858  0.9985
17079TIP3   OH272727   0.604   0.443   5.799 -0.0320 -0.0953  0.3569
17079TIP3    H172728   0.533   0.393   5.840  0.7853 -0.3600  1.4888
17079TIP3    H272729   0.593   0.532   5.831  0.0244 -0.0970  0.3818
17080TIP3   OH272730   5.775   4.989  12.665  0.9957  0.8023  0.5113
17080TIP3    H172731   5.761   4.956  12.576  2.2627  0.6542  0.3439
17080TIP3    H272732   5.727   5.071  12.669 -1.4299 -0.5316  0.6238
17081TIP3   OH272733   4.559   0.881   3.922  0.1205 -0.1274  0.4286
17081TIP3    H172734   4.583   0.941   3.851 -0.2622 -0.4500  0.0176
17081TIP3    H272735   4.603   0.799   3.900  2.2141  0.4995  1.9860
17082TIP3   OH272736   3.951   4.033   2.663  0.3222 -0.7461 -0.0329
17082TIP3    H172737   3.893   3.961   2.686  0.6464 -0.5377  1.5353
17082TIP3    H272738   4.036   4.008   2.700  1.3897 -1.2482 -2.6408
17083TIP3   OH272739   6.594   2.650  14.237  0.2345 -0.0323 -0.7080
17083TIP3    H172740   6.605   2.556  14.228  0.2123 -0.5198  2.9011
17083TIP3    H272741   6.500   2.663  14.248  0.3992  0.1776  0.5358
17084TIP3   OH272742   2.508   4.736  13.295  0.1637  0.2022  0.2459
17084TIP3    H172743   2.537   4.684  13.370  2.1567 -0.8437 -1.1404
17084TIP3    H272744   2.509   4.674  13.222  0.2883  1.6448 -1.0287
17085TIP3   OH272745   6.130   0.178   5.484  0.2810 -0.8229 -0.3629
17085TIP3    H172746   6.093   0.187   5.572  0.5467 -0.1295 -0.3157
17085TIP3    H272747   6.095   0.254   5.437  2.2627  0.3137 -0.0927
17086TIP3   OH272748   6.480   5.120  15.374 -0.5035 -0.2545 -0.4614
17086TIP3    H172749   6.410   5.087  15.317 -0.7084  0.0756 -0.4071
17086TIP3    H272750   6.437   5.139  15.457 -0.6909  1.4333 -0.9026
17087TIP3   OH272751   1.868   2.935   0.817 -0.3506 -0.0592 -0.0642
17087TIP3    H172752   1.847   3.012   0.764 -0.4678 -1.4061 -2.0905
17087TIP3    H272753   1.950   2.957   0.860 -1.5091  2.0418  1.2654
17088TIP3   OH272754   5.252   3.981   5.265 -0.4509 -0.0971  0.0943
17088TIP3    H172755   5.244   3.989   5.170 -1.8234 -0.9689  0.1186
17088TIP3    H272756   5.163   3.984   5.297 -0.0380 -0.4488  1.3125
17089TIP3   OH272757   5.951   5.530  13.245 -0.2610  0.2944 -0.1091
17089TIP3    H172758   5.914   5.571  13.167 -3.0596 -0.9274  0.4488
17089TIP3    H272759   5.991   5.449  13.213  0.6664  0.9131 -0.5425
17090TIP3   OH272760   2.386   4.696   1.670 -0.3269 -0.1864  0.2382
17090TIP3    H172761   2.370   4.752   1.746  0.1413  0.0445  0.1723
17090TIP3    H272762   2.409   4.611   1.707 -1.9265 -0.5967  0.3285
17091TIP3   OH272763   0.584   3.581   2.052  0.2311 -0.2650 -0.2995
17091TIP3    H172764   0.530   3.538   2.118  0.6911  1.7096  1.4990
17091TIP3    H272765   0.662   3.527   2.045 -0.0760 -0.8064  0.3828
17092TIP3   OH272766   2.376   3.138   0.996  0.5022  0.1295  0.2001
17092TIP3    H172767   2.388   3.233   0.989  0.9308  0.0988  0.5112
17092TIP3    H272768   2.451   3.108   1.047 -0.8465 -0.0856  2.1698
17093TIP3   OH272769   4.878   5.303  17.003 -0.1139  0.2492  0.1937
17093TIP3    H172770   4.858   5.321  16.912  0.6510 -0.1872 -0.0721
17093TIP3    H272771   4.805   5.250  17.034  0.2589 -0.7359 -0.5594
17094TIP3   OH272772   4.487   5.884  13.936 -0.6216  0.2893  0.2275
17094TIP3    H172773   4.490   5.966  13.886  0.2676  0.1027 -0.0444
17094TIP3    H272774   4.546   5.898  14.009 -1.2908  0.2614  0.7853
17095TIP3   OH272775   2.499   0.209   3.124 -0.0762  0.5398  0.3020
17095TIP3    H172776   2.408   0.241   3.128 -0.5948 -0.9095  1.3592
17095TIP3    H272777   2.517   0.197   3.031 -0.3583  2.4396 -0.0274
17096TIP3   OH272778   1.248   3.289  11.744 -0.0558  0.6168  0.4074
17096TIP3    H172779   1.280   3.360  11.688  0.1046 -0.2477 -0.6280
17096TIP3    H272780   1.320   3.226  11.746 -1.4256 -1.1136 -1.5218
17097TIP3   OH272781   2.789   3.759   1.667  0.1170 -0.3172 -0.6792
17097TIP3    H172782   2.796   3.830   1.603 -0.2021 -1.2972 -1.8275
17097TIP3    H272783   2.714   3.784   1.722  1.0672  1.0754  0.0557
17098TIP3   OH272784   0.976   2.214  14.665 -0.7047 -0.0430  0.1514
17098TIP3    H172785   1.028   2.233  14.743 -0.9169 -0.6418  0.4445
17098TIP3    H272786   0.899   2.270  14.673 -0.9117 -0.3796  0.5715
17099TIP3   OH272787   0.854   0.287   0.127 -0.1802 -0.1622  0.0481
17099TIP3    H172788   0.850   0.223   0.198  0.6614  1.4882  1.6681
17099TIP3    H272789   0.798   0.250   0.058 -1.1408 -1.7756  1.6009
17100TIP3   OH272790   1.818   0.355   5.389  0.6238  0.2249  0.1360
17100TIP3    H172791   1.733   0.333   5.429  0.0014  2.5797  0.2337
17100TIP3    H272792   1.837   0.444   5.418  1.5672  0.9743 -2.4328
17101TIP3   OH272793   5.472   6.331  11.281  0.5876  0.0031 -0.0601
17101TIP3    H172794   5.503   6.328  11.372  0.8556 -0.6388 -0.1709
17101TIP3    H272795   5.381   6.362  11.288  1.0453  1.3591  0.3128
17102TIP3   OH272796   1.602   1.568   2.554 -0.3806 -0.6118 -0.5474
17102TIP3    H172797   1.635   1.643   2.504  2.7604 -1.2473  0.3042
17102TIP3    H272798   1.602   1.597   2.645 -1.1289 -1.0012 -0.4182
17103TIP3   OH272799   3.453   0.363  11.763  0.3474 -0.2293  0.0130
17103TIP3    H172800   3.532   0.351  11.711  2.1934  3.0406  1.6920
17103TIP3    H272801   3.432   0.456  11.753 -0.3648  0.1027  3.3597
17104TIP3   OH272802   1.967   5.097   6.065 -0.3402  0.6818  0.0119
17104TIP3    H172803   2.041   5.158   6.072 -0.4489  0.7298  0.7520
17104TIP3    H272804   1.987   5.046   5.987  1.2670 -0.3157  1.0062
17105TIP3   OH272805   5.966   2.934  16.564  0.1092 -0.6422  0.1865
17105TIP3    H172806   5.880   2.945  16.523  0.6562 -0.0213 -0.8155
17105TIP3    H272807   6.012   2.872  16.507  1.1299  0.7716 -0.5948
17106TIP3   OH272808   3.681   4.570   3.289 -0.2720  0.2574  0.4364
17106TIP3    H172809   3.638   4.651   3.318 -0.0304  0.6182 -0.1946
17106TIP3    H272810   3.630   4.500   3.330  0.4028  0.7442  2.1999
17107TIP3   OH272811   3.358   6.034  16.023  0.9438 -0.3723 -0.0855
17107TIP3    H172812   3.314   5.994  15.948 -1.1164  0.7435  0.4433
17107TIP3    H272813   3.422   5.968  16.051 -0.6429 -2.2829 -0.7072
17108TIP3   OH272814   2.335   4.797   0.063  0.5629  0.0968  0.2901
17108TIP3    H172815   2.415   4.754   0.092  0.6581  0.7526  1.0199
17108TIP3    H272816   2.336   4.787  -0.032  1.4727  0.0305  0.2940
17109TIP3   OH272817   4.540   6.452   2.453  0.1865 -0.3317 -0.0228
17109TIP3    H172818   4.619   6.495   2.484 -0.3781 -0.1849  1.2781
17109TIP3    H272819   4.473   6.474   2.518 -1.0549 -0.0477 -1.3340
17110TIP3   OH272820   0.346   4.783  17.160  0.0703  0.2740  0.6798
17110TIP3    H172821   0.304   4.825  17.236  1.4562  0.8939  1.1382
17110TIP3    H272822   0.299   4.818  17.084  0.4754  1.8046  1.1150
17111TIP3   OH272823   2.450   3.356  14.965 -0.2580 -0.2108  0.1910
17111TIP3    H172824   2.490   3.441  14.983 -0.1145 -0.2364 -0.0086
17111TIP3    H272825   2.499   3.321  14.891  0.6332 -1.1075  1.1809
17112TIP3   OH272826   4.432   0.875  12.952  0.5057 -0.2348 -0.0142
17112TIP3    H172827   4.358   0.819  12.929  0.3695  0.3777 -1.1722
17112TIP3    H272828   4.493   0.863  12.879  1.5342 -0.6892  0.8967
17113TIP3   OH272829   2.236   0.246  16.690 -0.5963 -0.4297  0.1246
17113TIP3    H172830   2.219   0.174  16.751 -2.6977 -1.0077 -1.0441
17113TIP3    H272831   2.149   0.277  16.664  0.2442  1.8824 -0.2010
17114TIP3   OH272832   0.812   1.625   3.306 -0.3650 -0.0916 -0.4879
17114TIP3    H172833   0.727   1.649   3.344 -0.5726 -1.4054 -0.0598
17114TIP3    H272834   0.842   1.551   3.360  1.1438  0.4635 -0.5172
17115TIP3   OH272835   1.456   3.430  15.021  0.2786 -0.2901  0.0308
17115TIP3    H172836   1.550   3.417  15.018  0.2788 -1.4322  2.3501
17115TIP3    H272837   1.432   3.407  15.111 -2.1211  0.6106 -0.3091
17116TIP3   OH272838   4.061   6.454  12.208  0.1134  0.2930 -0.3442
17116TIP3    H172839   4.070   6.358  12.212  2.1699  0.5027  1.6673
17116TIP3    H272840   4.097   6.477  12.122  0.5918 -0.6371 -0.4067
17117TIP3   OH272841   0.994   3.418  13.631  0.1340  0.4114 -0.4219
17117TIP3    H172842   1.008   3.446  13.540  0.6537 -0.3041 -0.5752
17117TIP3    H272843   1.061   3.465  13.681  2.2034 -1.7551 -0.9226
17118TIP3   OH272844   0.799   4.986  10.874 -0.0898  0.2190 -0.0780
17118TIP3    H172845   0.733   4.925  10.907  0.0274  0.7016  1.0858
17118TIP3    H272846   0.764   5.073  10.894 -0.3914  0.5905 -1.9794
17119TIP3   OH272847   1.790   1.166   6.604  0.0000 -0.2099  0.6323
17119TIP3    H172848   1.825   1.176   6.516  0.5362  1.4458  1.0012
17119TIP3    H272849   1.781   1.071   6.616  0.9963 -0.5105 -0.7720
17120TIP3   OH272850   1.501   6.216   5.089  0.6226 -0.2761 -0.1305
17120TIP3    H172851   1.457   6.286   5.137  0.4099  0.5435 -1.4806
17120TIP3    H272852   1.448   6.138   5.106  0.1222  0.1568  0.3141
17121TIP3   OH272853   1.788   0.958   1.430 -0.3375  0.4432  0.3477
17121TIP3    H172854   1.857   0.894   1.449  0.3003  0.6103 -1.2445
17121TIP3    H272855   1.739   0.920   1.357 -1.1430  0.9241  0.6190
17122TIP3   OH272856   2.819   2.695  12.911 -0.0468 -0.6130  0.3104
17122TIP3    H172857   2.793   2.633  12.844 -0.5269  0.6967 -0.7594
17122TIP3    H272858   2.742   2.703  12.968  0.2538 -1.4820  0.8715
17123TIP3   OH272859   6.375   4.357  12.496  0.0562  0.3134 -0.3267
17123TIP3    H172860   6.340   4.332  12.582 -1.6496  0.4218 -0.9676
17123TIP3    H272861   6.328   4.302  12.434  0.9624  0.5445 -1.2514
17124TIP3   OH272862   3.806   0.628  10.642 -0.3008  0.0749  0.5464
17124TIP3    H172863   3.881   0.671  10.684 -0.0951 -0.1950  0.4521
17124TIP3    H272864   3.806   0.539  10.678 -0.4630  0.0152  0.3999
17125TIP3   OH272865   4.776   2.461   1.498  0.6625  0.4317 -0.6108
17125TIP3    H172866   4.744   2.372   1.516 -0.6401  1.0218  0.1188
17125TIP3    H272867   4.847   2.475   1.561  0.6611  0.0264 -0.5169
17126TIP3   OH272868   1.982   6.366   0.592  0.1334  0.5095 -1.1064
17126TIP3    H172869   1.888   6.349   0.585 -0.1113  0.9279  0.7452
17126TIP3    H272870   2.003   6.415   0.512 -1.8025  2.7214 -0.3984
17127TIP3   OH272871   1.566   6.540   0.565 -0.3544  0.0711 -0.4757
17127TIP3    H172872   1.510   6.538   0.642  0.9511  1.1252  0.5527
17127TIP3    H272873   1.595   6.631   0.559  0.6402 -0.2791 -1.4221
17128TIP3   OH272874   1.805   6.550  11.451 -0.4151 -0.2209 -0.0151
17128TIP3    H172875   1.771   6.489  11.385 -1.3578  0.6972 -0.4007
17128TIP3    H272876   1.761   6.525  11.532 -0.4223 -0.3651 -0.0636
17129TIP3   OH272877   3.943   2.730  11.048 -0.0042 -0.2084  0.7385
17129TIP3    H172878   3.887   2.796  11.088 -3.8061 -1.8698 -1.3120
17129TIP3    H272879   3.974   2.770  10.967 -1.3841 -0.4646  0.0528
17130TIP3   OH272880   3.251   0.643  13.164 -0.2212 -0.4507 -0.1404
17130TIP3    H172881   3.160   0.648  13.135 -1.0598 -0.4075  2.3171
17130TIP3    H272882   3.255   0.699  13.241  1.7697 -0.8595  0.1057
17131TIP3   OH272883   5.673   2.852   2.209  0.1760  0.2519  0.0668
17131TIP3    H172884   5.739   2.908   2.250  0.5786  0.6640 -1.0764
17131TIP3    H272885   5.640   2.797   2.279  0.2384  1.4783  1.0975
17132TIP3   OH272886   0.566   6.505  14.557  0.2723 -0.6328  0.2748
17132TIP3    H172887   0.652   6.545  14.566  0.4049 -0.3143 -1.8935
17132TIP3    H272888   0.559   6.446  14.632  1.6989  0.4846  1.3626
17133TIP3   OH272889   4.896   5.449   3.205  0.9532  0.1718 -0.3597
17133TIP3    H172890   4.888   5.530   3.156  0.5462  0.8157  0.7395
17133TIP3    H272891   4.827   5.392   3.169  0.8227  0.5418 -0.6970
17134TIP3   OH272892   6.257   0.974   3.033  0.1332  0.1306  0.3801
17134TIP3    H172893   6.324   1.033   2.999 -0.2471 -0.0474 -0.6891
17134TIP3    H272894   6.305   0.896   3.060  0.2380 -0.5088 -1.5559
17135TIP3   OH272895   4.314   0.765  15.578 -0.3727 -0.1030  0.3084
17135TIP3    H172896   4.344   0.818  15.503 -3.0372  1.5804  0.2984
17135TIP3    H272897   4.267   0.692  15.538  1.7733 -1.6262  0.3690
17136TIP3   OH272898   1.685   1.961   4.989  0.4659  0.5624  0.2732
17136TIP3    H172899   1.749   1.998   5.051 -0.0714  0.8104  0.6875
17136TIP3    H272900   1.729   1.967   4.904  0.8590  1.0712  0.5007
17137TIP3   OH272901   1.200   3.022   2.313  0.3863 -0.4446  0.7439
17137TIP3    H172902   1.152   3.103   2.330 -0.5401 -0.8112 -0.0399
17137TIP3    H272903   1.291   3.048   2.309 -0.0352  0.9723 -1.7071
17138TIP3   OH272904   6.786   2.809  14.019  0.1956 -0.5421 -0.1255
17138TIP3    H172905   6.876   2.808  14.051 -0.5130  0.5194  2.1030
17138TIP3    H272906   6.773   2.721  13.982  1.2895 -1.7468  2.1398
17139TIP3   OH272907   1.349   3.044  11.166 -0.1588 -0.0112  0.5929
17139TIP3    H172908   1.270   2.991  11.174 -0.4250  0.3016  0.0967
17139TIP3    H272909   1.382   3.025  11.079  1.3351 -1.5199  1.4426
17140TIP3   OH272910   3.207   0.057   3.928  0.1128 -0.1321 -0.3869
17140TIP3    H172911   3.149   0.013   3.866 -0.0686 -2.2255  1.1513
17140TIP3    H272912   3.229   0.140   3.886 -1.5443 -0.6099 -2.3508
17141TIP3   OH272913   2.816   3.506  11.150 -0.1538 -0.1429 -0.5260
17141TIP3    H172914   2.749   3.563  11.110 -0.9747 -0.8655 -0.2132
17141TIP3    H272915   2.766   3.443  11.202  0.8674  1.0251  2.0601
17142TIP3   OH272916   6.106   6.168   6.235  0.0254 -0.0593  0.2350
17142TIP3    H172917   6.155   6.088   6.252 -0.7724 -0.8532 -1.0602
17142TIP3    H272918   6.137   6.198   6.150 -1.2731 -0.2390 -0.3180
17143TIP3   OH272919   4.130   6.189   3.354  0.0719  0.3878  0.3571
17143TIP3    H172920   4.115   6.278   3.322  0.4060  0.1577 -0.4685
17143TIP3    H272921   4.053   6.169   3.408  0.7563  1.7641  1.9174
17144TIP3   OH272922   0.289   4.335   5.214 -0.5820 -0.3482 -0.5529
17144TIP3    H172923   0.202   4.358   5.182 -0.7295  2.4819  1.5049
17144TIP3    H272924   0.349   4.377   5.152 -0.8520  2.7399  1.0471
17145TIP3   OH272925   4.363   5.897   1.139  0.1300  0.3835 -0.5311
17145TIP3    H172926   4.336   5.986   1.161  1.6796  0.4629  1.3389
17145TIP3    H272927   4.455   5.893   1.165 -0.2545 -2.1763  0.7711
17146TIP3   OH272928   5.152   5.378   5.641  0.0761 -0.1235  0.1107
17146TIP3    H172929   5.231   5.386   5.587 -0.1088 -0.8608 -0.2803
17146TIP3    H272930   5.143   5.283   5.656 -0.5423 -0.0167  0.4413
17147TIP3   OH272931   0.360   2.494  16.788  0.1145  0.1400  0.0254
17147TIP3    H172932   0.455   2.501  16.795 -0.0784  2.9684  1.0828
17147TIP3    H272933   0.335   2.440  16.863  0.8684 -0.5756 -0.2248
17148TIP3   OH272934   3.981   0.793  12.118 -0.0181 -0.2321 -0.0411
17148TIP3    H172935   4.004   0.877  12.159 -0.5716  1.2769 -2.6307
17148TIP3    H272936   3.886   0.788  12.126  0.0238 -0.7223  0.2246
17149TIP3   OH272937   4.644   5.732   1.295 -0.1827 -0.5529  0.0115
17149TIP3    H172938   4.692   5.814   1.306 -0.2278 -0.7250  1.8171
17149TIP3    H272939   4.631   5.724   1.200 -0.1262  1.4861 -0.2130
17150TIP3   OH272940   0.805   0.529   0.851  0.0203 -0.3793  0.5194
17150TIP3    H172941   0.753   0.528   0.931 -1.4871  3.3509 -0.1990
17150TIP3    H272942   0.896   0.526   0.880 -0.4900 -1.5496  2.1505
17151TIP3   OH272943   0.384   5.111   1.211  0.1112 -0.2262  0.2150
17151TIP3    H172944   0.473   5.134   1.184  0.0590  0.2286  0.4068
17151TIP3    H272945   0.393   5.027   1.255  0.5871  0.2033  0.9628
17152TIP3   OH272946   0.085   1.828  14.328  0.1582  0.3492  0.4942
17152TIP3    H172947   0.164   1.847  14.278  1.5704  0.0827  2.5093
17152TIP3    H272948   0.112   1.764  14.393 -1.9516 -0.4382  0.6759
17153TIP3   OH272949   4.279   1.980  13.466 -0.3446 -0.6972 -0.6454
17153TIP3    H172950   4.243   2.055  13.419  1.1889 -1.2405 -2.8328
17153TIP3    H272951   4.331   2.019  13.536 -0.3219  0.2377 -1.1645
17154TIP3   OH272952   2.436   4.429   1.718  0.6458 -0.0705 -0.2552
17154TIP3    H172953   2.371   4.375   1.673  0.6106  0.7841 -1.2682
17154TIP3    H272954   2.507   4.439   1.655  1.6804 -0.8111  0.7633
17155TIP3   OH272955   4.301   5.676   2.073  0.2764  0.5348 -0.3891
17155TIP3    H172956   4.246   5.714   2.141  0.0989  0.5894 -0.5626
17155TIP3    H272957   4.258   5.594   2.049  1.4780 -0.5899  1.0866
17156TIP3   OH272958   0.852   0.601   3.521  0.5656  0.5959 -0.1250
17156TIP3    H172959   0.861   0.566   3.610 -0.2781  0.7786  0.0415
17156TIP3    H272960   0.772   0.560   3.487  0.9762  0.3924 -0.8687
17157TIP3   OH272961   0.874   3.291   0.466  0.9645 -0.5204 -0.0617
17157TIP3    H172962   0.945   3.354   0.464  0.4245  0.0783 -1.1649
17157TIP3    H272963   0.910   3.215   0.513  1.6621  0.5296  1.1563
17158TIP3   OH272964   2.346   3.818  16.318 -0.0699  0.2710  0.4382
17158TIP3    H172965   2.415   3.779  16.372  1.7201  2.7539  0.1429
17158TIP3    H272966   2.318   3.894  16.369 -0.0388  1.3003 -1.0393
17159TIP3   OH272967   4.374   5.517   5.582  0.8488  0.4091  0.3879
17159TIP3    H172968   4.464   5.488   5.564  0.2765 -2.6791  1.8381
17159TIP3    H272969   4.330   5.439   5.615 -2.2382  1.9870  0.3459
17160TIP3   OH272970   6.484   3.819  14.736  0.2790  1.0595 -0.2348
17160TIP3    H172971   6.411   3.758  14.748  0.6933  0.7698  0.9548
17160TIP3    H272972   6.558   3.763  14.711  1.4231  0.5823  3.6586
17161TIP3   OH272973   4.859   6.325  12.584 -0.3627  0.5748  0.1618
17161TIP3    H172974   4.917   6.400  12.570  0.5304 -0.2796 -0.9292
17161TIP3    H272975   4.862   6.310  12.678 -0.4528  1.8141  0.3846
17162TIP3   OH272976   3.807   1.265   5.401 -0.3964  0.4448 -0.0163
17162TIP3    H172977   3.723   1.220   5.402  0.7389 -1.9836 -1.7882
17162TIP3    H272978   3.845   1.247   5.487 -0.9244 -0.1355  0.1035
17163TIP3   OH272979   0.647   0.090  13.949  0.3949 -0.4632 -0.5695
17163TIP3    H172980   0.654   0.171  13.999 -0.8764  1.1998 -2.8748
17163TIP3    H272981   0.738   0.066  13.930  0.7972  1.1798 -0.9209
17164TIP3   OH272982   2.647   4.883   5.027  0.2183 -0.5240  0.5576
17164TIP3    H172983   2.602   4.907   4.947  1.1916  0.9302  0.4174
17164TIP3    H272984   2.721   4.830   4.998  0.3768 -0.2851  0.5274
17165TIP3   OH272985   0.206   2.188  16.074 -0.8091 -0.3516 -0.7527
17165TIP3    H172986   0.162   2.168  15.992 -2.2471 -0.8595  0.0918
17165TIP3    H272987   0.262   2.112  16.090 -0.5853 -0.2867 -1.2298
17166TIP3   OH272988   1.906   2.583  10.748  0.0824 -0.3628  0.6453
17166TIP3    H172989   1.912   2.555  10.839  1.6051 -0.9115  0.4067
17166TIP3    H272990   1.827   2.540  10.715  0.1425 -1.0845  1.4103
17167TIP3   OH272991   3.846   4.421  13.326  0.1713 -0.5585 -0.0474
17167TIP3    H172992   3.818   4.344  13.375 -0.4862  0.9762  2.0986
17167TIP3    H272993   3.765   4.461  13.295  0.5118 -0.7131 -1.2122
17168TIP3   OH272994   5.940   2.275  11.694 -0.2334 -0.0293 -0.2037
17168TIP3    H172995   5.897   2.360  11.702 -0.1865  0.0060 -0.3185
17168TIP3    H272996   5.965   2.270  11.601  1.2943  0.5742  0.1473
17169TIP3   OH272997   5.117   2.429  16.100  0.0396  0.0725 -0.8671
17169TIP3    H172998   5.093   2.503  16.156 -1.7781 -0.5074 -0.8068
17169TIP3    H272999   5.081   2.352  16.145  1.5556 -0.8290 -1.1174
17170TIP3   OH273000   3.117   4.800   0.276  0.5664 -0.6590  0.3972
17170TIP3    H173001   3.204   4.809   0.315  0.4718  1.1241  0.2768
17170TIP3    H273002   3.061   4.856   0.329 -0.0778 -0.1536 -0.7764
17171TIP3   OH273003   2.122   5.644  11.312  0.0978  0.3204  0.4328
17171TIP3    H173004   2.109   5.569  11.254 -0.5773  0.9378 -0.2386
17171TIP3    H273005   2.216   5.644  11.330  0.1956 -0.3304 -0.0572
17172TIP3   OH273006   6.727   1.303   4.622  0.2198  0.3222  0.2585
17172TIP3    H173007   6.782   1.320   4.698 -1.3535 -0.1244  1.5627
17172TIP3    H273008   6.722   1.387   4.576 -0.1439  1.0565  1.5975
17173TIP3   OH273009   1.312   2.096  14.653 -0.4730 -0.1061 -0.6514
17173TIP3    H173010   1.294   2.182  14.613 -2.0484  0.4769  1.1811
17173TIP3    H273011   1.320   2.114  14.746  1.6398 -1.6546 -0.4705
17174TIP3   OH273012   4.260   6.354   4.653  1.0692  0.3278 -0.2483
17174TIP3    H173013   4.310   6.364   4.572  2.1141 -2.3834 -0.0368
17174TIP3    H273014   4.288   6.270   4.689 -2.9238 -0.9353  0.4174
17175TIP3   OH273015   3.979   3.420   2.281  0.0593  0.4994 -0.2719
17175TIP3    H173016   4.038   3.446   2.352 -0.6012 -1.3194  0.9993
17175TIP3    H273017   3.897   3.398   2.324 -0.4624 -0.3269 -1.6293
17176TIP3   OH273018   1.409   4.077   4.540 -0.1220  0.0123 -0.1505
17176TIP3    H173019   1.490   4.079   4.489  0.6145 -2.4526  0.8085
17176TIP3    H273020   1.340   4.071   4.474  0.6686 -0.8015 -0.9338
17177TIP3   OH273021   4.195   5.178  12.953 -0.4821  0.0111  0.1531
17177TIP3    H173022   4.257   5.108  12.970  0.3616  0.9809  1.2185
17177TIP3    H273023   4.170   5.211  13.039 -0.6260  1.2117 -0.3163
17178TIP3   OH273024   5.439   1.372   6.193  0.2911  0.0584 -0.2637
17178TIP3    H173025   5.422   1.437   6.125  2.1811 -0.9150 -1.7591
17178TIP3    H273026   5.356   1.363   6.240 -0.7343  1.6044 -1.7001
17179TIP3   OH273027   0.620   5.176  14.076 -0.2389  1.2423  0.2322
17179TIP3    H173028   0.610   5.163  14.170 -0.6901  0.5649  0.0956
17179TIP3    H273029   0.659   5.095  14.045 -1.7382  0.7342 -0.4203
17180TIP3   OH273030   3.961   0.436   4.935 -0.8033 -0.3360  0.1079
17180TIP3    H173031   4.006   0.358   4.968  0.5426  0.0741 -0.6596
17180TIP3    H273032   3.872   0.428   4.969 -0.8202 -2.3995 -0.2762
17181TIP3   OH273033   4.585   5.123   6.118 -0.3343  0.0662  0.1708
17181TIP3    H173034   4.528   5.066   6.171  0.6813  0.5098  1.8215
17181TIP3    H273035   4.621   5.066   6.051 -1.0456 -0.7243  0.4493
17182TIP3   OH273036   5.988   5.778   3.022 -0.1478 -0.6367 -0.0619
17182TIP3    H173037   5.918   5.745   2.966 -0.2027 -1.0960  0.2678
17182TIP3    H273038   6.060   5.799   2.962 -0.3479 -0.7428 -0.3400
17183TIP3   OH273039   2.276   1.164   4.815 -0.0330  0.1036 -0.2237
17183TIP3    H173040   2.221   1.233   4.852 -0.4940 -0.3885  0.0325
17183TIP3    H273041   2.361   1.205   4.802 -0.7230  1.1890 -1.6094
17184TIP3   OH273042   3.979   1.543   5.661 -0.4022  0.0346 -0.0607
17184TIP3    H173043   4.032   1.593   5.724  0.7140  0.0495 -0.9700
17184TIP3    H273044   3.891   1.544   5.698 -0.0139  1.0312  0.9169
17185TIP3   OH273045   6.801   4.366   0.663 -0.1106  0.3515 -0.3461
17185TIP3    H173046   6.792   4.403   0.751 -1.4818 -2.1478  0.6976
17185TIP3    H273047   6.737   4.414   0.610 -0.1015  1.1160  0.3260
17186TIP3   OH273048   3.849   4.091  10.777 -0.0642 -0.2868 -0.4412
17186TIP3    H173049   3.772   4.133  10.740 -0.1916  0.4666  0.6300
17186TIP3    H273050   3.832   3.998  10.770 -1.2846 -0.1278  0.1986
17187TIP3   OH273051   6.317   6.546   3.689  0.2828 -0.6364 -0.2147
17187TIP3    H173052   6.322   6.529   3.783 -0.8726  1.6084  0.3312
17187TIP3    H273053   6.408   6.543   3.659  0.4791 -4.3081  0.2917
17188TIP3   OH273054   5.566   5.538   3.823 -0.0138  0.1610  0.3894
17188TIP3    H173055   5.554   5.623   3.864 -0.5582 -0.4330  1.5042
17188TIP3    H273056   5.497   5.483   3.859 -0.4493 -0.4441 -1.2471
17189TIP3   OH273057   6.168   6.253   1.443  0.1910 -0.1033  0.1547
17189TIP3    H173058   6.230   6.324   1.428 -1.1225  1.0672  0.0167
17189TIP3    H273059   6.165   6.206   1.360 -0.2489  0.8000 -0.3680
17190TIP3   OH273060   6.640   3.003   4.215 -0.5527 -0.8072  0.0775
17190TIP3    H173061   6.619   2.917   4.179  0.5384  0.2302 -3.4507
17190TIP3    H273062   6.722   2.989   4.263 -1.2712 -2.0050  1.0054
17191TIP3   OH273063   1.618   1.387  12.076  0.5260  0.6252  0.5161
17191TIP3    H173064   1.565   1.332  12.134  0.2453  0.0586 -0.2460
17191TIP3    H273065   1.602   1.350  11.989 -1.6291  3.3706 -0.4126
17192TIP3   OH273066   6.214   1.008   2.343  0.0955 -0.3226  0.4882
17192TIP3    H173067   6.308   1.024   2.345  0.1978 -0.9969  1.8425
17192TIP3    H273068   6.202   0.925   2.390 -1.1548 -0.3572  0.1603
17193TIP3   OH273069   6.841   5.646   0.948 -0.5296 -0.7550 -0.2962
17193TIP3    H173070   6.868   5.699   0.873  0.2613 -1.5130 -0.5668
17193TIP3    H273071   6.899   5.673   1.019 -2.1508  0.9268  0.4684
17194TIP3   OH273072   2.811   5.861  15.591  0.2019  0.3407  0.7448
17194TIP3    H173073   2.897   5.827  15.616  1.1382 -0.4853 -2.9773
17194TIP3    H273074   2.754   5.783  15.591  0.7188 -0.1044 -1.3579
17195TIP3   OH273075   2.044   3.576   3.254  0.1819 -0.2598  0.3625
17195TIP3    H173076   2.005   3.506   3.202  0.3988 -1.8048  2.1515
17195TIP3    H273077   1.971   3.611   3.306  0.4218 -0.4142  0.8053
17196TIP3   OH273078   3.850   0.117  14.241  0.2365  0.3953  0.0597
17196TIP3    H173079   3.768   0.098  14.196  0.4651  0.3604 -0.3424
17196TIP3    H273080   3.851   0.212  14.250 -1.1536  0.2781  2.5287
17197TIP3   OH273081   2.726   5.006   1.303 -0.5660  0.5096  0.0615
17197TIP3    H173082   2.685   5.079   1.257 -0.0388  0.4191 -0.5684
17197TIP3    H273083   2.655   4.942   1.314 -1.7729  2.1731  3.0674
17198TIP3   OH273084   1.034   4.615  11.723 -0.2170 -0.0734  0.0650
17198TIP3    H173085   1.127   4.596  11.709  0.1534  1.6143  0.0281
17198TIP3    H273086   0.992   4.586  11.642  0.0565 -2.0393  0.5840
17199TIP3   OH273087   6.388   2.595  16.927 -0.3516 -0.5505 -0.0873
17199TIP3    H173088   6.430   2.564  16.847  0.1240  0.6309 -0.3140
17199TIP3    H273089   6.361   2.685  16.908 -0.0340 -0.1686  1.1437
17200TIP3   OH273090   1.207   5.264   2.930 -0.3401 -0.1139 -0.2386
17200TIP3    H173091   1.158   5.303   2.857  1.2349 -0.2148 -1.3853
17200TIP3    H273092   1.147   5.270   3.005 -1.5586  1.0512 -1.2662
17201TIP3   OH273093   3.584   3.991  16.845  0.0885  0.1600 -0.2294
17201TIP3    H173094   3.618   3.935  16.915  1.1049  1.1393  0.0846
17201TIP3    H273095   3.574   3.932  16.770  2.3162 -0.2572 -0.2738
17202TIP3   OH273096   3.194   4.391  16.239 -0.5553 -0.2666 -0.3357
17202TIP3    H173097   3.141   4.427  16.168 -1.2496 -0.9749 -0.2004
17202TIP3    H273098   3.133   4.384  16.313 -0.4866 -1.7876 -0.3956
17203TIP3   OH273099   2.898   0.288  10.966 -0.6031 -0.5344 -0.1698
17203TIP3    H173100   2.979   0.244  10.940 -0.4762 -0.0780 -0.5522
17203TIP3    H273101   2.847   0.294  10.885 -0.3113  0.6734 -0.2753
17204TIP3   OH273102   0.273   2.728   5.846 -0.1854  0.3570 -0.1637
17204TIP3    H173103   0.364   2.757   5.835 -1.0870  3.9548  0.5009
17204TIP3    H273104   0.271   2.690   5.934  1.0650 -2.0055 -1.0560
17205TIP3   OH273105   3.668   3.774  12.516 -0.1302 -0.4184 -0.0665
17205TIP3    H173106   3.658   3.867  12.539  0.0512  0.2275 -2.4012
17205TIP3    H273107   3.579   3.745  12.496 -0.0549 -0.4581 -0.3467
17206TIP3   OH273108   4.459   3.178  15.743 -0.5126  0.0319  0.3317
17206TIP3    H173109   4.399   3.126  15.795 -1.3315 -1.2208 -1.7525
17206TIP3    H273110   4.408   3.254  15.715 -0.0785  0.6967  1.2968
17207TIP3   OH273111   4.671   6.658   0.007  0.6387  0.1838  0.5302
17207TIP3    H173112   4.646   6.748  -0.014  1.0556 -0.2650 -2.4077
17207TIP3    H273113   4.763   6.652  -0.019  0.9660 -0.7966  1.8209
17208TIP3   OH273114   2.556   6.349  13.460 -0.0397 -0.0527  0.4571
17208TIP3    H173115   2.553   6.445  13.468 -0.6371 -0.0802  0.6152
17208TIP3    H273116   2.631   6.323  13.513  0.3417  0.3579  0.1218
17209TIP3   OH273117   2.059   0.954   4.789 -0.6859  0.4903 -0.0998
17209TIP3    H173118   2.026   0.922   4.705 -0.9719  1.5821 -0.4143
17209TIP3    H273119   2.140   1.000   4.767 -1.4176  1.8976  0.0164
17210TIP3   OH273120   1.928   0.543  11.247  0.2104 -0.0465 -0.0876
17210TIP3    H173121   2.015   0.509  11.266 -0.3017 -1.3888 -0.0968
17210TIP3    H273122   1.871   0.466  11.242 -0.3589  0.4242 -3.5488
17211TIP3   OH273123   4.499   0.041  13.291  0.3387 -0.0859 -0.3030
17211TIP3    H173124   4.563   0.042  13.363 -0.2517  0.7609  0.2333
17211TIP3    H273125   4.522  -0.036  13.240  1.2440 -0.2903  0.3749
17212TIP3   OH273126   2.863   6.127  11.252  0.0250 -0.7983  0.1553
17212TIP3    H173127   2.832   6.046  11.211  1.8263 -1.2101 -0.4953
17212TIP3    H273128   2.925   6.098  11.319 -1.0288 -0.0144  1.5165
17213TIP3   OH273129   5.810   3.180  10.917  0.5002 -0.0182  0.6610
17213TIP3    H173130   5.854   3.185  10.832 -0.8575 -0.2963 -0.0743
17213TIP3    H273131   5.730   3.230  10.905 -0.5277 -1.4682  1.2610
17214TIP3   OH273132   5.046   1.446  11.076 -0.9635  0.1913 -0.2372
17214TIP3    H173133   5.067   1.500  10.999  0.2697 -0.1021 -0.1292
17214TIP3    H273134   5.085   1.361  11.056 -0.9088  0.0207  0.5844
17215TIP3   OH273135   4.925   5.363  15.498  0.6313  0.3652  0.3207
17215TIP3    H173136   4.854   5.414  15.457 -0.1757 -1.4517 -0.6797
17215TIP3    H273137   4.993   5.428  15.516 -0.2174  1.7695 -1.1477
17216TIP3   OH273138   1.795   4.535   5.432 -0.4813 -0.1875  0.0526
17216TIP3    H173139   1.755   4.597   5.370 -0.2355 -1.0213 -0.9610
17216TIP3    H273140   1.856   4.484   5.380  0.0343 -0.6520  1.0769
17217TIP3   OH273141   2.403   6.299   2.111  0.2275  0.0838  0.0770
17217TIP3    H173142   2.343   6.249   2.057 -1.6042  2.5188 -0.3133
17217TIP3    H273143   2.347   6.346   2.173  1.9358  0.7196  1.2257
17218TIP3   OH273144   4.733   1.191   1.859 -0.3082 -0.5533  0.1403
17218TIP3    H173145   4.679   1.162   1.932  0.0697 -0.8713  0.2972
17218TIP3    H273146   4.687   1.162   1.781 -0.1182 -1.2592  0.2849
17219TIP3   OH273147   5.581   6.103   2.313 -0.0363  0.0631 -0.3142
17219TIP3    H173148   5.519   6.168   2.280 -1.1485 -0.1900  1.1775
17219TIP3    H273149   5.525   6.033   2.348  1.1174 -0.6363  0.1606
17220TIP3   OH273150   2.011   5.673  16.202  0.1697 -0.3134  0.0493
17220TIP3    H173151   2.069   5.669  16.278 -0.3871  0.2036  0.5134
17220TIP3    H273152   2.047   5.609  16.140  0.7583 -0.5738  0.6574
17221TIP3   OH273153   3.136   1.187   3.667  0.0393 -0.9391  0.1213
17221TIP3    H173154   3.100   1.101   3.646  0.2270 -1.3896  1.5224
17221TIP3    H273155   3.113   1.200   3.759  0.5659  0.2316  0.0981
17222TIP3   OH273156   2.421   3.937   0.446  0.3298  0.2443 -0.1834
17222TIP3    H173157   2.495   3.880   0.465  0.6692  0.8397  0.3165
17222TIP3    H273158   2.344   3.885   0.470  0.6839  0.4942  1.7012
17223TIP3   OH273159   4.545   6.781   2.405 -0.2084  0.3529 -0.0485
17223TIP3    H173160   4.567   6.850   2.468  1.6753 -0.2578  0.0153
17223TIP3    H273161   4.516   6.828   2.327  1.7367  1.2687 -0.2561
17224TIP3   OH273162   4.441   0.275   6.679 -0.0976 -0.0552  0.8688
17224TIP3    H173163   4.437   0.371   6.686  0.1756 -0.1457  2.7020
17224TIP3    H273164   4.352   0.246   6.698 -0.5595 -0.1410 -1.1858
17225TIP3   OH273165   4.784   1.536   6.232  0.2519 -0.2360 -0.0106
17225TIP3    H173166   4.734   1.592   6.291  0.4130 -1.2299  1.0814
17225TIP3    H273167   4.732   1.535   6.151 -0.8481 -0.2530  0.6851
17226TIP3   OH273168   2.304   3.599   3.084 -0.0011 -0.1008 -0.0213
17226TIP3    H173169   2.379   3.606   3.142 -0.4602 -1.7073  0.8284
17226TIP3    H273170   2.236   3.558   3.137 -0.6445 -1.0535 -1.5010
17227TIP3   OH273171   4.779   1.035  11.040  0.0815  0.1039  0.2219
17227TIP3    H173172   4.723   1.067  11.111  1.8772  0.8727  1.3689
17227TIP3    H273173   4.781   0.940  11.052 -0.6350  0.1060  0.4214
17228TIP3   OH273174   1.439   3.866  11.544 -0.1186  0.2308 -0.1332
17228TIP3    H173175   1.392   3.876  11.461  0.9179 -1.9613 -1.0696
17228TIP3    H273176   1.373   3.832  11.605 -0.0432 -2.0055 -1.2020
17229TIP3   OH273177   3.343   1.739  11.772 -0.4713 -0.5072 -0.6717
17229TIP3    H173178   3.420   1.685  11.790  0.4687  0.2671 -2.1348
17229TIP3    H273179   3.372   1.829  11.789 -1.6335 -0.3253  0.5274
17230TIP3   OH273180   6.769   5.971   1.317 -0.3247  0.2911  0.5564
17230TIP3    H173181   6.674   5.985   1.312 -0.5922 -1.6108 -1.3770
17230TIP3    H273182   6.802   6.006   1.235  0.4607 -0.2874  0.6196
17231TIP3   OH273183   3.907   4.047   0.052 -0.4639 -0.2504  0.0269
17231TIP3    H173184   3.872   4.010   0.133  2.1093 -0.8010  0.9623
17231TIP3    H273185   3.830   4.081   0.006 -2.0877 -0.6769  2.2888
17232TIP3   OH273186   0.484   5.622   5.393  0.4679 -0.2975  0.7005
17232TIP3    H173187   0.558   5.644   5.336 -0.8588  2.1504 -0.2431
17232TIP3    H273188   0.421   5.580   5.334 -0.2914  0.8689  0.6409
17233TIP3   OH273189   0.311   5.707  13.657  0.4405  0.1187  0.2033
17233TIP3    H173190   0.263   5.636  13.698 -0.5285 -0.2430 -1.4367
17233TIP3    H273191   0.402   5.692  13.681  0.1771 -1.3418  0.3913
17234TIP3   OH273192   1.369   2.278  13.390 -0.3488  0.2615 -0.6306
17234TIP3    H173193   1.421   2.200  13.409 -0.1134  0.1229 -1.7452
17234TIP3    H273194   1.417   2.322  13.320 -2.1985 -0.3996 -2.4142
17235TIP3   OH273195   0.602   0.750  11.527  0.5814 -0.1409  0.5999
17235TIP3    H173196   0.514   0.714  11.534  0.1799  0.5757 -0.4994
17235TIP3    H273197   0.654   0.699  11.590 -0.7191 -0.1832  1.6763
17236TIP3   OH273198   1.813   5.721   2.821  0.7366 -0.8157 -0.5401
17236TIP3    H173199   1.801   5.702   2.914  1.5576 -0.4940 -0.3570
17236TIP3    H273200   1.737   5.775   2.798  1.2593  0.3287  0.3162
17237TIP3   OH273201   3.758   4.128   3.515  0.4076 -0.2697 -0.6038
17237TIP3    H173202   3.726   4.051   3.468 -1.5746 -0.1880  0.4854
17237TIP3    H273203   3.815   4.093   3.582  0.6259 -0.6638 -0.9893
17238TIP3   OH273204   2.316   3.232  14.037  0.0109  0.0521 -0.1254
17238TIP3    H173205   2.231   3.201  14.069  0.2144 -1.7809 -1.1985
17238TIP3    H273206   2.293   3.301  13.975 -0.6243  0.3174  0.3834
17239TIP3   OH273207   0.947   6.639  15.187  0.1668  0.4368  1.0793
17239TIP3    H173208   0.940   6.601  15.100  2.7689 -0.5885  1.2236
17239TIP3    H273209   0.982   6.727  15.173 -2.1551  1.4200  0.9909
17240TIP3   OH273210   4.289   4.433   1.918  0.0647 -0.0800  0.3510
17240TIP3    H173211   4.354   4.477   1.974  0.2785 -1.4018  1.1887
17240TIP3    H273212   4.209   4.432   1.971 -0.1540 -0.0085  0.0231
17241TIP3   OH273213   1.942   2.827  15.729  0.0012  0.2486 -0.0013
17241TIP3    H173214   1.895   2.763  15.677  0.4296 -0.7536  0.8120
17241TIP3    H273215   2.022   2.782  15.757 -0.5242  0.4858  2.0881
17242TIP3   OH273216   1.641   3.380   2.733 -0.7116  0.0054  0.3085
17242TIP3    H173217   1.684   3.322   2.670  0.3730  0.9498  0.1397
17242TIP3    H273218   1.684   3.362   2.816 -1.9010 -0.9860  0.7469
17243TIP3   OH273219   0.702   2.668   0.094 -0.4181  0.3877 -0.3303
17243TIP3    H173220   0.679   2.597   0.153  1.4770  0.5721  0.6944
17243TIP3    H273221   0.788   2.697   0.123 -0.9394  2.8399 -0.9807
17244TIP3   OH273222   3.045   2.528   1.228 -0.2429 -0.0700 -0.0910
17244TIP3    H173223   3.001   2.450   1.198 -0.1770  0.0478 -0.4977
17244TIP3    H273224   3.086   2.502   1.311 -2.1092  0.1658  0.9667
17245TIP3   OH273225   4.706   6.516  16.081 -0.0211  0.1133 -0.3422
17245TIP3    H173226   4.611   6.502  16.084  0.1702 -1.1729  0.3000
17245TIP3    H273227   4.716   6.601  16.037 -1.4758  0.4391 -0.1054
17246TIP3   OH273228   3.926   1.609   2.393  0.1932 -0.4450 -0.1421
17246TIP3    H173229   3.950   1.680   2.452  0.9911  1.9328 -3.0390
17246TIP3    H273230   3.836   1.628   2.368  0.4055 -0.4005 -0.9187
17247TIP3   OH273231   3.225   5.476   4.131  0.3649  0.6351 -0.3593
17247TIP3    H173232   3.279   5.432   4.066 -0.3885 -2.0209  0.6754
17247TIP3    H273233   3.267   5.456   4.214 -0.3250  1.4132  0.1863
17248TIP3   OH273234   6.122   5.226   0.547 -0.4727 -0.3406 -0.2312
17248TIP3    H173235   6.099   5.195   0.460 -1.6633  0.2928 -0.1576
17248TIP3    H273236   6.120   5.321   0.540  0.4985 -0.2785  0.2221
17249TIP3   OH273237   4.081   4.692   0.530  0.4288  0.1719  0.0460
17249TIP3    H173238   4.143   4.621   0.511  2.2072  1.3483  1.1988
17249TIP3    H273239   4.118   4.769   0.488 -0.9404  0.6871 -0.2897
17250TIP3   OH273240   0.709   0.481   4.104 -0.6182  0.4846  0.4271
17250TIP3    H173241   0.714   0.560   4.158 -0.4814  1.0714 -0.4397
17250TIP3    H273242   0.733   0.509   4.016  1.4732 -0.9354  0.4860
17251TIP3   OH273243   1.528   5.828   4.585 -0.1914 -0.1687  0.6746
17251TIP3    H173244   1.502   5.855   4.673 -1.4419  2.7318 -0.4616
17251TIP3    H273245   1.623   5.831   4.586 -0.2239  1.8269  1.4197
17252TIP3   OH273246   1.199   5.443   3.353 -1.0609  0.0871 -0.1286
17252TIP3    H173247   1.157   5.359   3.369  0.4416 -0.2047  2.9887
17252TIP3    H273248   1.258   5.428   3.280  0.4787 -2.1749  1.4417
17253TIP3   OH273249   2.662   3.370  12.607  0.5232 -0.1947  0.3145
17253TIP3    H173250   2.755   3.352  12.592  0.9481  1.1921  1.1323
17253TIP3    H273251   2.639   3.312  12.680  0.3051 -1.6709 -0.8672
17254TIP3   OH273252   2.215   0.517  11.249 -0.3552  0.3471 -0.4633
17254TIP3    H173253   2.189   0.606  11.272  1.4223  0.9131 -0.4715
17254TIP3    H273254   2.257   0.526  11.164  2.9044  0.1620  0.9677
17255TIP3   OH273255   3.361   2.011  15.694 -0.2142 -0.2556 -0.1736
17255TIP3    H173256   3.275   2.000  15.654 -0.4014  0.5370 -0.0106
17255TIP3    H273257   3.346   2.072  15.767  0.3314 -0.7678  0.3784
17256TIP3   OH273258   1.659   0.468  15.815 -0.5746  0.0180  0.2877
17256TIP3    H173259   1.671   0.416  15.736  1.9067  0.0895  0.5573
17256TIP3    H273260   1.747   0.485  15.847 -1.4308  1.8268  1.9042
17257TIP3   OH273261   0.377   5.949   1.217 -0.1956 -0.9558 -0.4998
17257TIP3    H173262   0.315   5.878   1.202 -0.5494 -0.7066 -0.2166
17257TIP3    H273263   0.327   6.016   1.264  0.2546 -0.7102 -0.3631
17258TIP3   OH273264   3.170   5.126  11.725 -0.2767  0.7509  0.2513
17258TIP3    H173265   3.090   5.084  11.756 -0.1437  0.5709  0.3583
17258TIP3    H273266   3.229   5.053  11.704 -0.0078  0.8810  0.5303
17259TIP3   OH273267   4.329   6.131   2.561 -0.2071 -0.0155  0.1465
17259TIP3    H173268   4.284   6.212   2.586  1.3941  1.4148 -1.3493
17259TIP3    H273269   4.417   6.139   2.599  0.3356 -0.4973 -0.9480
17260TIP3   OH273270   0.011   5.977  11.519 -0.3811  0.4285  0.0201
17260TIP3    H173271  -0.024   5.911  11.459 -0.0407  0.0146  0.2704
17260TIP3    H273272   0.071   6.028  11.465  1.1915 -0.9724  0.3619
17261TIP3   OH273273   6.244   1.656  11.761  0.0038 -0.1232 -0.1046
17261TIP3    H173274   6.275   1.617  11.680 -0.7436 -0.2396 -0.3426
17261TIP3    H273275   6.270   1.748  11.756 -0.8211  0.0864 -0.9000
17262TIP3   OH273276   3.091   5.051  14.021 -0.3074 -0.4427 -0.1875
17262TIP3    H173277   3.158   4.983  14.028 -0.2757 -0.2748  1.7127
17262TIP3    H273278   3.117   5.104  13.946  0.8321 -1.2831 -0.4033
17263TIP3   OH273279   1.848   4.511  17.039  0.1363 -0.4399  0.4774
17263TIP3    H173280   1.778   4.534  16.979  1.9063 -0.4448 -1.7585
17263TIP3    H273281   1.845   4.415  17.044  0.9467 -0.5684 -0.9578
17264TIP3   OH273282   2.279   5.793   1.090 -0.1019  0.1583 -0.2783
17264TIP3    H173283   2.195   5.764   1.124  0.2830  0.8967  1.3729
17264TIP3    H273284   2.303   5.869   1.144  1.5614  0.0426 -0.7861
17265TIP3   OH273285   3.738   3.562  14.016 -0.4983  0.3014  0.0300
17265TIP3    H173286   3.788   3.593  13.940 -0.5072  1.8052  0.6108
17265TIP3    H273287   3.800   3.566  14.089 -0.3239 -1.6757  0.0374
17266TIP3   OH273288   1.074   3.921  11.016 -0.0913  0.4586 -0.3456
17266TIP3    H173289   1.071   3.938  10.922  0.9285 -0.4418 -0.5532
17266TIP3    H273290   1.115   3.835  11.025  2.0827  1.5293  1.0055
17267TIP3   OH273291   1.369   5.359  15.492  0.5321  0.8153  0.5193
17267TIP3    H173292   1.376   5.430  15.428 -0.0733  2.3087  2.0435
17267TIP3    H273293   1.426   5.385  15.564 -0.6264  0.3793  1.6411
17268TIP3   OH273294   0.370   0.645   0.746  0.3075 -0.0477  0.2816
17268TIP3    H173295   0.448   0.627   0.694 -0.7521  0.1185 -1.4606
17268TIP3    H273296   0.351   0.563   0.792  1.8556  0.1146  1.2560
17269TIP3   OH273297   1.974   5.450  15.593 -0.2572  0.3786  0.3403
17269TIP3    H173298   1.994   5.539  15.561 -0.7141  0.4159  0.1570
17269TIP3    H273299   1.952   5.401  15.514  0.1238  0.0612  0.4249
17270TIP3   OH273300   1.245   0.734  12.228  0.4925 -0.0457 -0.0854
17270TIP3    H173301   1.166   0.767  12.272  0.7856  0.3086  0.1787
17270TIP3    H273302   1.283   0.673  12.291  0.0712 -0.7382 -0.4845
17271TIP3   OH273303   0.670   2.513  15.352  0.0523  0.1409 -0.5574
17271TIP3    H173304   0.653   2.542  15.262  0.0320 -1.6341 -1.1789
17271TIP3    H273305   0.584   2.487  15.385  0.0522  0.8504  0.0000
17272TIP3   OH273306   6.786   2.552  16.822 -0.3237  0.0601 -0.9630
17272TIP3    H173307   6.761   2.545  16.914  0.3958 -0.7151 -0.8077
17272TIP3    H273308   6.717   2.507  16.774 -0.2394 -0.3434 -0.7124
17273TIP3   OH273309   1.064   3.803   2.712  0.0667 -0.0871 -0.3539
17273TIP3    H173310   1.156   3.780   2.724  0.2868  0.1306 -1.4505
17273TIP3    H273311   1.026   3.725   2.670 -0.3638 -0.3551  0.5207
17274TIP3   OH273312   2.810   0.751   4.954 -0.4103 -0.0178  0.0779
17274TIP3    H173313   2.826   0.713   5.040 -1.0391  2.2764  1.3015
17274TIP3    H273314   2.854   0.692   4.893  0.8418 -1.2303  2.0352
17275TIP3   OH273315   1.813   2.571   4.073  0.3092 -0.1759  0.2467
17275TIP3    H173316   1.782   2.480   4.069  0.7457 -0.2653 -2.0536
17275TIP3    H273317   1.733   2.623   4.072  0.0943 -0.4968  0.3428
17276TIP3   OH273318   1.192   5.723  14.842 -0.0678 -0.4268  0.3971
17276TIP3    H173319   1.263   5.713  14.779 -0.4042  0.6706 -0.1667
17276TIP3    H273320   1.217   5.666  14.915  1.4297 -0.0081  0.2360
17277TIP3   OH273321   3.861   3.540   3.254  0.1050 -0.0527 -0.1403
17277TIP3    H173322   3.939   3.513   3.206 -0.3078 -0.7609 -0.4248
17277TIP3    H273323   3.809   3.589   3.190 -0.6955 -1.4510 -0.6020
17278TIP3   OH273324   4.555   1.333   0.953  0.5141  0.5835  0.1275
17278TIP3    H173325   4.512   1.261   0.998 -0.4627  0.8229 -0.3874
17278TIP3    H273326   4.492   1.361   0.888  1.9885  0.0393 -1.6335
17279TIP3   OH273327   3.216   4.505  11.261  0.4110 -0.2346  0.1972
17279TIP3    H173328   3.254   4.499  11.174  0.9045  1.7237  0.2301
17279TIP3    H273329   3.275   4.455  11.317 -0.3818 -2.2456 -0.6897
17280TIP3   OH273330   5.715   5.287  16.118 -0.6480 -0.4380 -0.9059
17280TIP3    H173331   5.799   5.326  16.095 -0.4059 -1.3947 -1.7062
17280TIP3    H273332   5.651   5.358  16.109  0.0036  0.1840 -0.7023
17281TIP3   OH273333   1.102   4.120   2.087 -0.2213  0.0447  0.2158
17281TIP3    H173334   1.175   4.169   2.049 -0.3730 -0.6187 -0.9696
17281TIP3    H273335   1.143   4.060   2.149 -0.0363  1.6461  1.7254
17282TIP3   OH273336   6.844   3.416  12.475  0.1256  0.3788 -0.7177
17282TIP3    H173337   6.924   3.376  12.442  1.2882  2.4432 -0.5361
17282TIP3    H273338   6.779   3.400  12.407  1.4642  1.1917 -2.2380
17283TIP3   OH273339   1.640   1.087   6.048  0.1911  0.2466  0.1864
17283TIP3    H173340   1.655   0.996   6.073 -0.7273 -0.0381 -0.2298
17283TIP3    H273341   1.623   1.132   6.131  2.8095  0.5283  0.6349
17284TIP3   OH273342   5.370   3.272   6.121 -0.0235 -0.6945 -0.3735
17284TIP3    H173343   5.319   3.304   6.195 -1.0054 -1.3265 -0.7600
17284TIP3    H273344   5.352   3.334   6.050 -1.1809 -1.5171 -0.8412
17285TIP3   OH273345   0.098   4.084  13.776 -0.1894  0.3285 -0.4042
17285TIP3    H173346   0.012   4.042  13.774 -0.0712  0.0964 -1.5365
17285TIP3    H273347   0.160   4.013  13.759  0.3689  0.2432  1.6704
17286TIP3   OH273348   1.090   1.216  15.444  0.2093 -0.0455  0.2140
17286TIP3    H173349   1.181   1.195  15.465 -0.1156 -0.2674  1.4755
17286TIP3    H273350   1.095   1.295  15.390  1.1087  0.4144  0.9431
17287TIP3   OH273351   2.145   0.742  10.892  0.1944  0.4413 -0.5851
17287TIP3    H173352   2.070   0.789  10.930  0.8482 -0.9875  2.8435
17287TIP3    H273353   2.222   0.788  10.926  1.1930  3.0571 -5.5262
17288TIP3   OH273354   1.007   0.577   2.708 -0.2791  0.3315 -0.3964
17288TIP3    H173355   0.990   0.597   2.616 -1.2929 -0.6010 -0.4315
17288TIP3    H273356   0.939   0.514   2.732  0.5212 -0.1420  0.7388
17289TIP3   OH273357   1.604   5.934   1.839  0.3818  0.3865  0.4621
17289TIP3    H173358   1.632   5.861   1.783  1.3552  0.8504  0.3205
17289TIP3    H273359   1.634   6.013   1.792 -1.1352  0.9223  0.3353
17290TIP3   OH273360   6.226   4.047   0.950 -0.1362 -0.1565  0.6002
17290TIP3    H173361   6.245   4.098   1.029 -2.1723  0.6656  0.6367
17290TIP3    H273362   6.279   3.968   0.959 -0.0553  0.0723  2.6267
17291TIP3   OH273363   2.654   3.710  11.079 -0.4198  0.4826  0.3387
17291TIP3    H173364   2.657   3.805  11.066 -1.1964  0.8539  2.3662
17291TIP3    H273365   2.651   3.700  11.175  0.2563 -1.6134  0.1813
17292TIP3   OH273366   3.765   2.891  16.447  0.2050 -0.4892 -0.2614
17292TIP3    H173367   3.836   2.886  16.510  1.0169  1.6712 -0.9318
17292TIP3    H273368   3.716   2.970  16.470 -1.6446 -1.5793 -0.2065
17293TIP3   OH273369   5.070   4.537   4.359  0.1506 -0.5832 -0.2841
17293TIP3    H173370   5.017   4.521   4.281 -0.2336  3.0951 -0.9956
17293TIP3    H273371   5.123   4.614   4.335  0.5218  0.2555  2.8686
17294TIP3   OH273372   4.340   4.279   3.435  0.1626  0.0009  0.3020
17294TIP3    H173373   4.399   4.204   3.432 -1.7478 -1.6199  0.4248
17294TIP3    H273374   4.298   4.279   3.349  0.3814  1.1567  0.1895
17295TIP3   OH273375   3.857   6.421   6.658 -0.6682  0.0196  0.3544
17295TIP3    H173376   3.813   6.450   6.738 -1.3063 -0.7478  0.2980
17295TIP3    H273377   3.926   6.486   6.643 -1.4442  0.9483  0.7399
17296TIP3   OH273378   1.939   0.282   2.536  0.5385  0.2917  0.1750
17296TIP3    H173379   1.969   0.287   2.445  1.5218 -1.0339  0.3843
17296TIP3    H273380   1.851   0.319   2.535 -0.4439 -1.8772 -1.7968
17297TIP3   OH273381   0.114   3.061   3.203 -0.4396 -0.0688 -0.1367
17297TIP3    H173382   0.140   2.969   3.209  1.2118  0.2859 -1.1325
17297TIP3    H273383   0.120   3.093   3.293 -2.5456 -1.2619  0.4899
17298TIP3   OH273384   6.211   2.496  16.636 -0.0695 -0.2987 -0.1312
17298TIP3    H173385   6.147   2.557  16.673 -1.7623 -1.6505 -0.7270
17298TIP3    H273386   6.251   2.455  16.713 -1.1428 -0.6658  0.2421
17299TIP3   OH273387   1.074   4.121  16.341  0.6489 -0.1449 -0.0226
17299TIP3    H173388   1.008   4.166  16.288  1.3312 -0.4656 -1.1736
17299TIP3    H273389   1.143   4.187  16.354 -0.3411  0.5776  2.1594
17300TIP3   OH273390   1.076   0.253   5.508 -0.5020 -0.0595 -0.0110
17300TIP3    H173391   1.095   0.343   5.482 -1.8292  0.7543  1.6856
17300TIP3    H273392   0.991   0.234   5.469 -2.5318  1.1814  3.3743
17301TIP3   OH273393   3.140   3.423  10.347  0.3117  0.8652  0.1754
17301TIP3    H173394   3.132   3.426  10.252  0.9464 -1.2269  0.0006
17301TIP3    H273395   3.234   3.436  10.363  0.4626 -0.3994  0.3853
17302TIP3   OH273396   5.657   3.285   3.433  0.2407  0.0782 -0.0182
17302TIP3    H173397   5.643   3.346   3.361 -1.1119 -2.0617 -1.6983
17302TIP3    H273398   5.750   3.294   3.454  0.5044  1.3034 -1.5167
17303TIP3   OH273399   3.119   0.612  11.252 -0.0214 -0.2852 -0.0699
17303TIP3    H173400   3.185   0.640  11.316 -1.1589 -1.0594  1.5063
17303TIP3    H273401   3.119   0.517  11.260 -0.2136 -0.3860 -1.2282
17304TIP3   OH273402   2.963   1.431   1.677  0.0710 -0.0897  0.0829
17304TIP3    H173403   3.018   1.439   1.754  2.1941 -0.2266 -1.3246
17304TIP3    H273404   2.985   1.346   1.640 -2.2004 -0.8047  0.2111
17305TIP3   OH273405   0.629   1.707  15.131 -0.1999 -0.3825 -0.0870
17305TIP3    H173406   0.641   1.790  15.084 -1.0458  0.6062  1.3649
17305TIP3    H273407   0.716   1.685  15.163 -0.0974  0.3695  0.1731
17306TIP3   OH273408   5.960   1.946  15.251 -0.9037  0.4134  0.1195
17306TIP3    H173409   5.932   1.929  15.161 -0.9100  0.5092  0.1043
17306TIP3    H273410   5.878   1.950  15.301 -0.8732 -0.4002  0.2614
17307TIP3   OH273411   6.573   5.052   3.431  0.0495 -0.2571  0.4385
17307TIP3    H173412   6.536   4.969   3.462  0.7730 -0.2946  1.2404
17307TIP3    H273413   6.641   5.074   3.496  1.7044 -0.3956 -1.1776
17308TIP3   OH273414   3.963   2.319  14.233  0.0712  0.5714  0.5523
17308TIP3    H173415   3.956   2.288  14.143 -1.7025  1.9088  0.1629
17308TIP3    H273416   4.056   2.315  14.253  0.3917 -0.6325 -1.0008
17309TIP3   OH273417   4.291   0.529   0.342  0.3073 -0.4608 -0.0612
17309TIP3    H173418   4.203   0.560   0.366  0.5465 -0.0255  0.2708
17309TIP3    H273419   4.286   0.434   0.351 -0.0296 -0.4135  0.3148
17310TIP3   OH273420   0.898   2.013  13.917 -0.5393  0.0282 -0.6781
17310TIP3    H173421   0.949   2.079  13.962 -1.3955  0.0985  0.2091
17310TIP3    H273422   0.935   1.929  13.946  0.6047  0.0739 -1.8726
17311TIP3   OH273423   1.472   2.806  10.860 -0.1937 -0.3522  0.0553
17311TIP3    H173424   1.453   2.900  10.851 -1.0516 -0.6187 -1.1465
17311TIP3    H273425   1.501   2.779  10.772  0.6120 -1.1043  0.5330
17312TIP3   OH273426   0.420   4.539   2.331  0.5578  0.4779  0.0986
17312TIP3    H173427   0.334   4.514   2.365  0.9645 -0.4056  0.5100
17312TIP3    H273428   0.448   4.464   2.279  0.0367  1.7219 -2.1109
17313TIP3   OH273429   5.421   0.261   3.442  0.2026  0.0670 -0.1550
17313TIP3    H173430   5.362   0.326   3.481 -0.4769 -0.9395  0.5579
17313TIP3    H273431   5.508   0.288   3.470 -0.0421  0.8466 -0.1283
17314TIP3   OH273432   0.855   5.277  11.980  0.3330  0.1134  0.2515
17314TIP3    H173433   0.808   5.334  12.041  2.0791  1.2869  0.5585
17314TIP3    H273434   0.939   5.320  11.966  0.5254 -0.8228 -1.9476
17315TIP3   OH273435   4.044   5.093   2.376 -0.3707 -0.1354  0.3516
17315TIP3    H173436   4.049   5.009   2.331  2.3269  0.9643 -1.6691
17315TIP3    H273437   3.966   5.135   2.340 -1.3683 -1.4531  0.9025
17316TIP3   OH273438   0.134   3.433   2.478  0.3746  0.0690 -0.0749
17316TIP3    H173439   0.175   3.519   2.479 -2.5169  1.6038 -1.1368
17316TIP3    H273440   0.157   3.394   2.562  0.9501  2.2937  0.8731
17317TIP3   OH273441   0.450   0.810  16.439  0.5026  0.6775 -0.0934
17317TIP3    H173442   0.509   0.842  16.508  4.3487 -1.2946 -2.0998
17317TIP3    H273443   0.428   0.721  16.465 -0.3527  0.8758 -0.1158
17318TIP3   OH273444   0.047   5.441  16.370  0.3019 -0.1087  0.0770
17318TIP3    H173445   0.049   5.527  16.412 -0.3404 -0.5493  1.0645
17318TIP3    H273446   0.119   5.443  16.308 -0.2629  1.4782 -0.5960
17319TIP3   OH273447   1.237   2.748   6.459 -0.1797  0.0895  0.0728
17319TIP3    H173448   1.299   2.791   6.517  0.0217  0.9836 -0.7844
17319TIP3    H273449   1.162   2.727   6.515 -0.0705  1.1048  0.6238
17320TIP3   OH273450   4.858   0.405   0.804 -0.1789 -0.2125  0.5199
17320TIP3    H173451   4.815   0.487   0.778 -0.0163 -0.8368 -1.9495
17320TIP3    H273452   4.791   0.338   0.790  1.3310 -1.1853 -3.2556
17321TIP3   OH273453   6.420   2.077  16.924  0.0583 -0.3846 -0.1216
17321TIP3    H173454   6.377   2.042  16.846 -0.9427 -0.1749  0.3168
17321TIP3    H273455   6.350   2.083  16.989  0.3503  1.7360  0.0521
17322TIP3   OH273456   2.206   2.999   2.285 -0.8355  0.3315  0.0204
17322TIP3    H173457   2.238   2.942   2.354  0.2518 -0.8221 -1.3771
17322TIP3    H273458   2.250   2.968   2.205 -1.8192  1.7832 -1.1497
17323TIP3   OH273459   5.694   0.184   4.403 -0.0772  0.3078  0.0988
17323TIP3    H173460   5.712   0.270   4.366  1.1724  0.1804  0.3511
17323TIP3    H273461   5.708   0.123   4.329 -1.7984  0.3695 -0.3035
17324TIP3   OH273462   3.319   3.430  16.982 -0.3481 -0.3531  0.0644
17324TIP3    H173463   3.237   3.439  16.933  0.0155 -2.2351 -0.9682
17324TIP3    H273464   3.295   3.378  17.059  0.0150 -1.8707 -0.7945
17325TIP3   OH273465   0.859   0.243   3.462  0.2879  0.1071 -0.1659
17325TIP3    H173466   0.903   0.271   3.542  1.2645  0.4367 -0.7927
17325TIP3    H273467   0.901   0.160   3.439 -1.5319 -1.1473  0.8477
17326TIP3   OH273468   3.569   3.642   3.821  0.6529 -0.0743 -0.4991
17326TIP3    H173469   3.606   3.668   3.906 -2.3909 -1.7632  1.5522
17326TIP3    H273470   3.640   3.596   3.777  2.4643  1.1876  0.9445
17327TIP3   OH273471   0.050   2.072   1.853  0.6080  0.3554  0.2444
17327TIP3    H173472   0.046   2.069   1.758  1.3135 -1.9040  0.2068
17327TIP3    H273473   0.048   2.165   1.875  1.4159  0.9709 -2.0206
17328TIP3   OH273474   0.971   0.541   4.177  0.4073  0.0984  0.0801
17328TIP3    H173475   0.903   0.586   4.226 -0.0033 -0.5558  0.1226
17328TIP3    H273476   0.946   0.553   4.085 -0.1053 -0.6472  0.1126
17329TIP3   OH273477   2.892   2.303  11.838 -0.0144  0.5602 -0.3919
17329TIP3    H173478   2.977   2.345  11.848 -0.2311  1.1255 -0.8262
17329TIP3    H273479   2.861   2.291  11.928  0.1921  1.0635 -0.2469
17330TIP3   OH273480   5.377   3.928  16.821  0.3600  0.4917  0.2137
17330TIP3    H173481   5.356   3.927  16.728 -0.7112  0.0773  0.4395
17330TIP3    H273482   5.432   4.006  16.832  0.5428  0.5181 -0.7669
17331TIP3   OH273483   2.409   3.451   1.298  0.0737  0.8773 -0.2354
17331TIP3    H173484   2.408   3.540   1.333 -0.7167  0.5911  0.4755
17331TIP3    H273485   2.482   3.409   1.343  1.4227  1.5711 -1.6601
17332TIP3   OH273486   3.856   0.762   3.956  0.3481  0.0255  0.6387
17332TIP3    H173487   3.941   0.719   3.959  0.8297  0.7761 -1.2268
17332TIP3    H273488   3.864   0.837   4.016  1.5786  1.0263 -0.7167
17333TIP3   OH273489   2.603   2.108  11.763 -0.1169 -0.5854  0.1002
17333TIP3    H173490   2.564   2.029  11.726 -1.4483  0.2358 -0.3071
17333TIP3    H273491   2.615   2.088  11.856 -0.5086 -1.2286  0.0176
17334TIP3   OH273492   4.393   6.350   1.169 -0.2627 -0.6302 -0.2091
17334TIP3    H173493   4.475   6.300   1.163 -0.3112 -0.5321 -3.1767
17334TIP3    H273494   4.419   6.441   1.154 -0.9972 -0.7536 -2.5377
17335TIP3   OH273495   2.557   0.808   1.578 -0.2766  0.1066 -0.2164
17335TIP3    H173496   2.507   0.811   1.497  0.4818 -0.6975 -0.7307
17335TIP3    H273497   2.495   0.838   1.645 -1.3556 -0.5586 -0.8750
17336TIP3   OH273498   0.905   5.246   3.095  0.2980 -0.3393  0.4995
17336TIP3    H173499   0.890   5.159   3.057 -0.3493 -0.6135  1.3421
17336TIP3    H273500   0.845   5.304   3.049  1.0636 -0.2290 -0.3945
17337TIP3   OH273501   1.520   5.127   2.241  0.0959  0.4379  0.1236
17337TIP3    H173502   1.539   5.036   2.219 -1.9962  0.2044 -0.9835
17337TIP3    H273503   1.599   5.158   2.287  0.2602 -2.3630  1.9563
17338TIP3   OH273504   4.076   5.732   0.595 -0.4528  0.4349  0.3324
17338TIP3    H173505   3.982   5.725   0.612 -0.2294  1.1772  2.0702
17338TIP3    H273506   4.113   5.652   0.632 -0.3471  0.3133 -0.0311
17339TIP3   OH273507   5.724   4.707   5.211  0.0741  0.2517  0.0908
17339TIP3    H173508   5.702   4.790   5.253 -0.4668 -0.3763  1.0555
17339TIP3    H273509   5.675   4.708   5.129 -2.2209 -0.3217  1.3726
17340TIP3   OH273510   6.225   3.164   2.917  0.0821  0.5872  0.3745
17340TIP3    H173511   6.165   3.166   2.990  0.6427 -0.8390  0.9124
17340TIP3    H273512   6.175   3.125   2.845 -0.5183  2.1366 -0.0925
17341TIP3   OH273513   6.279   0.744  12.898 -0.1255  0.2530 -0.4159
17341TIP3    H173514   6.335   0.754  12.821  0.2707 -1.0245 -0.3292
17341TIP3    H273515   6.325   0.791  12.967 -0.5618  1.5456 -0.9714
17342TIP3   OH273516   5.312   3.046   3.475  0.4843  0.2656  0.0319
17342TIP3    H173517   5.304   2.977   3.540  1.0771  1.0678  0.9785
17342TIP3    H273518   5.228   3.092   3.477 -0.3372 -1.0469 -1.3859
17343TIP3   OH273519   4.754   1.386  12.058 -0.5106  0.2026 -0.3534
17343TIP3    H173520   4.713   1.471  12.041 -2.1166 -0.4597  0.0986
17343TIP3    H273521   4.794   1.362  11.974 -1.7652  0.4954 -1.0592
17344TIP3   OH273522   1.972   2.883  12.169 -0.1239 -0.1846 -0.1406
17344TIP3    H173523   1.918   2.962  12.156 -0.1008 -0.2513 -0.6465
17344TIP3    H273524   1.915   2.811  12.142 -0.5463 -0.4566  1.3692
17345TIP3   OH273525   2.461   6.821   5.787 -0.2644 -0.2698 -0.1847
17345TIP3    H173526   2.496   6.910   5.790 -0.8497  0.1173 -2.7337
17345TIP3    H273527   2.535   6.766   5.812  0.4863  0.8567  0.1500
17346TIP3   OH273528   6.307   4.860   4.536 -0.0334 -0.8625  0.3753
17346TIP3    H173529   6.360   4.921   4.484 -1.4169 -1.2527 -1.6004
17346TIP3    H273530   6.340   4.870   4.625  0.6843  1.7912 -0.0981
17347TIP3   OH273531   5.842   4.282   5.440  0.1503  0.6801  0.2318
17347TIP3    H173532   5.882   4.251   5.359  0.6454  0.0732  0.7003
17347TIP3    H273533   5.846   4.207   5.499 -0.5904  0.9872  0.6813
17348TIP3   OH273534   6.644   4.149  13.024 -0.1299  0.2497  0.0163
17348TIP3    H173535   6.664   4.116  13.112 -1.1944 -0.3916  0.0231
17348TIP3    H273536   6.552   4.128  13.010  0.3887 -1.0076 -1.8409
17349TIP3   OH273537   5.650   6.004   1.346  0.1908  0.6124 -0.1618
17349TIP3    H173538   5.614   6.091   1.364  0.9084  0.9103 -0.1089
17349TIP3    H273539   5.739   6.008   1.381 -0.1731 -0.5590  0.9755
17350TIP3   OH273540   3.730   1.498  12.990 -0.9472 -0.4234 -0.2490
17350TIP3    H173541   3.707   1.491  12.898  0.7506  1.5428 -0.9208
17350TIP3    H273542   3.820   1.465  12.996 -0.0763  1.7831  0.1147
17351TIP3   OH273543   0.679   5.224  16.412 -0.0897 -0.5179 -0.1364
17351TIP3    H173544   0.632   5.295  16.368 -0.1525 -1.9047 -2.4399
17351TIP3    H273545   0.739   5.269  16.471  0.4063  1.5148 -2.0624
17352TIP3   OH273546   3.925   6.090   2.234 -0.2837 -0.0372 -0.3215
17352TIP3    H173547   3.867   6.017   2.253  0.3275 -0.3675  0.3176
17352TIP3    H273548   3.913   6.107   2.141 -2.5347  0.8916  0.0715
17353TIP3   OH273549   5.785   4.492   2.374  0.4457  0.0387  0.0922
17353TIP3    H173550   5.766   4.434   2.300  2.7461 -0.6798 -0.0104
17353TIP3    H273551   5.873   4.467   2.402  0.5505  1.8791  1.5908
17354TIP3   OH273552   1.468   0.090   2.009 -0.5334 -0.3088 -0.3751
17354TIP3    H173553   1.449   0.178   2.042  0.8112 -0.7529  1.7451
17354TIP3    H273554   1.390   0.039   2.029 -0.1962 -0.2752  1.1592
17355TIP3   OH273555   1.379   4.071  16.760 -0.2607  0.4235  0.0608
17355TIP3    H173556   1.444   4.099  16.696 -0.5390  2.6988  0.6853
17355TIP3    H273557   1.320   4.014  16.711  1.2482 -0.3980 -0.9060
17356TIP3   OH273558   0.863   3.337   3.772 -0.7241 -0.3982 -0.2475
17356TIP3    H173559   0.771   3.313   3.766 -1.0250  0.6063  0.0984
17356TIP3    H273560   0.904   3.296   3.697 -1.0386 -2.6143  0.7276
17357TIP3   OH273561   6.112   3.078   2.340  0.1406 -0.0434  0.3637
17357TIP3    H173562   6.034   3.119   2.378 -0.5198 -0.3171 -0.6384
17357TIP3    H273563   6.110   2.988   2.373  0.2773  0.0712  0.6863
17358TIP3   OH273564   1.404   4.719   5.558 -0.7809 -0.5340  0.0731
17358TIP3    H173565   1.432   4.759   5.475 -0.6782 -0.4962  0.1253
17358TIP3    H273566   1.466   4.753   5.622 -0.8316 -0.6014  0.1571
17359TIP3   OH273567   0.624   6.096   4.668 -0.5218 -0.7020 -0.0522
17359TIP3    H173568   0.671   6.177   4.683 -1.8991  0.3930 -1.3161
17359TIP3    H273569   0.606   6.095   4.573 -0.3725 -2.5756 -0.1078
17360TIP3   OH273570   2.175   5.083  16.094 -0.2854 -1.1554 -0.7467
17360TIP3    H173571   2.081   5.089  16.077 -0.6392 -2.1852  0.6885
17360TIP3    H273572   2.214   5.068  16.007 -1.4673 -1.0074 -1.3232
17361TIP3   OH273573   3.105   1.385   4.943 -0.7202 -0.0538 -0.0899
17361TIP3    H173574   3.109   1.473   4.906  1.3511 -0.8761 -2.0786
17361TIP3    H273575   3.194   1.369   4.976 -1.3725 -1.0142  1.3029
17362TIP3   OH273576   1.957   0.799  11.647 -0.1944  0.2768  0.4196
17362TIP3    H173577   2.004   0.839  11.574 -0.4432  0.7390  0.5096
17362TIP3    H273578   1.998   0.836  11.725  0.8050 -1.0384  0.5548
17363TIP3   OH273579   2.853   2.360   1.408 -0.5012 -0.1416  0.2348
17363TIP3    H173580   2.820   2.450   1.411 -2.9078 -0.9148 -0.6203
17363TIP3    H273581   2.795   2.311   1.466  0.4456 -1.2424  0.2798
17364TIP3   OH273582   3.841   3.710   5.271 -0.1701  0.2312  0.0539
17364TIP3    H173583   3.925   3.708   5.317  0.0419 -1.7411 -0.3390
17364TIP3    H273584   3.799   3.789   5.303  2.2958  1.9297 -0.6317
17365TIP3   OH273585   2.306   6.514   1.414 -0.3742 -0.5033 -0.4182
17365TIP3    H173586   2.321   6.579   1.345  0.4398  0.0342  0.2478
17365TIP3    H273587   2.246   6.556   1.475  0.6080 -0.1227  0.3174
17366TIP3   OH273588   1.541   5.557  12.616  0.1338 -0.5726 -0.0769
17366TIP3    H173589   1.542   5.571  12.522  2.2714  0.7455  0.0588
17366TIP3    H273590   1.627   5.589  12.646 -0.6566 -0.4989  2.3732
17367TIP3   OH273591   2.950   1.949   6.435 -0.5973  0.7148  0.2906
17367TIP3    H173592   2.984   2.026   6.389 -0.3400  1.4933  1.7190
17367TIP3    H273593   2.877   1.983   6.487  0.9086  0.5226  2.6898
17368TIP3   OH273594   6.658   1.060   0.049  0.1986 -0.2880  0.1137
17368TIP3    H173595   6.728   1.034  -0.011  1.4550  1.0580  0.9355
17368TIP3    H273596   6.622   1.140   0.011  1.0024  0.5750  1.1118
17369TIP3   OH273597   0.876   0.355   1.925  0.3297  0.3324  0.2302
17369TIP3    H173598   0.794   0.403   1.939  0.5532  1.0878 -0.9192
17369TIP3    H273599   0.854   0.265   1.947 -0.8105  0.5283 -0.0133
17370TIP3   OH273600   1.181   6.698  11.046 -0.1688 -0.5821  0.0389
17370TIP3    H173601   1.096   6.655  11.038  0.4104 -1.6856 -0.2549
17370TIP3    H273602   1.167   6.784  11.005 -1.5523 -0.1385  1.3485
17371TIP3   OH273603   6.802   1.162   5.055 -0.0996  0.1200  0.6138
17371TIP3    H173604   6.707   1.154   5.060 -0.0542 -0.1948  1.0577
17371TIP3    H273605   6.832   1.072   5.039 -0.0443  0.6121 -2.5682
17372TIP3   OH273606   1.954   5.230  12.880 -0.0124  0.7010 -0.2637
17372TIP3    H173607   1.893   5.157  12.865 -0.4804  0.9537  0.3321
17372TIP3    H273608   1.900   5.309  12.870  0.8472  1.0549 -2.5678
17373TIP3   OH273609   2.559   5.383   1.700 -0.1438 -0.1691 -0.7421
17373TIP3    H173610   2.622   5.312   1.708  0.0316  0.2438  2.9744
17373TIP3    H273611   2.481   5.352   1.747 -0.3198  1.7593  0.3613
17374TIP3   OH273612   4.681   0.111   4.791 -0.2704  0.0801  0.0042
17374TIP3    H173613   4.592   0.128   4.824  0.1765  0.5520  0.9972
17374TIP3    H273614   4.713   0.040   4.846  0.3700  0.6695  0.4076
17375TIP3   OH273615   3.468   1.908   2.754 -0.2709  0.1224 -0.0511
17375TIP3    H173616   3.505   1.862   2.829 -2.0620 -0.7871  0.3240
17375TIP3    H273617   3.543   1.925   2.697  1.0272  0.2999  1.6456
17376TIP3   OH273618   5.926   6.068   5.954  0.7589 -0.0759  0.7271
17376TIP3    H173619   5.908   5.993   6.012 -0.0862 -1.0589 -0.7471
17376TIP3    H273620   5.861   6.060   5.884  1.5852  1.2317 -0.2300
17377TIP3   OH273621   3.487   4.410   5.561  0.7135 -0.0318 -0.7174
17377TIP3    H173622   3.402   4.450   5.543  0.6867  0.8800  1.2122
17377TIP3    H273623   3.466   4.319   5.584  0.0943  0.4808  0.8754
17378TIP3   OH273624   5.716   0.551   5.231  0.5877  0.7148 -0.3557
17378TIP3    H173625   5.721   0.647   5.232 -0.1886  0.7512  0.4485
17378TIP3    H273626   5.692   0.527   5.320  0.5567 -0.2216 -0.6085
17379TIP3   OH273627   1.797   4.047  12.949 -0.1954  0.0337 -0.1833
17379TIP3    H173628   1.813   4.066  12.856 -0.9334 -1.3565 -0.6164
17379TIP3    H273629   1.702   4.053  12.959 -0.1783 -0.4879  0.3253
17380TIP3   OH273630   4.630   1.800  13.578  0.0998  0.2669 -0.1588
17380TIP3    H173631   4.577   1.835  13.506  0.0258 -1.7894 -1.1784
17380TIP3    H273632   4.697   1.748  13.535 -0.0669 -1.1840  1.2529
17381TIP3   OH273633   5.555   2.683   2.448  0.3098  0.3140  0.0306
17381TIP3    H173634   5.525   2.650   2.364  0.4335  0.8354 -0.2250
17381TIP3    H273635   5.477   2.685   2.503  0.1689  0.2633 -0.1694
17382TIP3   OH273636   5.185   0.589   5.696 -0.2256 -0.0680  0.6070
17382TIP3    H173637   5.279   0.610   5.695 -0.3231  0.3750 -0.2825
17382TIP3    H273638   5.176   0.520   5.630 -0.4120 -0.6513  1.2378
17383TIP3   OH273639   3.769   0.258  14.599 -0.1795  0.1191  0.1238
17383TIP3    H173640   3.752   0.209  14.680  0.0416  1.2712  0.8962
17383TIP3    H273641   3.706   0.329  14.601 -0.3565 -0.0032 -0.8773
17384TIP3   OH273642   3.728   2.363   4.087 -0.2022  0.3379  0.3745
17384TIP3    H173643   3.757   2.272   4.080  1.3003  0.7313  1.1497
17384TIP3    H273644   3.742   2.400   4.000  0.9607  0.3226  0.5488
17385TIP3   OH273645   0.440   2.322   2.674 -0.4140  0.0229 -0.0374
17385TIP3    H173646   0.385   2.251   2.705 -0.3625  0.4302  1.0258
17385TIP3    H273647   0.383   2.399   2.674 -0.1280  0.2408  0.0866
17386TIP3   OH273648   1.197   4.851   0.686  0.3456  0.3139  0.0651
17386TIP3    H173649   1.254   4.774   0.681  0.4191  0.3606  0.1807
17386TIP3    H273650   1.182   4.863   0.779  0.4220  0.5048  0.0533
17387TIP3   OH273651   3.903   1.325  15.398 -0.4815  0.2853 -0.5079
17387TIP3    H173652   3.815   1.288  15.390 -1.0505  1.0566  1.4571
17387TIP3    H273653   3.957   1.253  15.431 -0.4685 -0.0821 -1.3316
17388TIP3   OH273654   5.078   1.505   0.897  0.1172 -0.3401 -0.2944
17388TIP3    H173655   5.071   1.544   0.984 -0.2808 -2.2808  0.6010
17388TIP3    H273656   5.159   1.539   0.861  0.4144  0.2988  0.9480
17389TIP3   OH273657   6.587   0.291  14.871 -0.3689  0.1699  0.0202
17389TIP3    H173658   6.613   0.225  14.807 -0.8093  1.4567 -1.5648
17389TIP3    H273659   6.504   0.260  14.906  0.0130 -0.6875  0.1984
17390TIP3   OH273660   6.628   5.756  14.237 -0.5843 -0.7993  0.0308
17390TIP3    H173661   6.721   5.759  14.214 -0.9566  2.9654 -1.9688
17390TIP3    H273662   6.583   5.743  14.153 -1.8585  0.5237  0.4580
17391TIP3   OH273663   2.332   6.519   3.823 -0.4915  0.1819  0.6735
17391TIP3    H173664   2.393   6.544   3.893 -1.3101 -0.8896  1.8181
17391TIP3    H273665   2.264   6.469   3.868  0.3004 -2.8617 -1.2485
17392TIP3   OH273666   1.663   5.147  16.510 -0.9184 -0.3516 -0.7299
17392TIP3    H173667   1.695   5.236  16.524 -0.6622 -0.3055 -1.6000
17392TIP3    H273668   1.569   5.152  16.527 -0.9678  0.1666 -1.1453
17393TIP3   OH273669   3.151   3.655   4.662  0.0314  0.0427 -0.4204
17393TIP3    H173670   3.064   3.661   4.699 -0.0734 -2.1066 -0.1978
17393TIP3    H273671   3.207   3.626   4.734  0.9434  1.2590 -0.5891
17394TIP3   OH273672   0.887   1.000   4.925 -0.6605  0.2189 -0.4081
17394TIP3    H173673   0.847   0.916   4.905  0.1018 -0.5014  0.8930
17394TIP3    H273674   0.816   1.054   4.960 -0.9717 -0.2267 -0.3588
17395TIP3   OH273675   6.191   1.392  15.429  0.0220 -0.2172  0.1875
17395TIP3    H173676   6.266   1.427  15.380 -0.2367  0.1174  0.0270
17395TIP3    H273677   6.229   1.325  15.486  0.3511 -0.5220 -0.3744
17396TIP3   OH273678   1.852   0.135  12.702 -0.4527  0.1914  0.3582
17396TIP3    H173679   1.936   0.140  12.749 -0.0762  0.1340 -0.2970
17396TIP3    H273680   1.814   0.051  12.729  1.0172 -1.1599 -1.4729
17397TIP3   OH273681   2.488   0.025  16.584  0.2331 -0.2400 -0.0902
17397TIP3    H173682   2.455  -0.050  16.633  0.6251 -0.9146 -0.8364
17397TIP3    H273683   2.412   0.057  16.535 -0.3589  0.9226  1.5020
17398TIP3   OH273684   1.751   4.529  16.092 -0.2291 -1.2689  0.5073
17398TIP3    H173685   1.782   4.451  16.140  2.6564  0.4135  1.6744
17398TIP3    H273686   1.829   4.559  16.044 -0.9121  1.4690  0.9505
17399TIP3   OH273687   6.843   2.275   0.310  0.4779  0.3016 -0.3275
17399TIP3    H173688   6.791   2.195   0.307 -1.5644  1.3982  1.9049
17399TIP3    H273689   6.856   2.300   0.218  0.4698 -2.0904 -1.0333
17400TIP3   OH273690   0.459   0.487  15.988 -0.1156 -0.1418  0.2232
17400TIP3    H173691   0.399   0.520  16.056  0.8069 -0.3107  1.1446
17400TIP3    H273692   0.440   0.394  15.982 -1.6497  0.2140 -1.2806
17401TIP3   OH273693   2.659   1.521  11.940  0.4108  0.3177  0.1312
17401TIP3    H173694   2.715   1.537  11.864 -1.5911  1.4252 -1.2109
17401TIP3    H273695   2.621   1.607  11.960 -2.5648 -0.7024 -0.5652
17402TIP3   OH273696   2.110   4.899  15.635 -0.1135  0.4607 -0.1972
17402TIP3    H173697   2.148   4.924  15.551 -0.9137  1.5242 -0.2772
17402TIP3    H273698   2.053   4.973  15.658 -2.0857 -0.9913 -0.0720
17403TIP3   OH273699   1.988   4.157  15.889  0.4575 -0.7459  0.0926
17403TIP3    H173700   1.911   4.213  15.874  1.1425  0.7424  1.8127
17403TIP3    H273701   1.965   4.104  15.966  1.0839 -0.3985  0.5261
17404TIP3   OH273702   1.967   6.173  15.017 -0.2952  0.2201  0.3659
17404TIP3    H173703   2.057   6.198  14.997  0.7216 -3.5030 -0.6258
17404TIP3    H273704   1.929   6.151  14.931 -1.9304  0.9515  0.8580
17405TIP3   OH273705   5.724   5.543  10.932  0.3037  0.1045  0.0465
17405TIP3    H173706   5.665   5.567  11.003  0.0297  0.2741 -0.2398
17405TIP3    H273707   5.782   5.618  10.922 -1.2240  1.1393 -1.5650
17406TIP3   OH273708   0.822   0.526   3.234  0.6364 -0.1200  0.6521
17406TIP3    H173709   0.766   0.494   3.304  1.4798 -0.5934  1.1363
17406TIP3    H273710   0.844   0.616   3.259  0.1630  0.0417  0.4956
17407TIP3   OH273711   4.641   2.416  16.953  0.9208  0.2448  0.3243
17407TIP3    H173712   4.641   2.440  17.045  1.6574 -1.0703  0.7011
17407TIP3    H273713   4.671   2.325  16.952 -1.3570 -0.5971 -1.0053
17408TIP3   OH273714   2.415   4.757  16.516  0.0392 -0.5158  0.3364
17408TIP3    H173715   2.381   4.844  16.538 -0.8817 -0.8797  0.3765
17408TIP3    H273716   2.361   4.696  16.566  1.0136 -1.0923  0.7100
17409TIP3   OH273717   0.145   5.911  14.848 -0.3824 -0.0932 -0.4540
17409TIP3    H173718   0.166   5.821  14.825 -0.8629 -0.2918 -0.1178
17409TIP3    H273719   0.059   5.907  14.889  0.4099  0.2372  1.3402
17410TIP3   OH273720   6.527   3.313  15.465 -0.1934  0.2035 -0.4845
17410TIP3    H173721   6.452   3.255  15.463 -0.4608  0.5551 -1.6626
17410TIP3    H273722   6.536   3.344  15.374  0.9110  0.7422 -0.2125
17411TIP3   OH273723   5.069   4.483  15.369 -0.1675 -0.9029 -0.3161
17411TIP3    H173724   5.128   4.450  15.437  0.3798  0.9267  0.1509
17411TIP3    H273725   5.110   4.455  15.287  0.6201 -0.8195  0.0399
17412TIP3   OH273726   3.268   2.852  13.269  0.3459 -0.4030 -0.2462
17412TIP3    H173727   3.328   2.873  13.197  0.0191 -1.9009 -0.9982
17412TIP3    H273728   3.185   2.894  13.244  0.6081  0.2442 -0.0436
17413TIP3   OH273729   4.408   3.112   5.624  0.3276 -0.1032  0.0136
17413TIP3    H173730   4.382   3.194   5.583 -1.8901  0.3057  1.9904
17413TIP3    H273731   4.468   3.138   5.694 -0.9317  0.0032  1.1088
17414TIP3   OH273732   0.540   2.377  13.041  0.5147 -0.1961  0.3384
17414TIP3    H173733   0.599   2.303  13.026 -1.0319 -1.5756  0.7039
17414TIP3    H273734   0.470   2.365  12.977 -1.0265 -0.5184  1.9819
17415TIP3   OH273735   1.423   5.153   0.576 -0.4806  0.2765  0.2116
17415TIP3    H173736   1.442   5.069   0.535  0.5446  0.4819  0.2399
17415TIP3    H273737   1.406   5.213   0.503  1.2233  0.6138  0.0532
17416TIP3   OH273738   6.149   5.345  13.434  0.2044  0.5977  0.0388
17416TIP3    H173739   6.212   5.276  13.456  0.0791  0.1666 -0.8817
17416TIP3    H273740   6.156   5.408  13.505  0.7519 -0.0792  0.5978
17417TIP3   OH273741   4.374   4.632  15.192 -0.0928  0.1442 -0.5151
17417TIP3    H173742   4.287   4.648  15.228  0.8648 -0.0748  2.0852
17417TIP3    H273743   4.383   4.697  15.122 -2.1303  0.4885 -0.5151
17418TIP3   OH273744   3.168   0.861   5.188 -0.8591 -0.9829  0.2748
17418TIP3    H173745   3.077   0.874   5.163 -1.4718 -2.1068  1.7685
17418TIP3    H273746   3.181   0.920   5.262  0.2660  0.6695 -1.1563
17419TIP3   OH273747   3.137   1.342   2.868 -0.2749  0.1197 -0.3227
17419TIP3    H173748   3.061   1.378   2.915  0.7090  0.4865  1.0452
17419TIP3    H273749   3.162   1.410   2.806 -0.3694  0.4694  0.0219
17420TIP3   OH273750   3.222   4.815  10.479  0.1375 -0.2585  0.4590
17420TIP3    H173751   3.301   4.817  10.425  0.4898 -0.2462  0.9631
17420TIP3    H273752   3.226   4.896  10.532 -0.8473  0.3736 -0.3844
17421TIP3   OH273753   6.509   3.067  14.915  0.1846 -0.7289  0.5649
17421TIP3    H173754   6.477   2.981  14.943 -0.7257  0.0112  1.9176
17421TIP3    H273755   6.529   3.113  14.996  0.5804  0.3766 -0.1310
17422TIP3   OH273756   6.176   0.579  11.229  0.2920  0.3277 -0.0339
17422TIP3    H173757   6.222   0.504  11.192 -0.3151  0.7052 -1.6800
17422TIP3    H273758   6.245   0.642  11.250  0.6596  0.2370 -0.9254
17423TIP3   OH273759   4.560   3.295  12.779  0.3874 -0.0049  0.0450
17423TIP3    H173760   4.625   3.296  12.850 -1.1216 -0.0142  1.4816
17423TIP3    H273761   4.577   3.376  12.731  2.0885 -0.4777 -0.2216
17424TIP3   OH273762   3.857   4.203   3.245 -0.4588  0.0597 -0.1383
17424TIP3    H173763   3.782   4.226   3.300 -0.5395  0.7554 -0.5354
17424TIP3    H273764   3.870   4.109   3.261 -1.5393 -0.1174 -0.2159
17425TIP3   OH273765   6.782   4.383  14.110 -0.5226  0.0081 -0.3062
17425TIP3    H173766   6.835   4.412  14.185  0.1837  1.2971 -1.2558
17425TIP3    H273767   6.815   4.296  14.089 -1.4640 -0.8451  1.5134
17426TIP3   OH273768   2.614   4.710  14.562 -0.2307 -0.4395  0.6340
17426TIP3    H173769   2.604   4.730  14.470  0.0692 -3.6447 -0.2242
17426TIP3    H273770   2.528   4.681  14.591 -0.3849  0.7661  1.4786
17427TIP3   OH273771   3.425   0.010   0.199 -0.3060 -0.4074 -0.0939
17427TIP3    H173772   3.494   0.063   0.239 -0.2050  1.0358 -1.9915
17427TIP3    H273773   3.350   0.019   0.257 -0.0649  1.2753 -0.0013
17428TIP3   OH273774   5.045   3.671   6.134  0.1402 -0.5005 -0.0833
17428TIP3    H173775   5.073   3.580   6.135  1.7064 -0.0960  2.9146
17428TIP3    H273776   4.959   3.670   6.176  1.0554 -0.4513  1.9066
17429TIP3   OH273777   5.278   1.042   3.967  0.5348  0.6063  0.1723
17429TIP3    H173778   5.345   0.983   4.003  0.3626  1.2211  1.5693
17429TIP3    H273779   5.320   1.081   3.890  0.3909 -1.8470 -1.2760
17430TIP3   OH273780   2.161   5.816   4.940  0.3762 -0.0183  0.1210
17430TIP3    H173781   2.180   5.722   4.949 -0.2437 -0.0168  1.5961
17430TIP3    H273782   2.242   5.859   4.966  0.4182 -0.1187  0.1581
17431TIP3   OH273783   0.732   2.985  16.238 -0.3372  0.4213 -0.6617
17431TIP3    H173784   0.670   3.017  16.173 -0.8162  0.5202 -0.1640
17431TIP3    H273785   0.693   3.008  16.322 -0.2671 -0.6872 -0.3065
17432TIP3   OH273786   2.352   4.734  10.721 -0.4197  0.0601  0.2107
17432TIP3    H173787   2.274   4.771  10.679  0.6649  2.5721  0.2137
17432TIP3    H273788   2.399   4.691  10.649 -0.2221  1.4408 -0.5406
17433TIP3   OH273789   5.175   4.372  11.325 -0.0059 -0.1326 -0.0958
17433TIP3    H173790   5.091   4.414  11.346 -0.3224 -0.5887 -0.4119
17433TIP3    H273791   5.219   4.435  11.267  0.3328  0.5710  0.9074
17434TIP3   OH273792   6.663   3.451  11.921  0.7298 -0.1605  0.1860
17434TIP3    H173793   6.635   3.377  11.975  0.9490 -0.3174  0.0824
17434TIP3    H273794   6.643   3.425  11.831 -0.2313  0.3635  0.2358
17435TIP3   OH273795   5.209   6.020   3.799 -0.2127  0.1970 -0.7821
17435TIP3    H173796   5.189   6.020   3.705 -2.7212 -2.3512 -0.3722
17435TIP3    H273797   5.211   5.927   3.823  1.9336  0.7282  1.4506
17436TIP3   OH273798   1.486   5.006   5.071 -0.4324  0.4854 -0.1027
17436TIP3    H173799   1.476   4.912   5.084 -1.6208  0.6477  0.3818
17436TIP3    H273800   1.400   5.035   5.040  0.4122  1.1665 -1.9333
17437TIP3   OH273801   2.399   5.163  14.519 -0.3461  0.2161  0.6527
17437TIP3    H173802   2.444   5.158  14.603 -0.1607 -0.8061  0.5002
17437TIP3    H273803   2.315   5.204  14.539  0.1494  1.0075  1.1399
17438TIP3   OH273804   3.561   0.787  16.406 -0.3481 -0.2466 -0.7950
17438TIP3    H173805   3.578   0.733  16.483  0.3364  1.2588  0.1781
17438TIP3    H273806   3.498   0.738  16.355 -0.2448 -1.6461  0.3552
17439TIP3   OH273807   1.566   5.291  15.660 -0.1413  0.2465  0.1001
17439TIP3    H173808   1.602   5.341  15.734  0.2944  2.1807 -1.3688
17439TIP3    H273809   1.479   5.264  15.690  0.9042 -1.1069  2.2095
17440TIP3   OH273810   0.602   2.430   3.418  0.3089 -0.0000  0.0316
17440TIP3    H173811   0.508   2.445   3.407  0.3790  0.6781  0.3278
17440TIP3    H273812   0.610   2.335   3.427 -0.3643 -0.0523  0.1441
17441TIP3   OH273813   4.056   5.363  14.471 -0.5573  0.2774 -0.2785
17441TIP3    H173814   4.045   5.295  14.537 -1.9864  0.7071 -0.0434
17441TIP3    H273815   4.133   5.335  14.420 -0.8751 -1.2893  0.0622
17442TIP3   OH273816   6.703   2.578   1.763 -0.3786 -0.2900 -0.3589
17442TIP3    H173817   6.628   2.532   1.724 -0.3875  0.5423 -1.3907
17442TIP3    H273818   6.686   2.578   1.857 -1.7960  0.0638 -0.5943
17443TIP3   OH273819   0.413   2.107   3.021 -0.0830  0.4607  0.1355
17443TIP3    H173820   0.505   2.125   3.003 -0.4047  0.2347 -2.0019
17443TIP3    H273821   0.377   2.192   3.048  0.5343  0.7868 -0.0569
17444TIP3   OH273822   5.078   3.333  13.989 -0.0074  0.3418  0.6752
17444TIP3    H173823   5.140   3.307  13.921  0.0119  0.0965  0.7856
17444TIP3    H273824   5.029   3.405  13.950 -0.5337 -0.3070  0.1074
17445TIP3   OH273825   1.006   3.064  14.661  0.3013  0.2240 -0.5957
17445TIP3    H173826   0.980   3.020  14.742 -0.0806 -1.6016 -1.6612
17445TIP3    H273827   1.084   3.115  14.685 -0.4576  0.6154  1.1532
17446TIP3   OH273828   3.748   6.711   3.756 -0.6917 -0.1893 -0.0557
17446TIP3    H173829   3.835   6.710   3.716 -1.7440  1.7679 -2.6797
17446TIP3    H273830   3.699   6.643   3.710 -1.1271  0.1196 -0.0548
17447TIP3   OH273831   1.284   6.415   0.448  0.0941  0.8274  0.0363
17447TIP3    H173832   1.335   6.432   0.369 -0.1305  0.9886 -0.0749
17447TIP3    H273833   1.235   6.496   0.463 -0.4236  0.5378 -0.0799
17448TIP3   OH273834   4.757   5.434  11.215 -0.3352  0.2023 -0.1074
17448TIP3    H173835   4.827   5.491  11.183 -0.5678  0.2738 -0.4877
17448TIP3    H273836   4.803   5.365  11.263 -0.0861  1.0514  0.9097
17449TIP3   OH273837   6.109   2.726  15.952  0.5874  0.3703 -0.2750
17449TIP3    H173838   6.107   2.689  16.040  2.1892  0.2830 -0.2494
17449TIP3    H273839   6.017   2.731  15.926  0.2053 -2.7712  0.0779
17450TIP3   OH273840   2.540   5.779  16.955 -0.1114  0.2012  0.1002
17450TIP3    H173841   2.567   5.740  16.872 -0.7710  0.3633 -0.1921
17450TIP3    H273842   2.622   5.809  16.995  0.0882  1.3590 -1.1050
17451TIP3   OH273843   0.540   1.662   4.488 -0.0896  0.3127  0.2335
17451TIP3    H173844   0.518   1.613   4.409 -1.0891 -3.3217  2.5248
17451TIP3    H273845   0.460   1.660   4.541  0.8731  1.5770  1.8524
17452TIP3   OH273846   6.710   3.794  16.094  0.5358 -0.4122 -0.5453
17452TIP3    H173847   6.706   3.762  16.184 -0.9805 -0.4037 -0.5831
17452TIP3    H273848   6.672   3.881  16.098  3.5917  1.0817 -0.6464
17453TIP3   OH273849   2.033   4.140   1.079  1.1144  0.4770 -0.2994
17453TIP3    H173850   2.030   4.049   1.106  1.0047  1.1056  2.0228
17453TIP3    H273851   2.061   4.138   0.987  1.3542 -1.8416 -0.2130
17454TIP3   OH273852   0.210   6.513   4.692 -0.4847 -0.4028  0.1488
17454TIP3    H173853   0.248   6.428   4.715  0.3506 -0.2716 -0.6527
17454TIP3    H273854   0.164   6.498   4.609  1.7027  0.3804 -1.3180
17455TIP3   OH273855   6.589   3.550   4.836 -0.1918  0.2339  0.0086
17455TIP3    H173856   6.584   3.636   4.795 -0.1382  1.4631  2.3840
17455TIP3    H273857   6.676   3.547   4.875  0.8355 -2.0355 -2.2058
17456TIP3   OH273858   2.681   1.608   4.267 -0.4445 -0.7608  0.3785
17456TIP3    H173859   2.650   1.610   4.357 -0.1144 -0.2966  0.4849
17456TIP3    H273860   2.751   1.544   4.266  1.4880  1.2197  1.1036
17457TIP3   OH273861   1.466   6.424   5.897  0.0897 -0.0495 -0.7239
17457TIP3    H173862   1.445   6.462   5.982  2.2775 -0.6730  0.1767
17457TIP3    H273863   1.560   6.405   5.903 -0.3104 -2.8805 -2.1648
17458TIP3   OH273864   2.065   5.500   6.065  0.0658  0.5514  0.7678
17458TIP3    H173865   2.119   5.426   6.092  0.6481 -0.4187 -2.5875
17458TIP3    H273866   2.126   5.573   6.054  0.1120  0.4546  0.3866
17459TIP3   OH273867   3.964   6.471  11.164 -0.3916 -0.2926  0.6053
17459TIP3    H173868   3.876   6.447  11.135 -0.2371  0.0681 -0.1988
17459TIP3    H273869   3.997   6.394  11.209 -0.8212 -0.7171  0.2045
17460TIP3   OH273870   1.000   0.453  17.081 -0.0761  0.4984  1.0227
17460TIP3    H173871   0.990   0.392  17.008 -1.4105  1.1829  0.5900
17460TIP3    H273872   0.976   0.402  17.159  0.2654  0.0673  0.8458
17461TIP3   OH273873   4.569   6.170   5.427  0.0612 -0.1889  0.1429
17461TIP3    H173874   4.504   6.232   5.460 -1.2016 -1.6850  0.5772
17461TIP3    H273875   4.547   6.160   5.334 -0.8349 -1.2429  0.4476
17462TIP3   OH273876   2.922   4.214   1.628  0.0044 -0.1337  0.0041
17462TIP3    H173877   2.931   4.261   1.711 -0.1552  1.7530 -0.9899
17462TIP3    H273878   3.012   4.191   1.604  0.2232  0.7414 -0.0589
17463TIP3   OH273879   2.330   3.005  15.372  0.8809  0.5074 -0.0045
17463TIP3    H173880   2.291   2.924  15.406  0.2647  1.1381  0.8133
17463TIP3    H273881   2.370   3.046  15.449  1.0156  1.0919 -0.3812
17464TIP3   OH273882   3.425   0.171   3.407  0.2912  0.1125 -0.0569
17464TIP3    H173883   3.483   0.200   3.336 -0.2495 -1.5234 -1.2178
17464TIP3    H273884   3.359   0.240   3.414  0.4334  0.3698 -1.0642
17465TIP3   OH273885   2.652   2.263  15.619 -0.1481 -0.3559  0.5175
17465TIP3    H173886   2.708   2.272  15.696  0.4251  0.3679  0.0346
17465TIP3    H273887   2.626   2.353  15.598 -0.5940 -0.5828  0.0918
17466TIP3   OH273888   3.480   2.130  13.706 -0.2890 -0.5729  0.4367
17466TIP3    H173889   3.442   2.048  13.675 -0.9808 -0.5597  1.2246
17466TIP3    H273890   3.417   2.197  13.681 -0.2005 -0.4012  0.6681
17467TIP3   OH273891   4.125   4.861  11.207 -0.2796  0.0528 -0.2859
17467TIP3    H173892   4.048   4.808  11.225  0.8546 -1.3828  0.5636
17467TIP3    H273893   4.106   4.905  11.124 -2.2105  0.1800  0.1789
17468TIP3   OH273894   1.839   4.405  13.829  0.2944  0.0628 -0.6988
17468TIP3    H173895   1.865   4.326  13.876 -0.5530 -0.6505 -1.3757
17468TIP3    H273896   1.825   4.471  13.897 -1.3427 -1.0597  0.1303
17469TIP3   OH273897   2.578   6.828  16.986  0.7003 -1.1237 -0.0024
17469TIP3    H173898   2.623   6.876  17.055  0.1467  0.1048 -0.4606
17469TIP3    H273899   2.548   6.748  17.028 -2.6902  1.0650  2.2934
17470TIP3   OH273900   0.780   5.197   3.840  0.5422  0.3176  0.2840
17470TIP3    H173901   0.763   5.288   3.866 -0.5059  0.5534 -1.1351
17470TIP3    H273902   0.803   5.202   3.748  1.2743 -0.7932  0.3843
17471TIP3   OH273903   4.904   5.033   0.034  0.4599 -0.1729  0.3411
17471TIP3    H173904   4.862   4.948   0.046  0.3578  0.0444  1.6323
17471TIP3    H273905   4.858   5.072  -0.040 -0.1332 -0.8518  0.3450
17472TIP3   OH273906   0.175   1.388  13.317 -0.1321  0.1076  0.2168
17472TIP3    H173907   0.236   1.459  13.337 -0.5518  0.6009 -0.2194
17472TIP3    H273908   0.104   1.431  13.268 -1.5306 -0.1692  1.8933
17473TIP3   OH273909   6.082   1.036   5.515  0.0565 -0.0937 -0.4424
17473TIP3    H173910   6.048   1.125   5.509 -0.5903 -0.3974 -1.6618
17473TIP3    H273911   6.176   1.046   5.499  0.3507  0.5847  1.5103
17474TIP3   OH273912   2.129   6.783   5.038  0.2627  0.0830  0.0243
17474TIP3    H173913   2.094   6.711   5.090 -1.1064 -0.1578 -1.1574
17474TIP3    H273914   2.212   6.750   5.004 -0.3265 -0.9560 -0.4712
17475TIP3   OH273915   3.681   2.854   3.375  0.3527  0.0821  0.4602
17475TIP3    H173916   3.722   2.800   3.442 -0.2554  1.7231  2.2500
17475TIP3    H273917   3.704   2.944   3.399 -0.6818  0.7757 -0.9815
17476TIP3   OH273918   0.152   4.095   0.047 -0.2510 -0.2865 -0.2127
17476TIP3    H173919   0.202   4.062   0.122 -0.3524  0.0321 -0.0002
17476TIP3    H273920   0.216   4.105  -0.023 -0.1396 -0.5111 -0.1420
17477TIP3   OH273921   3.163   2.305   0.686  0.3160  0.0179  0.1515
17477TIP3    H173922   3.109   2.246   0.633  0.4445  0.7200 -0.7902
17477TIP3    H273923   3.200   2.367   0.623  0.4571  0.8978  1.0663
17478TIP3   OH273924   0.517   6.804   4.029  0.5546 -0.5128 -0.3288
17478TIP3    H173925   0.587   6.867   4.042  0.7773 -0.4003 -1.8904
17478TIP3    H273926   0.559   6.719   4.041  0.3330 -0.4210  1.4119
17479TIP3   OH273927   1.389   5.612   2.979 -0.7930  0.3972  0.0184
17479TIP3    H173928   1.364   5.669   2.905  0.4063 -1.4176 -1.8828
17479TIP3    H273929   1.403   5.526   2.940 -0.1650 -0.6757  2.4120
17480TIP3   OH273930   2.280   1.077  13.592  0.7477  0.3930 -0.0223
17480TIP3    H173931   2.265   1.066  13.686  0.8201  2.4758  0.2913
17480TIP3    H273932   2.193   1.095  13.556  1.0173  2.2485  0.1310
17481TIP3   OH273933   2.853   5.185  15.703 -0.3093  0.3838  0.2042
17481TIP3    H173934   2.768   5.172  15.745 -0.5409 -0.9432 -0.6490
17481TIP3    H273935   2.876   5.275  15.725 -0.4938 -0.1604  3.0522
17482TIP3   OH273936   0.537   2.580   2.325  0.1558  0.3945 -0.6108
17482TIP3    H173937   0.553   2.616   2.412 -0.6403 -1.0362  0.1565
17482TIP3    H273938   0.513   2.656   2.272 -0.3865  1.1487  0.6713
17483TIP3   OH273939   1.358   3.082  10.860  0.1952  0.0315 -0.3996
17483TIP3    H173940   1.401   3.072  10.776 -1.7127  0.1213 -1.4310
17483TIP3    H273941   1.268   3.053  10.845  0.3115 -2.0499  2.1457
17484TIP3   OH273942   4.888   1.745  11.940  0.3639 -0.2788  0.4471
17484TIP3    H173943   4.964   1.688  11.937 -0.0822 -0.8264 -1.3919
17484TIP3    H273944   4.924   1.834  11.937  0.9539 -0.5179  0.4574
17485TIP3   OH273945   1.479   3.171  13.179  0.2734  0.1209 -0.3592
17485TIP3    H173946   1.537   3.225  13.126  0.7624  0.5730  0.6194
17485TIP3    H273947   1.524   3.087  13.185  1.8896  1.0822  2.1025
17486TIP3   OH273948   2.900   1.997  14.183 -0.6006 -0.2722  0.3365
17486TIP3    H173949   2.826   1.937  14.189 -0.2687 -0.5479  2.0465
17486TIP3    H273950   2.977   1.941  14.183 -0.3384  0.0193 -1.3610
17487TIP3   OH273951   1.166   2.529  13.343  0.4304  0.2755  0.1606
17487TIP3    H173952   1.112   2.481  13.281  1.0183 -1.9653  1.2985
17487TIP3    H273953   1.197   2.605  13.294 -0.5776 -0.4675 -1.7054
17488TIP3   OH273954   6.095   2.655  16.801  0.7888 -0.1619  0.1631
17488TIP3    H173955   6.010   2.698  16.793  0.7494 -0.5929 -3.0070
17488TIP3    H273956   6.149   2.718  16.848 -1.2112  0.1252  2.2599
17489TIP3   OH273957   4.173   5.489  11.814 -0.2233  0.1220  0.0611
17489TIP3    H173958   4.114   5.417  11.835  1.8430 -1.5711  0.4056
17489TIP3    H273959   4.116   5.566  11.808 -2.5748 -1.5661 -0.7289
17490TIP3   OH273960   2.170   6.151   0.619  0.4187 -0.0080  0.3732
17490TIP3    H173961   2.137   6.240   0.609  0.9078  0.0419 -1.0158
17490TIP3    H273962   2.210   6.149   0.707 -0.5807  0.7947  0.8589
17491TIP3   OH273963   3.049   3.535   0.660 -0.2959  0.4699  0.4036
17491TIP3    H173964   3.028   3.473   0.729 -0.9278 -1.7457 -1.6164
17491TIP3    H273965   3.077   3.614   0.705 -0.6669 -0.8592  3.1354
17492TIP3   OH273966   6.649   6.670   4.458  0.1452 -0.1319 -0.2293
17492TIP3    H173967   6.671   6.752   4.414 -2.3056  0.5786 -0.2850
17492TIP3    H273968   6.632   6.695   4.549  0.8674 -0.8614  0.1247
17493TIP3   OH273969   5.632   1.284  10.442  0.1301  0.3714 -0.1326
17493TIP3    H173970   5.560   1.227  10.469 -0.2877  0.9393 -0.0290
17493TIP3    H273971   5.591   1.348  10.384  0.4297  1.0559  0.3921
17494TIP3   OH273972   6.061   0.566   3.687  0.9783  0.0533  0.4150
17494TIP3    H173973   6.093   0.576   3.777  3.0418 -0.4520 -0.2154
17494TIP3    H273974   6.140   0.554   3.635 -0.2925 -2.9930 -1.0418
17495TIP3   OH273975   0.028   3.318   3.144  0.7147 -0.1963 -0.2209
17495TIP3    H173976   0.114   3.348   3.173 -0.1476 -0.1238  2.5480
17495TIP3    H273977   0.028   3.224   3.161  0.5279 -0.3604 -1.0583
17496TIP3   OH273978   4.417   2.430  16.488  0.1900 -0.1426  0.1765
17496TIP3    H173979   4.462   2.513  16.498 -0.3756  0.6387 -2.7259
17496TIP3    H273980   4.334   2.453  16.445 -0.3890 -2.1003  0.1470
17497TIP3   OH273981   4.969   2.124  12.249  0.0600 -0.2528 -0.0152
17497TIP3    H173982   4.986   2.048  12.304 -0.4927 -1.3877 -1.3561
17497TIP3    H273983   4.948   2.088  12.163 -0.3471  1.4121 -0.6624
17498TIP3   OH273984   4.047   2.298  12.074  0.2305  0.0149  0.0900
17498TIP3    H173985   3.977   2.237  12.055  1.3976 -1.4160  0.1925
17498TIP3    H273986   4.117   2.274  12.013  1.1088  0.5367  0.8600
17499TIP3   OH273987   1.164   2.411   3.938  0.3134 -0.1386  0.4271
17499TIP3    H173988   1.181   2.317   3.931  3.6514  0.3686 -0.0287
17499TIP3    H273989   1.209   2.449   3.862 -0.6675  1.8538  0.7822
17500TIP3   OH273990   6.042   1.445  10.663 -0.1040 -0.1076  0.1318
17500TIP3    H173991   6.114   1.386  10.685  0.7027  0.1361 -1.6731
17500TIP3    H273992   6.084   1.518  10.617 -1.5570 -0.2592 -1.5317
17501TIP3   OH273993   2.724   5.772   4.964  0.1170 -0.1509  0.0269
17501TIP3    H173994   2.743   5.748   5.055 -0.1471 -2.9628 -0.5431
17501TIP3    H273995   2.630   5.789   4.962 -0.3101 -2.2518 -0.0416
17502TIP3   OH273996   2.992   2.952  13.488 -0.3326 -0.2704  0.2477
17502TIP3    H173997   3.055   3.004  13.439  0.7367 -1.1077  0.6987
17502TIP3    H273998   3.041   2.919  13.564 -1.3805 -0.7130  0.7607
17503TIP3   OH273999   1.083   1.271  14.347 -0.2882 -0.0218  0.2251
17503TIP3    H174000   1.117   1.355  14.315  0.2355  0.2953  1.5496
17503TIP3    H274001   1.019   1.244  14.281 -1.4714  2.0852  0.4404
17504TIP3   OH274002   2.256   0.040  16.417  0.8359  0.5376  0.6051
17504TIP3    H174003   2.194  -0.012  16.365  1.0487  0.0687  0.8199
17504TIP3    H274004   2.237   0.131  16.393 -0.1049  0.4167  0.8415
17505TIP3   OH274005   3.577   0.837   5.086  0.2678 -0.1616 -0.0071
17505TIP3    H174006   3.632   0.855   5.010  1.9825  0.1519  1.2501
17505TIP3    H274007   3.533   0.920   5.104  0.4196 -0.0348 -0.2204
17506TIP3   OH274008   1.096   3.385   3.906  0.0135 -0.1296  0.2975
17506TIP3    H174009   1.024   3.344   3.858 -0.3485  0.6970  0.1276
17506TIP3    H274010   1.161   3.315   3.915 -0.1565 -0.4641 -0.8973
17507TIP3   OH274011   4.705   4.270  16.962  0.5761 -0.1284  0.7732
17507TIP3    H174012   4.793   4.238  16.943  1.2719  1.5567  0.9640
17507TIP3    H274013   4.708   4.298  17.053 -0.6414 -1.4696  1.2692
17508TIP3   OH274014   3.503   6.401   1.176  0.1260  0.4910 -0.8323
17508TIP3    H174015   3.474   6.358   1.096 -1.3163 -1.8384  0.7977
17508TIP3    H274016   3.592   6.430   1.158 -0.4025  0.6888 -3.4594
17509TIP3   OH274017   6.766   1.906  11.992 -0.1989  0.3418 -0.0420
17509TIP3    H174018   6.826   1.934  12.061  0.5208 -0.7468 -0.1985
17509TIP3    H274019   6.817   1.844  11.940 -1.0273  0.4520 -1.0097
17510TIP3   OH274020   3.744   6.196   3.226 -0.2789 -0.0570 -0.1517
17510TIP3    H174021   3.683   6.260   3.261  0.7341  0.4923  0.6450
17510TIP3    H274022   3.801   6.174   3.299  0.3172 -0.7590 -0.8095
17511TIP3   OH274023   4.097   4.982  12.641 -0.0819 -0.1700  0.2880
17511TIP3    H174024   4.098   5.075  12.622 -2.9024 -0.0271  0.3990
17511TIP3    H274025   4.130   4.941  12.561  1.9904  0.8718  0.5310
17512TIP3   OH274026   0.258   2.141  15.299  0.3141 -0.3029  1.1394
17512TIP3    H174027   0.251   2.046  15.287  3.1109 -0.7433  2.3432
17512TIP3    H274028   0.210   2.158  15.380  0.5157 -0.8133  1.3674
17513TIP3   OH274029   6.438   6.785  16.346  0.2775 -0.2059 -0.2534
17513TIP3    H174030   6.347   6.790  16.374  0.0027 -0.0381 -1.1602
17513TIP3    H274031   6.435   6.796  16.251  1.2407 -0.2105 -0.2936
17514TIP3   OH274032   1.714   6.480  12.115  0.0622 -0.2125  0.8091
17514TIP3    H174033   1.666   6.553  12.154 -0.5293  1.1893 -2.2394
17514TIP3    H274034   1.664   6.458  12.036  2.9281 -0.4801 -1.0768
17515TIP3   OH274035   2.470   1.884  11.673 -0.3136 -0.5656 -0.0385
17515TIP3    H174036   2.395   1.882  11.613  0.4175 -0.7327 -0.9697
17515TIP3    H274037   2.540   1.838  11.626  0.2000 -0.9491  1.0640
17516TIP3   OH274038   3.331   5.098  15.474 -0.6078 -0.0506  0.1699
17516TIP3    H174039   3.269   5.139  15.414  1.3187 -0.9937 -2.6892
17516TIP3    H274040   3.349   5.164  15.540 -1.0038  2.0251 -1.6962
17517TIP3   OH274041   3.766   3.836  10.756  0.7506 -0.2143 -0.0394
17517TIP3    H174042   3.677   3.819  10.724  0.4799 -0.2080  0.6921
17517TIP3    H274043   3.822   3.781  10.701  0.3706  0.3009 -0.9646
17518TIP3   OH274044   5.646   4.690   0.023  0.6523 -0.2720  0.2644
17518TIP3    H174045   5.661   4.616  -0.036 -0.6992 -0.3528 -0.0085
17518TIP3    H274046   5.552   4.692   0.036  0.3492  2.7944 -1.5503
17519TIP3   OH274047   6.587   6.641  10.961 -0.0355  0.0836 -0.1111
17519TIP3    H174048   6.575   6.708  11.028 -0.2024 -0.3811  0.3302
17519TIP3    H274049   6.681   6.641  10.944 -0.2001  1.4985 -1.2397
17520TIP3   OH274050   0.698   6.720  16.457 -0.3562 -0.3511 -0.3701
17520TIP3    H174051   0.691   6.812  16.431  1.1725 -0.4870 -1.4127
17520TIP3    H274052   0.614   6.700  16.497 -0.0078  2.0513  1.7826
17521TIP3   OH274053   6.669   4.725  14.814  0.1635 -0.6565 -0.4439
17521TIP3    H174054   6.692   4.744  14.723  0.7917 -1.4642 -0.4698
17521TIP3    H274055   6.667   4.811  14.857 -0.6026 -0.2184 -1.3063
17522TIP3   OH274056   3.475   2.789  12.663 -0.1291  0.1967 -0.0973
17522TIP3    H174057   3.390   2.791  12.708  0.0064  0.6992  0.1375
17522TIP3    H274058   3.459   2.737  12.584 -0.5286 -0.1441  0.2048
17523TIP3   OH274059   3.737   1.384   0.742  0.4587  0.2662  0.2172
17523TIP3    H174060   3.776   1.314   0.691  2.2233 -0.4524  2.3881
17523TIP3    H274061   3.673   1.341   0.799  2.2484  0.1548  2.2639
17524TIP3   OH274062   3.330   4.027  15.198 -0.2374 -0.0078  0.2403
17524TIP3    H174063   3.248   4.002  15.154 -0.6623 -0.2242  1.1379
17524TIP3    H274064   3.348   4.115  15.165 -0.3578 -0.2988 -0.6327
17525TIP3   OH274065   5.398   3.360  14.464  0.3429 -0.6054 -0.0297
17525TIP3    H174066   5.452   3.313  14.400  0.3578  0.3604 -0.7493
17525TIP3    H274067   5.461   3.391  14.530  0.5739 -0.1326 -0.4646
17526TIP3   OH274068   4.691   3.920   1.303 -0.1530  0.1589 -0.2169
17526TIP3    H174069   4.786   3.906   1.305 -0.2131 -0.1689  1.2757
17526TIP3    H274070   4.655   3.834   1.281 -0.0947  0.4171 -1.3728
17527TIP3   OH274071   0.902   0.756   2.059  0.3088  0.0082  0.3067
17527TIP3    H174072   0.845   0.683   2.083  2.0049 -1.5848 -0.2161
17527TIP3    H274073   0.854   0.802   1.991 -1.1537 -0.1149  1.2042
17528TIP3   OH274074   1.181   3.826   5.952  0.3701  0.0981 -0.4091
17528TIP3    H174075   1.121   3.870   6.013  1.6623  2.1891 -0.5391
17528TIP3    H274076   1.220   3.756   6.003 -2.2406 -1.4443 -0.3647
17529TIP3   OH274077   2.818   3.816   0.251  0.0651  0.0812 -0.0670
17529TIP3    H174078   2.826   3.740   0.194 -0.4615  0.0992 -0.1714
17529TIP3    H274079   2.845   3.890   0.196  0.1197  0.0289 -0.1108
17530TIP3   OH274080   1.031   6.452   3.806 -0.0736  0.5667 -0.3833
17530TIP3    H174081   0.964   6.471   3.871  1.7713  3.1237  0.9857
17530TIP3    H274082   1.015   6.514   3.735  0.3999  0.6932 -0.3865
17531TIP3   OH274083   5.248   1.011   1.817 -0.7927  0.0230  0.2777
17531TIP3    H174084   5.305   0.937   1.837 -0.2959  0.0205 -1.0558
17531TIP3    H274085   5.292   1.086   1.856 -0.9502 -0.2810  1.0505
17532TIP3   OH274086   0.265   0.883   6.618 -0.1379  0.2385 -0.3271
17532TIP3    H174087   0.326   0.924   6.556  1.5911  0.8080  1.6131
17532TIP3    H274088   0.180   0.923   6.598  0.6584  1.5306 -1.3238
17533TIP3   OH274089   6.038   1.041  14.588  0.2100 -0.1184  0.0595
17533TIP3    H174090   5.978   0.966  14.587 -1.2173  0.9662 -1.6005
17533TIP3    H274091   6.079   1.040  14.502 -1.3093  2.0690 -0.7767
17534TIP3   OH274092   2.807   0.715   2.572 -0.0049 -0.7339 -0.3887
17534TIP3    H174093   2.716   0.686   2.577 -0.9530  1.7067 -1.5829
17534TIP3    H274094   2.847   0.684   2.653 -2.5826  0.1310  1.3557
17535TIP3   OH274095   3.369   2.698  10.773  0.2363  0.1161  0.0121
17535TIP3    H174096   3.419   2.675  10.695 -0.0108  1.5605 -0.5846
17535TIP3    H274097   3.280   2.713  10.741 -0.5883 -2.1022  1.0156
17536TIP3   OH274098   6.578   2.405  14.488 -0.0873 -0.8336 -0.2374
17536TIP3    H174099   6.655   2.378  14.439  0.3738 -0.2481  0.1524
17536TIP3    H274100   6.549   2.325  14.533 -0.3130 -1.2942 -1.1680
17537TIP3   OH274101   2.517   5.160   1.416 -0.0243 -0.2802 -0.3302
17537TIP3    H174102   2.454   5.229   1.394  0.7103  0.2281 -0.8560
17537TIP3    H274103   2.594   5.206   1.449  0.8746 -0.7714 -1.6582
17538TIP3   OH274104   5.763   4.300   2.823  0.0435  0.1241  0.2374
17538TIP3    H174105   5.826   4.318   2.893 -1.0131  1.4020  0.8956
17538TIP3    H274106   5.735   4.386   2.793 -0.1975 -0.4166 -1.1531
17539TIP3   OH274107   6.372   2.763   5.786 -0.3287  0.0030  0.3746
17539TIP3    H174108   6.401   2.678   5.817  1.2470  0.6979  0.9356
17539TIP3    H274109   6.286   2.747   5.748 -0.2558 -1.7427  0.8570
17540TIP3   OH274110   6.067   2.499  14.791 -0.6340  0.1633 -0.1956
17540TIP3    H174111   6.159   2.524  14.795 -0.4443 -0.6073  0.4842
17540TIP3    H274112   6.050   2.456  14.875 -0.7796 -2.4909 -1.5166
17541TIP3   OH274113   6.308   6.215  13.703  0.2226 -0.1205 -1.0683
17541TIP3    H174114   6.271   6.180  13.621 -1.5115 -0.0674 -0.3546
17541TIP3    H274115   6.231   6.236  13.756  1.3055  1.1978  0.0194
17542TIP3   OH274116   3.819   1.414   2.101 -0.0187 -0.1478  0.6182
17542TIP3    H174117   3.747   1.429   2.162 -0.3482 -0.2036  0.2404
17542TIP3    H274118   3.777   1.389   2.019  0.4657 -2.5691  1.0208
17543TIP3   OH274119   4.195   4.901   3.264  0.0953 -0.1023  0.5368
17543TIP3    H174120   4.118   4.844   3.267  0.2777 -0.4052 -0.4571
17543TIP3    H274121   4.189   4.946   3.180  0.2721  0.9198  1.0456
17544TIP3   OH274122   2.883   1.166  16.611  0.8258  0.5707 -0.5799
17544TIP3    H174123   2.919   1.185  16.697 -0.1621 -1.0899  0.2375
17544TIP3    H274124   2.941   1.100  16.574  1.5445  1.6403 -1.4444
17545TIP3   OH274125   1.619   0.134   3.265 -0.2702  0.7875  0.1762
17545TIP3    H174126   1.696   0.076   3.265  0.6815  1.9940 -0.8550
17545TIP3    H274127   1.616   0.170   3.177 -1.5930  1.3451  0.4295
17546TIP3   OH274128   0.526   6.540   2.972  0.7191  0.0468 -0.1469
17546TIP3    H174129   0.559   6.503   2.890  0.1894  1.1079 -0.8716
17546TIP3    H274130   0.585   6.612   2.992  0.6846 -0.0349  0.2660
17547TIP3   OH274131   0.913   2.142   2.422 -0.4181  0.0687 -0.5575
17547TIP3    H174132   0.859   2.219   2.438  0.1814  0.7719 -1.7999
17547TIP3    H274133   1.000   2.177   2.402  0.3498 -1.0137  0.7438
17548TIP3   OH274134   5.742   5.942  15.750 -0.9148  1.2231 -0.4109
17548TIP3    H174135   5.771   5.964  15.838  1.0551  1.1012 -0.9743
17548TIP3    H274136   5.736   6.026  15.705  1.2696  1.1118 -1.0253
17549TIP3   OH274137   3.939   1.719   0.132 -0.1720 -0.1360  0.0446
17549TIP3    H174138   3.854   1.734   0.090 -0.2806  0.6479  0.5152
17549TIP3    H274139   3.950   1.794   0.190  1.3827  0.3782 -0.8704
17550TIP3   OH274140   6.295   6.346   0.065 -0.3572  0.1688  0.2067
17550TIP3    H174141   6.369   6.285   0.065  1.4517  2.2057 -1.3564
17550TIP3    H274142   6.314   6.408  -0.005 -3.1298  1.3538  0.3418
17551TIP3   OH274143   0.484   5.869   6.570  0.1056  0.4686 -0.1474
17551TIP3    H174144   0.479   5.777   6.596 -1.5049  0.4766 -0.3117
17551TIP3    H274145   0.405   5.884   6.517  1.7972  1.1817 -2.6942
17552TIP3   OH274146   0.083   2.792   3.044  0.0238  0.4498  0.5160
17552TIP3    H174147   0.031   2.853   2.993 -0.7738 -0.6033  0.0296
17552TIP3    H274148   0.123   2.734   2.980  1.7192  1.1528  0.8910
17553TIP3   OH274149   6.793   6.703   3.733 -0.0971  0.6380  0.2443
17553TIP3    H174150   6.824   6.783   3.775 -1.0628  1.0149  0.2569
17553TIP3    H274151   6.842   6.698   3.651 -1.0594  2.0363 -0.4570
17554TIP3   OH274152   3.246   5.730   0.455 -0.4068 -0.6012  0.0878
17554TIP3    H174153   3.192   5.654   0.432 -1.8215 -0.0694  1.4295
17554TIP3    H274154   3.285   5.707   0.540  1.7046 -1.0434 -0.9295
17555TIP3   OH274155   0.911   5.925  13.209  0.3843 -0.1357  0.2171
17555TIP3    H174156   0.953   5.974  13.138 -1.1087 -0.0380 -0.6378
17555TIP3    H274157   0.880   5.992  13.270 -1.1196 -0.0059 -0.6477
17556TIP3   OH274158   2.526   3.432  14.216 -0.3847  0.6326 -0.3927
17556TIP3    H174159   2.493   3.498  14.154 -0.2118  1.1311  0.0406
17556TIP3    H274160   2.459   3.427  14.283 -0.9017 -0.4189 -0.9693
17557TIP3   OH274161   6.574   2.234   1.499  0.1681 -0.6469 -0.4041
17557TIP3    H174162   6.590   2.216   1.406 -1.0729 -1.9333 -0.4127
17557TIP3    H274163   6.583   2.148   1.541 -0.2286 -0.2518  0.5110
17558TIP3   OH274164   1.265   4.379   4.327  0.1128  0.0789  0.1600
17558TIP3    H174165   1.265   4.285   4.344 -0.4776  0.0048 -0.2382
17558TIP3    H274166   1.179   4.397   4.289  0.9161  0.4525 -1.5614
17559TIP3   OH274167   1.908   4.991  16.005 -0.1425 -0.2928 -0.6137
17559TIP3    H174168   1.867   5.040  15.934 -0.6198  0.4860  0.1778
17559TIP3    H274169   1.931   4.907  15.966  1.7829  0.9354 -2.3614
17560TIP3   OH274170   3.185   3.330  15.827 -0.3901  0.3069 -0.1396
17560TIP3    H174171   3.129   3.308  15.753 -0.1869  0.4514 -0.3359
17560TIP3    H274172   3.178   3.425  15.836 -1.5075  0.1595  0.8983
17561TIP3   OH274173   6.633   3.766   3.610 -0.0480  0.3254 -0.2502
17561TIP3    H174174   6.676   3.688   3.647 -0.4635 -0.3283 -1.1188
17561TIP3    H274175   6.545   3.764   3.646  0.3098  1.1002  0.7140
17562TIP3   OH274176   4.970   1.673   4.932 -0.2027 -0.0077 -0.8888
17562TIP3    H174177   5.039   1.737   4.918  1.6459 -1.3384  1.3351
17562TIP3    H274178   4.927   1.665   4.847  0.2532  3.2247 -1.5347
17563TIP3   OH274179   0.052   0.827  13.340 -0.0607  0.4039 -0.3838
17563TIP3    H174180   0.046   0.767  13.415 -0.2065 -0.0192 -0.7308
17563TIP3    H274181   0.106   0.899  13.372  0.3292 -0.0335 -0.0382
17564TIP3   OH274182   5.858   5.975   3.778  0.2222 -0.4661  0.3246
17564TIP3    H174183   5.926   5.953   3.841  2.7254 -1.6256 -2.5721
17564TIP3    H274184   5.893   6.049   3.729 -0.1723 -1.5436 -1.7166
17565TIP3   OH274185   0.767   4.894  16.086  0.4336 -0.1245  0.1988
17565TIP3    H174186   0.793   4.968  16.030  0.0442 -1.0647 -1.3018
17565TIP3    H274187   0.822   4.821  16.057 -1.2260 -1.1839 -0.4759
17566TIP3   OH274188   5.103   1.539  15.422 -0.4232 -0.4872  0.4544
17566TIP3    H174189   5.051   1.614  15.452 -0.6289 -0.5893  0.3508
17566TIP3    H274190   5.065   1.464  15.468 -0.4274 -0.5753  0.3047
17567TIP3   OH274191   5.088   0.989  13.237  0.5303 -0.3831  0.4931
17567TIP3    H174192   5.106   0.921  13.172 -0.1484 -0.5141  0.4252
17567TIP3    H274193   4.992   0.988  13.245  0.6811 -1.7611  2.9655
17568TIP3   OH274194   4.525   4.566   0.367  0.1486  0.1543  0.1977
17568TIP3    H174195   4.567   4.490   0.327 -0.7513 -0.4009  0.2562
17568TIP3    H274196   4.588   4.636   0.359  1.1505 -0.6890  0.4495
17569TIP3   OH274197   1.475   1.205  12.231  0.9618  0.4446 -0.3082
17569TIP3    H174198   1.409   1.185  12.164 -0.9656 -0.3807  1.6742
17569TIP3    H274199   1.496   1.119  12.269  0.0231  1.0753  1.8066
17570TIP3   OH274200   4.590   1.495   4.849  0.4608 -0.1792 -0.0127
17570TIP3    H174201   4.507   1.452   4.865 -0.4339  1.1870 -0.8004
17570TIP3    H274202   4.575   1.549   4.771  2.6562 -1.4592 -1.4524
17571TIP3   OH274203   0.314   3.759  12.401 -0.1540 -0.3360  0.5845
17571TIP3    H174204   0.299   3.790  12.312 -1.5785 -0.2805  0.8220
17571TIP3    H274205   0.407   3.774  12.417  0.6448 -2.3635 -1.6703
17572TIP3   OH274206   3.191   2.888   0.522  0.2359  0.4341 -0.0594
17572TIP3    H174207   3.239   2.949   0.465  1.5006  0.2429  0.7677
17572TIP3    H274208   3.122   2.853   0.466  1.2328  0.5112 -1.3818
17573TIP3   OH274209   4.377   2.866   1.548 -0.6105 -0.2729  0.6490
17573TIP3    H174210   4.347   2.775   1.550 -1.7681  0.0780  0.5031
17573TIP3    H274211   4.454   2.866   1.492 -1.1304 -1.0250 -0.0841
17574TIP3   OH274212   0.118   2.087  15.024  0.2722  0.3763 -0.0252
17574TIP3    H174213   0.158   2.020  15.079 -0.2137 -1.0205 -1.2947
17574TIP3    H274214   0.101   2.161  15.083 -0.4747 -1.1441  1.7446
17575TIP3   OH274215   6.650   5.380  11.073  0.5706 -0.4184  0.3378
17575TIP3    H174216   6.679   5.322  11.144  2.3010  2.4341  2.1327
17575TIP3    H274217   6.722   5.377  11.010  1.1887  0.5926  0.9773
17576TIP3   OH274218   2.718   5.377   2.602  0.0003  0.2183  0.1723
17576TIP3    H174219   2.709   5.452   2.542 -0.5659  0.2284  0.2681
17576TIP3    H274220   2.812   5.364   2.609  0.1904  1.9145  1.3718
17577TIP3   OH274221   2.966   4.109   0.526 -0.3176 -0.3524 -1.1461
17577TIP3    H174222   2.874   4.084   0.540 -0.2126 -0.9330 -1.4235
17577TIP3    H274223   3.005   4.030   0.488  1.0370 -1.2132  1.7692
17578TIP3   OH274224   3.282   2.264   4.023 -0.0012 -0.2165 -1.1567
17578TIP3    H174225   3.188   2.278   4.020  0.0265  0.2510 -0.1264
17578TIP3    H274226   3.302   2.216   3.942 -0.9616  0.5508 -1.8627
17579TIP3   OH274227   0.247   6.604  16.090  0.4531 -0.4613  0.3190
17579TIP3    H174228   0.267   6.691  16.124 -0.3965 -0.3079  0.4351
17579TIP3    H274229   0.323   6.582  16.036  0.1326  0.8918 -0.7462
17580TIP3   OH274230   4.180   6.360   5.793  0.4001 -0.3991  0.0421
17580TIP3    H174231   4.124   6.315   5.855 -1.1767  1.2541 -0.1040
17580TIP3    H274232   4.149   6.332   5.707 -1.8490  2.1676 -0.1238
17581TIP3   OH274233   4.389   3.901   5.215 -0.6304  0.4849 -0.3295
17581TIP3    H174234   4.450   3.904   5.141 -1.9337 -0.8637 -1.5117
17581TIP3    H274235   4.439   3.861   5.286  0.1384  0.2615 -0.9880
17582TIP3   OH274236   1.194   1.292   0.170 -0.3575  0.0060  0.2215
17582TIP3    H174237   1.167   1.373   0.213 -0.5852  1.1657 -1.9679
17582TIP3    H274238   1.139   1.286   0.092  2.7124  0.2401 -2.1542
17583TIP3   OH274239   4.219   1.970  12.454  0.1734  0.0192 -0.3529
17583TIP3    H174240   4.291   1.990  12.515 -0.7023  1.2509  0.3250
17583TIP3    H274241   4.246   2.012  12.372  0.1329  0.7182 -0.0243
17584TIP3   OH274242   4.755   6.538  10.649  0.4575  0.4881 -0.4231
17584TIP3    H174243   4.786   6.626  10.630  1.2392  0.0260 -1.3812
17584TIP3    H274244   4.803   6.512  10.728  0.4757  0.7918 -0.3334
17585TIP3   OH274245   6.135   1.002   4.748 -0.9045 -0.2033  0.2914
17585TIP3    H174246   6.170   0.919   4.716 -0.8274 -0.4025  0.8747
17585TIP3    H274247   6.145   1.063   4.675  0.9886 -0.1534  0.5309
17586TIP3   OH274248   2.228   3.008  17.078  0.7405 -0.7274  0.1300
17586TIP3    H174249   2.175   2.933  17.050  1.9413 -1.4230 -0.3586
17586TIP3    H274250   2.318   2.984  17.054  1.3272  0.2743  1.2223
17587TIP3   OH274251   6.553   2.199   0.789  0.1076  0.6989 -0.0707
17587TIP3    H174252   6.611   2.246   0.848  0.9105  1.1713 -1.2086
17587TIP3    H274253   6.552   2.251   0.708 -0.6264 -0.1431 -0.6327
17588TIP3   OH274254   5.467   0.419  15.013  0.2064 -0.0025 -0.2612
17588TIP3    H174255   5.480   0.405  14.919 -0.5845  2.2852 -0.7712
17588TIP3    H274256   5.490   0.511  15.027  3.9294 -1.0767  2.5190
17589TIP3   OH274257   2.740   1.710  13.216 -0.0093  0.7121 -0.4288
17589TIP3    H174258   2.793   1.706  13.295  1.5998  0.0246 -1.4816
17589TIP3    H274259   2.706   1.621  13.205  0.1313  0.6936 -0.7339
17590TIP3   OH274260   5.948   5.151  13.513  0.2111 -0.7256  0.0348
17590TIP3    H174261   5.901   5.092  13.454 -0.1272 -0.9125  0.4852
17590TIP3    H274262   6.000   5.206  13.455 -0.6666 -0.4215 -0.4811
17591TIP3   OH274263   6.320   3.896   1.429 -0.5650  0.2825 -0.0168
17591TIP3    H174264   6.346   3.836   1.498 -1.2710 -0.8222 -0.6818
17591TIP3    H274265   6.235   3.863   1.399 -0.1019  0.4878 -1.6748
17592TIP3   OH274266   0.032   2.101   3.373 -0.4412  0.1874 -0.0913
17592TIP3    H174267   0.013   2.188   3.340  2.1041  1.1406  0.6822
17592TIP3    H274268   0.058   2.051   3.296  1.5940  1.2300 -0.1486
17593TIP3   OH274269   6.213   2.903   0.458 -0.6941  0.4849  0.0820
17593TIP3    H174270   6.165   2.933   0.535  0.8993  2.0932  0.4808
17593TIP3    H274271   6.297   2.873   0.492 -0.0194  1.0982 -1.0019
17594TIP3   OH274272   6.572   4.124   2.915  0.7050 -0.4384 -0.2617
17594TIP3    H174273   6.599   4.213   2.937 -0.8377 -0.0143  0.0196
17594TIP3    H274274   6.589   4.074   2.995  0.7821 -0.2175 -0.1386
17595TIP3   OH274275   3.648   0.529   1.603  0.0646  0.2028  0.0453
17595TIP3    H174276   3.644   0.488   1.517 -0.4622  0.2010  0.0690
17595TIP3    H274277   3.614   0.618   1.589  0.3833  0.3437  0.1646
17596TIP3   OH274278   2.764   2.093  15.419 -0.5986  0.0663  0.6173
17596TIP3    H174279   2.714   2.129  15.492  0.2622  0.3633  1.0697
17596TIP3    H274280   2.805   2.169  15.378 -0.4768 -0.1752  0.2888
17597TIP3   OH274281   0.676   4.875   3.665  0.2819  1.1058 -0.2226
17597TIP3    H174282   0.590   4.865   3.705 -0.1814 -0.6376 -1.5572
17597TIP3    H274283   0.738   4.873   3.738 -0.7167  1.0078  0.6298
17598TIP3   OH274284   5.974   1.218  12.644 -0.0547  0.4518  0.5646
17598TIP3    H174285   6.058   1.239  12.604  0.9902 -1.3916  1.6351
17598TIP3    H274286   5.962   1.284  12.712  0.4487  0.8074  0.3125
17599TIP3   OH274287   1.501   3.507   0.583  0.4119  1.0416 -0.0544
17599TIP3    H174288   1.417   3.531   0.545  0.5038  0.9587 -0.3148
17599TIP3    H274289   1.551   3.471   0.510  0.1317 -0.3645  0.4129
17600TIP3   OH274290   4.611   5.498  14.557 -0.5944 -0.2200  0.0268
17600TIP3    H174291   4.538   5.552  14.526  0.2871  0.2768 -1.2708
17600TIP3    H274292   4.687   5.530  14.508  0.2945 -1.4482  0.5580
17601TIP3   OH274293   4.743   1.152  12.679  0.2199  0.7518 -0.2090
17601TIP3    H174294   4.665   1.186  12.635 -1.3461 -1.3109  0.7611
17601TIP3    H274295   4.751   1.206  12.758 -1.0189  0.2035  0.3182
17602TIP3   OH274296   1.116   5.970   0.908  0.3068 -0.5002 -0.4416
17602TIP3    H174297   1.205   5.969   0.943 -0.4169 -0.2865  1.5323
17602TIP3    H274298   1.077   5.889   0.938 -0.2635 -0.4694 -1.0710
17603TIP3   OH274299   0.992   4.470   5.145 -0.1266  0.2886 -0.1453
17603TIP3    H174300   0.943   4.480   5.063 -0.0613  0.9981 -0.1037
17603TIP3    H274301   0.926   4.485   5.213 -0.1564 -0.1918 -0.0648
17604TIP3   OH274302   2.759   3.658   2.502  0.0649 -0.3753 -0.1471
17604TIP3    H174303   2.691   3.591   2.487 -1.0083  0.1836  1.8841
17604TIP3    H274304   2.840   3.608   2.510 -0.4667 -1.2817 -0.2828
17605TIP3   OH274305   6.022   2.109  14.765  0.6795  0.0619  0.0944
17605TIP3    H174306   5.988   2.070  14.845  1.4270 -0.0602  0.3579
17605TIP3    H274307   6.093   2.167  14.794  0.1051  1.0239 -0.3584
17606TIP3   OH274308   3.374   4.058   5.224 -0.1252 -0.2567 -0.5237
17606TIP3    H174309   3.294   4.007   5.236 -1.3284  1.6333 -0.1148
17606TIP3    H274310   3.356   4.142   5.265  1.8861  0.4321 -0.9088
17607TIP3   OH274311   3.287   2.515  16.577 -0.1206 -0.6145 -0.3257
17607TIP3    H174312   3.202   2.471  16.583  0.1697 -1.1489 -0.0960
17607TIP3    H274313   3.266   2.608  16.587 -0.9327 -0.5074 -2.4435
17608TIP3   OH274314   6.621   0.001  15.046  0.0874  0.4613 -0.0244
17608TIP3    H174315   6.679  -0.075  15.033  0.9198  0.7188  1.8639
17608TIP3    H274316   6.658   0.069  14.990 -0.1007 -0.2026 -0.9967
17609TIP3   OH274317   3.532   1.662   4.226  0.4439  0.2005 -0.5632
17609TIP3    H174318   3.588   1.739   4.225  1.5333 -0.5690 -1.4935
17609TIP3    H274319   3.547   1.619   4.142 -1.1013 -0.3670 -0.5939
17610TIP3   OH274320   0.460   4.470   3.818  0.1913  0.0851  0.3362
17610TIP3    H174321   0.385   4.421   3.851  0.5371  0.5764  1.9893
17610TIP3    H274322   0.475   4.436   3.730 -1.7129 -0.2868  0.1258
17611TIP3   OH274323   3.134   2.139  16.398 -0.8949  0.1026  0.0866
17611TIP3    H174324   3.134   2.235  16.404 -1.2508  0.0093  3.0640
17611TIP3    H274325   3.142   2.121  16.304  1.8157  3.0055 -0.4039
17612TIP3   OH274326   0.282   5.459   6.095  0.0389 -0.7339  0.3999
17612TIP3    H174327   0.291   5.409   6.176  0.3450 -0.5080  0.5099
17612TIP3    H274328   0.238   5.540   6.121  1.6596  0.1055  0.6767
17613TIP3   OH274329   0.674   2.431   3.004 -0.2090 -0.7025 -0.6500
17613TIP3    H174330   0.715   2.466   2.925 -0.4629 -0.1356 -0.5382
17613TIP3    H274331   0.683   2.501   3.068 -1.0388 -0.7022 -0.5253
17614TIP3   OH274332   4.819   2.166  11.125  0.9525  0.5388 -0.2035
17614TIP3    H174333   4.795   2.251  11.161  1.8574  1.1628 -0.9959
17614TIP3    H274334   4.737   2.130  11.091  0.5879  1.1843 -0.0283
17615TIP3   OH274335   0.432   4.217  16.125  0.1005  0.3949 -0.9473
17615TIP3    H174336   0.513   4.236  16.172 -0.5753  0.2367  0.3248
17615TIP3    H274337   0.456   4.149  16.062  0.7127 -0.5004  0.2208
17616TIP3   OH274338   2.922   4.219  13.547  0.9527  0.3285 -0.0542
17616TIP3    H174339   2.945   4.151  13.611 -0.0758 -0.7900 -0.8236
17616TIP3    H274340   3.000   4.228  13.492  1.2751  0.1345  0.3609
17617TIP3   OH274341   5.967   2.623  13.384  1.0895 -0.7236 -0.1153
17617TIP3    H174342   6.020   2.678  13.441 -0.3053  1.0713 -0.4384
17617TIP3    H274343   5.950   2.544  13.435 -0.6819  1.0863  2.3478
17618TIP3   OH274344   2.463   2.374   0.966  0.4080 -0.0178 -0.5994
17618TIP3    H174345   2.500   2.431   1.033  1.5869  0.1587 -1.3500
17618TIP3    H274346   2.538   2.324   0.934 -0.1002 -0.0250 -1.8395
17619TIP3   OH274347   0.812   3.064   5.905 -0.4621  0.3145  0.4345
17619TIP3    H174348   0.798   3.060   5.999 -0.1122  1.7495  0.5742
17619TIP3    H274349   0.776   3.149   5.879 -0.9873 -0.2636 -0.8064
17620TIP3   OH274350   4.339   4.986   3.499  0.1554  0.6716  0.1588
17620TIP3    H174351   4.281   4.953   3.431  0.2304 -0.1397  0.4781
17620TIP3    H274352   4.292   4.969   3.581  1.1710 -0.7911  0.4855
17621TIP3   OH274353   6.043   3.618  12.603  0.9691  0.1119 -0.2153
17621TIP3    H174354   5.986   3.583  12.672  0.5651  0.1855 -0.5090
17621TIP3    H274355   6.121   3.562  12.605 -0.3497 -1.9364 -1.8076
17622TIP3   OH274356   2.213   6.739   3.302 -0.6169  0.4902  0.4508
17622TIP3    H174357   2.224   6.654   3.344 -0.9892  0.2645  0.0932
17622TIP3    H274358   2.228   6.803   3.372 -1.1702  0.1189  0.9089
17623TIP3   OH274359   2.003   0.175   0.623 -0.1015 -0.5299  0.1186
17623TIP3    H174360   2.049   0.178   0.539 -3.4435 -2.0214 -1.9672
17623TIP3    H274361   1.980   0.266   0.641  0.8939 -0.1635 -0.3901
17624TIP3   OH274362   4.919   4.526  14.252 -0.2415 -0.2530  0.4423
17624TIP3    H174363   4.838   4.567  14.224  1.3519  1.4601 -2.0486
17624TIP3    H274364   4.924   4.544  14.346 -1.3888  2.0572  0.1125
17625TIP3   OH274365   4.440   6.681   1.570 -0.6274  0.0856  0.0818
17625TIP3    H174366   4.355   6.717   1.596 -0.0933  0.5458  1.3081
17625TIP3    H274367   4.482   6.752   1.521 -1.0206 -0.2089 -0.6834
17626TIP3   OH274368   6.495   0.239   0.830 -0.0989 -0.1748 -0.3198
17626TIP3    H174369   6.448   0.292   0.766  1.9764  1.8210 -0.2960
17626TIP3    H274370   6.483   0.285   0.913 -0.7321 -1.4249  0.3184
17627TIP3   OH274371   0.646   5.449   1.369  0.8249  0.4260 -0.3279
17627TIP3    H174372   0.610   5.421   1.453  0.2665 -0.8124 -0.9605
17627TIP3    H274373   0.664   5.542   1.380  1.8090  0.0633  1.5316
17628TIP3   OH274374   5.000   3.608  10.957 -0.3076 -0.1547 -0.7233
17628TIP3    H174375   5.011   3.579  10.867  0.3863 -2.0769 -0.0856
17628TIP3    H274376   5.086   3.593  10.998 -0.7482  0.1920  0.3830
17629TIP3   OH274377   5.795   1.835   5.540 -0.1873 -0.4322 -0.2149
17629TIP3    H174378   5.799   1.927   5.567  0.3923  0.3709 -2.7613
17629TIP3    H274379   5.877   1.820   5.493 -0.1635 -2.3562  0.3390
17630TIP3   OH274380   2.429   1.970   6.111  0.1927  0.0605 -0.8661
17630TIP3    H174381   2.336   1.990   6.095 -0.7895 -2.6680  0.6682
17630TIP3    H274382   2.442   1.885   6.069  1.8391  0.0573 -0.4120
17631TIP3   OH274383   0.463   4.087   0.419  0.3269  0.1493  0.3718
17631TIP3    H174384   0.438   4.077   0.327 -0.1526  2.2782  0.2335
17631TIP3    H274385   0.559   4.076   0.419  0.5769  1.8865 -0.7062
17632TIP3   OH274386   0.599   4.678  16.157  0.3555 -0.0605  0.1984
17632TIP3    H174387   0.531   4.698  16.221 -0.2784 -0.1222 -0.4436
17632TIP3    H274388   0.648   4.760  16.149  0.4384 -0.0530  0.7574
17633TIP3   OH274389   5.268   0.126   0.406 -0.1043  0.3118 -0.3123
17633TIP3    H174390   5.359   0.108   0.381  0.9448  1.6255  2.2058
17633TIP3    H274391   5.233   0.039   0.428  0.5558 -0.2086 -1.2308
17634TIP3   OH274392   0.222   5.638  11.452  0.3249  0.1438  0.5163
17634TIP3    H174393   0.235   5.611  11.361  1.1396 -0.8456  0.9054
17634TIP3    H274394   0.253   5.563  11.503 -2.4863 -0.3903  1.6071
17635TIP3   OH274395   2.631   0.230   2.157  0.6013 -0.2640  0.3100
17635TIP3    H174396   2.635   0.208   2.064  2.2346 -0.5558  0.4159
17635TIP3    H274397   2.660   0.321   2.162  2.2311 -0.7628  0.6575
17636TIP3   OH274398   1.536   6.190   3.138  0.4563  0.3723 -0.5061
17636TIP3    H174399   1.449   6.220   3.163  0.6947 -0.1519  1.0419
17636TIP3    H274400   1.540   6.099   3.169  1.0151 -0.1327 -1.9510
17637TIP3   OH274401   0.827   2.403   5.881 -0.1425 -0.3645  0.1362
17637TIP3    H174402   0.852   2.321   5.840  1.4512 -0.8673  1.9485
17637TIP3    H274403   0.902   2.461   5.866 -0.2613 -0.0149  0.8507
17638TIP3   OH274404   3.739   0.339  15.827 -0.4653  0.1856 -0.4233
17638TIP3    H174405   3.711   0.428  15.806 -0.8495  0.0382 -0.5348
17638TIP3    H274406   3.685   0.314  15.902 -1.2753 -0.4281 -1.1943
17639TIP3   OH274407   6.576   3.371   5.220 -0.0916  0.4726  0.0042
17639TIP3    H174408   6.520   3.415   5.156  0.1760 -0.0997 -0.6367
17639TIP3    H274409   6.541   3.282   5.226 -0.3883  0.6463  0.9919
17640TIP3   OH274410   4.800   3.623   1.153 -0.0785 -0.3043  0.1651
17640TIP3    H174411   4.749   3.548   1.184 -0.9601  0.5890  0.9165
17640TIP3    H274412   4.807   3.610   1.059  1.0675 -2.1098  0.4603
17641TIP3   OH274413   3.117   5.499   0.362 -0.0317 -0.4941 -0.2287
17641TIP3    H174414   3.106   5.409   0.395  2.5631 -0.2262  1.7323
17641TIP3    H274415   3.181   5.490   0.291  0.5847 -0.1677  0.2795
17642TIP3   OH274416   4.035   4.961   5.254  0.2046 -0.0867 -0.6014
17642TIP3    H174417   4.118   4.994   5.289  0.0856  0.9913 -1.2761
17642TIP3    H274418   4.027   5.003   5.169 -2.0740  1.6439  0.3593
17643TIP3   OH274419   4.231   2.956  10.347 -0.3745  0.1231 -0.1713
17643TIP3    H174420   4.141   2.967  10.316  0.1676 -0.7398 -2.2534
17643TIP3    H274421   4.249   2.863  10.334  1.4571  0.6490 -1.8157
17644TIP3   OH274422   5.300   6.024  10.714  0.1484 -0.6750 -0.0853
17644TIP3    H174423   5.267   5.935  10.717 -0.8872 -0.3469 -1.0435
17644TIP3    H274424   5.369   6.022  10.647 -0.1736 -0.6633 -0.4167
17645TIP3   OH274425   0.190   4.222   0.683 -0.6007  0.1285  0.0695
17645TIP3    H174426   0.117   4.282   0.696 -0.1766  0.8129 -0.5745
17645TIP3    H274427   0.187   4.163   0.758 -0.9388  1.0539  0.8041
17646TIP3   OH274428   3.466   6.630   5.981 -0.0889  0.1711 -0.4514
17646TIP3    H174429   3.374   6.658   5.981  0.2202  1.2955  0.6931
17646TIP3    H274430   3.515   6.712   5.973  0.8223 -0.2069  0.9163
17647TIP3   OH274431   4.666   5.306   1.547 -0.0623 -0.0908  0.3923
17647TIP3    H174432   4.598   5.266   1.600  1.1019 -3.1406 -0.2259
17647TIP3    H274433   4.745   5.301   1.601  0.1124  1.6814  0.3722
17648TIP3   OH274434   6.812   3.832  15.486 -0.1648 -0.0545 -0.3991
17648TIP3    H174435   6.901   3.861  15.507 -0.4175  0.0626  0.5911
17648TIP3    H274436   6.773   3.907  15.442 -0.9054  1.3394  2.4004
17649TIP3   OH274437   5.364   6.633   1.286 -0.1293 -0.1839 -0.4899
17649TIP3    H174438   5.434   6.585   1.330  0.2062  0.2447 -0.5434
17649TIP3    H274439   5.376   6.723   1.315 -0.1194  0.0448 -1.1848
17650TIP3   OH274440   0.259   0.781  14.058 -0.2781 -0.2277 -0.0823
17650TIP3    H174441   0.306   0.864  14.054 -0.0925 -0.3194  0.2002
17650TIP3    H274442   0.170   0.805  14.082  0.0675 -0.2088  1.2778
17651TIP3   OH274443   0.113   2.623   4.076 -0.4804 -0.3548  0.1879
17651TIP3    H174444   0.191   2.660   4.115 -1.1309  0.1591  1.0289
17651TIP3    H274445   0.056   2.603   4.150 -0.6531 -1.8999 -0.3206
17652TIP3   OH274446   3.973   5.551  10.511  0.2269 -0.0257 -0.3220
17652TIP3    H174447   4.009   5.499  10.583 -0.2322  0.5370  0.3231
17652TIP3    H274448   4.029   5.629  10.507  1.7515 -1.0989 -2.1418
17653TIP3   OH274449   4.996   4.625   4.072  0.0555  0.3771  0.6602
17653TIP3    H174450   4.934   4.692   4.100 -0.0297 -0.2050  1.9266
17653TIP3    H274451   4.971   4.606   3.981 -1.5730  0.2202  1.1120
17654TIP3   OH274452   6.094   0.729  15.572 -0.3434  0.1096  0.4004
17654TIP3    H174453   6.112   0.676  15.495  1.6143 -1.1159  1.6166
17654TIP3    H274454   6.032   0.677  15.623 -0.7767  0.4135  0.1929
17655TIP3   OH274455   2.678   5.105   3.191  0.5207  0.5119  0.1134
17655TIP3    H174456   2.660   5.130   3.282 -1.8105  0.0835 -0.1583
17655TIP3    H274457   2.594   5.116   3.147  1.6911  1.1061 -2.1207
17656TIP3   OH274458   3.306   0.102  13.535 -0.1438 -0.2256 -0.1070
17656TIP3    H174459   3.337   0.168  13.473 -0.3422 -1.6155 -1.7681
17656TIP3    H274460   3.383   0.081  13.588  0.0550  0.9187  0.0977
17657TIP3   OH274461   3.313   0.689   4.067  0.1153 -0.1858 -0.1885
17657TIP3    H174462   3.369   0.766   4.059 -0.0235 -0.2092 -1.6997
17657TIP3    H274463   3.370   0.615   4.045 -0.2529 -0.3030 -0.7772
17658TIP3   OH274464   2.171   5.529   4.922 -0.3738  0.1294 -0.2692
17658TIP3    H174465   2.182   5.451   4.977  1.2227 -1.0922 -2.2120
17658TIP3    H274466   2.259   5.565   4.913 -1.0908  2.3457  0.7049
17659TIP3   OH274467   2.475   2.540   0.283  0.3238  0.5109  0.1036
17659TIP3    H174468   2.558   2.589   0.287  0.7990 -0.2918  0.3797
17659TIP3    H274469   2.413   2.593   0.332  0.5823  1.3095 -0.4263
17660TIP3   OH274470   2.524   4.466   5.689  0.1384  0.1403  0.0559
17660TIP3    H174471   2.499   4.419   5.769 -1.0843 -0.6256 -0.7346
17660TIP3    H274472   2.512   4.402   5.619  0.9773  0.8654 -0.7678
17661TIP3   OH274473   1.871   4.082   6.400  0.1513 -0.2733 -0.4004
17661TIP3    H174474   1.920   4.001   6.413  0.9167 -0.0285 -1.6497
17661TIP3    H274475   1.915   4.146   6.457  0.9997 -0.1766 -1.1474
17662TIP3   OH274476   3.356   0.840   3.137  0.5366 -0.3048  0.2230
17662TIP3    H174477   3.369   0.746   3.143  0.9741 -0.2452  0.2372
17662TIP3    H274478   3.363   0.871   3.228 -3.1064 -0.6794  0.7870
17663TIP3   OH274479   2.813   6.168  12.669  0.3889  0.1210  0.1057
17663TIP3    H174480   2.875   6.161  12.596 -1.3970 -0.0463 -1.4747
17663TIP3    H274481   2.833   6.092  12.723  1.3991 -0.0716 -0.5012
17664TIP3   OH274482   4.571   4.045  11.251 -0.2774 -0.5922 -0.0191
17664TIP3    H174483   4.486   4.042  11.295  0.0052 -0.8030  0.5219
17664TIP3    H274484   4.634   4.054  11.322  0.1565 -0.4853 -0.4154
17665TIP3   OH274485   4.780   4.975  12.102 -0.3380  0.3422  0.2643
17665TIP3    H174486   4.845   4.910  12.075 -1.2105 -0.4609  0.0776
17665TIP3    H274487   4.795   5.049  12.042  0.0787 -0.0262 -0.0954
17666TIP3   OH274488   2.307   0.372  17.000  0.5620  0.5053  0.3323
17666TIP3    H174489   2.346   0.458  16.986  0.1419  0.3268 -2.6120
17666TIP3    H274490   2.274   0.346  16.914 -0.2963 -2.1406  1.3441
17667TIP3   OH274491   3.887   2.863   2.968 -0.1481  0.0613  0.3136
17667TIP3    H174492   3.812   2.901   3.013 -0.8529  0.0572 -0.8240
17667TIP3    H274493   3.881   2.769   2.986 -1.3642 -0.1564 -1.0921
17668TIP3   OH274494   1.828   5.769   1.972 -0.0437  0.0291 -0.3964
17668TIP3    H174495   1.871   5.695   1.929  0.3546  0.5828 -0.9572
17668TIP3    H274496   1.838   5.842   1.911  2.5023  1.4441  1.5425
17669TIP3   OH274497   2.875   2.803   1.543 -0.4817  0.0308  0.3538
17669TIP3    H174498   2.801   2.860   1.564 -0.2881 -0.0083  1.1657
17669TIP3    H274499   2.873   2.735   1.610  1.1157  0.8168  1.2491
17670TIP3   OH274500   4.826   6.663   6.086 -0.1700  0.1328 -0.3316
17670TIP3    H174501   4.893   6.683   6.150  0.4107 -3.1594  0.3033
17670TIP3    H274502   4.745   6.697   6.123  0.5715  0.7072  0.7975
17671TIP3   OH274503   1.096   6.419   1.200  1.1642 -0.0657  0.1618
17671TIP3    H174504   1.056   6.395   1.117  1.4574 -0.3063  0.0856
17671TIP3    H274505   1.181   6.456   1.177 -0.1953  3.3148  0.1157
17672TIP3   OH274506   1.366   4.753  16.956 -0.0999  0.6368 -0.0679
17672TIP3    H174507   1.441   4.813  16.958 -1.3853  2.2597  1.3898
17672TIP3    H274508   1.304   4.794  16.896 -0.8477  0.5799  0.6621
17673TIP3   OH274509   2.267   6.199   1.873 -0.5226  0.6160  0.2995
17673TIP3    H174510   2.245   6.106   1.874  0.8583  0.2432  2.3710
17673TIP3    H274511   2.280   6.219   1.780 -0.6731 -1.2882 -0.1861
17674TIP3   OH274512   0.308   3.601  17.099 -0.3792  0.4431 -0.0384
17674TIP3    H174513   0.284   3.598  17.192 -1.2157  0.7628 -0.2352
17674TIP3    H274514   0.363   3.523  17.087  1.0298  1.2014  1.0481
17675TIP3   OH274515   2.726   1.780   4.834 -0.6417 -0.4436 -0.0797
17675TIP3    H174516   2.753   1.822   4.753 -1.2456  0.4471  0.1661
17675TIP3    H274517   2.643   1.823   4.857 -0.5854 -0.8314  0.8953
17676TIP3   OH274518   1.412   3.363  16.394  0.4027  0.5596 -0.0685
17676TIP3    H174519   1.406   3.339  16.301  1.3472 -0.2676  0.0723
17676TIP3    H274520   1.323   3.388  16.418  0.1566  0.8435 -1.2116
17677TIP3   OH274521   5.955   3.700  11.339  0.4314 -0.0485 -0.0909
17677TIP3    H174522   5.965   3.622  11.393  1.3020  0.3513  0.3352
17677TIP3    H274523   6.016   3.764  11.376 -1.3830  1.3955  0.5652
17678TIP3   OH274524   1.357   1.551  14.947 -0.2754  0.0836  0.0087
17678TIP3    H174525   1.435   1.513  14.987 -1.0882  0.0932  1.6544
17678TIP3    H274526   1.342   1.498  14.869  1.6988  0.4438 -0.6716
17679TIP3   OH274527   3.970   5.039  15.327 -0.4488  0.1858  0.9420
17679TIP3    H174528   4.064   5.025  15.316 -0.6110 -1.2547  1.1819
17679TIP3    H274529   3.939   5.062  15.239  0.1123  0.5899  0.8469
17680TIP3   OH274530   6.340   6.128   4.865 -0.4988 -0.5670  0.1705
17680TIP3    H174531   6.323   6.214   4.826  2.6411  0.2569  0.3982
17680TIP3    H274532   6.328   6.141   4.959  0.8174 -0.1254  0.2857
17681TIP3   OH274533   0.131   2.002   1.280  0.5113 -0.3961  0.0902
17681TIP3    H174534   0.091   2.073   1.230  3.2537  0.4451 -1.1054
17681TIP3    H274535   0.091   1.923   1.245 -0.1118  0.3832 -1.0372
17682TIP3   OH274536   6.112   5.548  11.770  0.2751 -0.2842 -0.5914
17682TIP3    H174537   6.189   5.537  11.826  0.3313  0.7142 -0.4473
17682TIP3    H274538   6.146   5.541  11.681  0.8817  1.8861 -0.5867
17683TIP3   OH274539   3.914   2.582  14.312  0.2225 -0.0689  0.6796
17683TIP3    H174540   3.938   2.492  14.334  1.7861  0.4621  1.3470
17683TIP3    H274541   3.931   2.590  14.218 -0.9972 -0.7690  0.3912
17684TIP3   OH274542   3.339   5.029   5.321  0.1960  0.4309  0.3378
17684TIP3    H174543   3.424   5.069   5.303  0.4254 -0.5211 -0.8018
17684TIP3    H274544   3.291   5.095   5.370  0.4197  2.2589 -1.7843
17685TIP3   OH274545   0.948   1.794  12.384  0.2758  0.0162  0.2292
17685TIP3    H174546   1.000   1.793  12.464  1.2002  2.4333 -0.2439
17685TIP3    H274547   1.002   1.749  12.320  0.1797 -0.6372  0.6008
17686TIP3   OH274548   2.460   4.103   2.558  0.2480 -0.7494 -0.2711
17686TIP3    H174549   2.539   4.155   2.572 -0.7122  1.2150 -1.6532
17686TIP3    H274550   2.432   4.077   2.646  1.2826  0.3127  0.3882
17687TIP3   OH274551   5.674   1.644   0.812  0.0998  0.1313 -0.0238
17687TIP3    H174552   5.612   1.713   0.789  1.0561  0.8648 -0.4407
17687TIP3    H274553   5.675   1.645   0.908  0.0334  0.6361 -0.0237
17688TIP3   OH274554   2.836   4.201   6.350  0.1168  0.4447 -0.4240
17688TIP3    H174555   2.745   4.219   6.371  0.2353  1.1441 -0.4782
17688TIP3    H274556   2.886   4.248   6.417  0.4679  1.5536 -1.4278
17689TIP3   OH274557   1.826   2.322   0.501  0.5210  0.4933  0.6484
17689TIP3    H174558   1.784   2.244   0.539 -0.5583  0.4719 -0.4974
17689TIP3    H274559   1.890   2.349   0.566 -0.0116 -0.5802  1.6645
17690TIP3   OH274560   5.736   3.058   0.747  0.1038 -0.3446  0.3699
17690TIP3    H174561   5.806   2.997   0.726  0.3354 -0.1655  0.6195
17690TIP3    H274562   5.702   3.087   0.662  0.8449  0.1653  0.2412
17691TIP3   OH274563   3.232   4.657   6.481  0.1542  0.1849 -0.2297
17691TIP3    H174564   3.271   4.574   6.453 -0.3916 -0.4221  0.7905
17691TIP3    H274565   3.163   4.673   6.417 -2.2101 -2.0516  1.5572
17692TIP3   OH274566   1.589   1.253   1.646 -0.4827  0.2210  0.3032
17692TIP3    H174567   1.633   1.318   1.592  0.8128 -1.9021 -1.4059
17692TIP3    H274568   1.634   1.256   1.730  0.8012  0.3053 -0.3688
17693TIP3   OH274569   6.395   5.968   6.437  0.0923 -0.3872  0.1816
17693TIP3    H174570   6.335   5.928   6.375  0.9782 -1.3796 -0.0537
17693TIP3    H274571   6.338   6.006   6.505 -0.7997 -1.0750 -0.1672
17694TIP3   OH274572   1.096   0.762   3.561  0.0010 -0.0076 -0.2002
17694TIP3    H174573   1.163   0.742   3.496  0.2594 -0.2065  0.1226
17694TIP3    H274574   1.030   0.693   3.550 -1.0064  1.1415 -1.6663
17695TIP3   OH274575   4.636   6.226   4.262  0.3873 -0.0492  0.3609
17695TIP3    H174576   4.700   6.189   4.201 -1.1503 -0.9986 -0.7508
17695TIP3    H274577   4.679   6.304   4.297  1.0100  1.1439 -2.7047
17696TIP3   OH274578   3.208   5.843   5.862  0.3473  0.0461  0.0343
17696TIP3    H174579   3.165   5.884   5.937  1.5273  0.1568  0.6728
17696TIP3    H274580   3.136   5.804   5.812 -0.5363  0.6126  0.8136
17697TIP3   OH274581   1.862   2.649  16.971 -0.5223  0.2972 -0.3259
17697TIP3    H174582   1.873   2.661  17.065  1.6658  0.9049 -0.6005
17697TIP3    H274583   1.790   2.707  16.948  0.1920  1.6484  0.6957
17698TIP3   OH274584   6.804   3.994  16.559  0.1723  0.1273 -0.0843
17698TIP3    H174585   6.762   4.036  16.483  0.1990  1.7299  0.7425
17698TIP3    H274586   6.760   4.032  16.635  0.5196 -1.0488  0.7330
17699TIP3   OH274587   4.184   4.521  15.684 -0.5836  0.0480 -0.7250
17699TIP3    H174588   4.124   4.447  15.693 -2.1151  1.2963 -0.3925
17699TIP3    H274589   4.149   4.588  15.742  0.6241  1.1525 -1.2227
17700TIP3   OH274590   1.671   2.624  14.408 -0.1817  0.6287  0.0928
17700TIP3    H174591   1.657   2.546  14.354 -1.3895 -0.0131  1.2588
17700TIP3    H274592   1.585   2.666  14.412 -0.3084  0.2951  1.9916
17701TIP3   OH274593   4.052   5.783   3.831 -0.5707 -0.2425 -0.1245
17701TIP3    H174594   4.145   5.764   3.838 -0.4512  0.2022 -0.4485
17701TIP3    H274595   4.028   5.820   3.916 -0.2499  0.4600 -0.3306
17702TIP3   OH274596   0.948   2.464   2.394 -0.4746  0.0862 -0.0320
17702TIP3    H174597   0.969   2.481   2.486 -1.9682  0.4674  0.2613
17702TIP3    H274598   0.921   2.549   2.360  3.0372  0.7089 -1.7468
17703TIP3   OH274599   2.363   6.584  16.356 -0.5066 -0.2950  0.0688
17703TIP3    H174600   2.439   6.545  16.314 -0.5824 -0.1659 -0.1920
17703TIP3    H274601   2.360   6.674  16.322 -1.6076 -0.7186 -1.0647
17704TIP3   OH274602   0.645   5.917  14.804 -0.3912 -0.0629 -0.7400
17704TIP3    H174603   0.600   5.979  14.747 -0.6770  0.8477  0.4328
17704TIP3    H274604   0.639   5.833  14.758 -2.6387  0.1595 -0.9725
17705TIP3   OH274605   0.888   2.397  16.830  0.4398 -0.3258 -0.5756
17705TIP3    H174606   0.903   2.332  16.761  2.4937 -0.7186  0.1489
17705TIP3    H274607   0.969   2.448  16.832  0.1382  0.1408  1.0310
17706TIP3   OH274608   1.994   2.275  12.888  0.0757 -0.3209 -0.2906
17706TIP3    H174609   1.943   2.278  12.969  2.0669 -0.7473  1.0394
17706TIP3    H274610   1.990   2.184  12.860 -0.0668 -0.3067 -0.3178
17707TIP3   OH274611   1.061   1.465   5.259 -0.7761  0.4666 -0.0440
17707TIP3    H174612   1.005   1.506   5.193  0.9480  1.3671 -1.0033
17707TIP3    H274613   1.126   1.416   5.209  0.0303  0.4193  1.0073
17708TIP3   OH274614   6.404   0.389  13.543 -0.4011  0.4893  0.0486
17708TIP3    H174615   6.368   0.462  13.595  0.9957  0.6706  0.8172
17708TIP3    H274616   6.397   0.419  13.453  0.9801  2.0309  0.3918
17709TIP3   OH274617   6.440   0.812   3.150  0.4246 -0.3445 -0.2805
17709TIP3    H174618   6.491   0.886   3.117 -0.5960  0.4766 -0.0663
17709TIP3    H274619   6.476   0.795   3.237 -0.7751  1.3548  0.5791
17710TIP3   OH274620   0.880   3.331   0.884  0.3011  0.1568  0.6573
17710TIP3    H174621   0.852   3.382   0.960 -1.0641  0.8605 -0.2779
17710TIP3    H274622   0.883   3.394   0.812  1.0540 -0.5986 -0.0021
17711TIP3   OH274623   2.308   5.101   4.259 -0.4292 -0.0651  0.3475
17711TIP3    H174624   2.403   5.106   4.249 -0.4609  1.0074  0.4918
17711TIP3    H274625   2.282   5.025   4.207  0.2915  0.7204 -1.2238
17712TIP3   OH274626   6.571   5.150  16.084 -0.1390  0.0916  0.3965
17712TIP3    H174627   6.480   5.160  16.054 -0.2603 -1.2274  0.2458
17712TIP3    H274628   6.591   5.232  16.128 -0.6364  1.3069 -1.5298
17713TIP3   OH274629   0.316   0.154   1.628 -0.3752 -0.1807 -0.2341
17713TIP3    H174630   0.224   0.173   1.642 -0.3602 -0.4103  0.1803
17713TIP3    H274631   0.331   0.070   1.672  0.5526  0.9496  1.7269
17714TIP3   OH274632   4.934   5.779   5.010 -0.6324  0.2840 -0.2244
17714TIP3    H174633   5.003   5.816   5.065 -0.9961 -0.9603  1.1300
17714TIP3    H274634   4.971   5.697   4.977 -0.9372  0.3400 -0.7232
17715TIP3   OH274635   6.252   3.762  13.487 -0.0726  0.8058  0.2562
17715TIP3    H174636   6.169   3.775  13.441 -1.6532 -0.4619  2.5698
17715TIP3    H274637   6.254   3.831  13.553  1.3139  1.5362 -0.5150
17716TIP3   OH274638   2.763   6.583   2.444 -0.0551  0.5265 -0.1262
17716TIP3    H174639   2.738   6.565   2.535 -0.0887 -0.1392 -0.2604
17716TIP3    H274640   2.858   6.574   2.443 -0.1996 -1.3659 -0.5388
17717TIP3   OH274641   3.011   3.977  17.022  0.0487  0.3618 -0.0961
17717TIP3    H174642   3.088   4.005  16.972 -0.3974 -0.9935 -1.6435
17717TIP3    H274643   3.047   3.936  17.101  1.0296 -1.2746 -1.3174
17718TIP3   OH274644   1.786   4.015   4.674  0.3243  0.3786  0.3272
17718TIP3    H174645   1.747   3.943   4.724 -0.1973 -0.5907 -1.3904
17718TIP3    H274646   1.767   4.093   4.726 -0.8744 -0.4880  1.2530
17719TIP3   OH274647   0.788   3.101  11.852  0.4230  0.2560  0.4303
17719TIP3    H174648   0.766   3.011  11.876 -1.8271  0.9131  1.1303
17719TIP3    H274649   0.872   3.095  11.807 -1.0780 -2.5861 -2.3685
17720TIP3   OH274650   1.893   4.694  13.753 -0.0786 -0.4185  0.3822
17720TIP3    H174651   1.984   4.719  13.771  0.5784 -1.5294 -1.1758
17720TIP3    H274652   1.856   4.678  13.840  1.2452 -0.0679  1.0502
17721TIP3   OH274653   5.979   3.101  15.968 -0.3314  0.1215  0.3325
17721TIP3    H174654   5.976   3.005  15.973 -1.3366  0.1377  0.1822
17721TIP3    H274655   6.008   3.119  15.878  2.7196 -0.0322  1.1703
17722TIP3   OH274656   0.428   6.562  13.191 -0.3825  0.1832 -0.1323
17722TIP3    H174657   0.337   6.590  13.183 -0.2660  0.4173 -0.6380
17722TIP3    H274658   0.476   6.642  13.213 -0.2273  0.1484 -0.3491
17723TIP3   OH274659   0.652   2.350  14.166 -0.0567 -0.0603  0.2787
17723TIP3    H174660   0.694   2.415  14.110 -2.1683  1.6270  0.5029
17723TIP3    H274661   0.579   2.316  14.113 -0.9387  0.1688  1.3088
17724TIP3   OH274662   1.981   2.870   1.106 -0.4009  0.4615 -0.0669
17724TIP3    H174663   1.890   2.869   1.079 -0.5803 -0.4696  0.5228
17724TIP3    H274664   1.992   2.790   1.158  1.1688 -0.3348 -1.5165
17725TIP3   OH274665   3.066   3.137   4.076  0.7945  0.1773 -0.1105
17725TIP3    H174666   3.034   3.164   3.990 -0.2547  1.0840  0.5437
17725TIP3    H274667   3.116   3.212   4.107 -1.7584  1.2981  1.5323
17726TIP3   OH274668   0.390   3.337  16.385 -0.2956 -0.1997  0.2516
17726TIP3    H174669   0.387   3.430  16.409 -1.3558 -0.0605 -0.3638
17726TIP3    H274670   0.347   3.293  16.459  0.0573 -0.1916  0.4665
17727TIP3   OH274671   3.440   1.764   0.692  0.0326 -0.6272  0.2039
17727TIP3    H174672   3.481   1.695   0.641  0.0547 -0.6516  0.2552
17727TIP3    H274673   3.427   1.727   0.779  0.8609 -0.2720  0.4877
17728TIP3   OH274674   1.868   4.335  16.239 -0.0348  0.0208  0.0254
17728TIP3    H174675   1.839   4.252  16.202 -0.4367  1.2388 -2.6399
17728TIP3    H274676   1.863   4.322  16.333 -2.3307 -2.2322 -0.2862
17729TIP3   OH274677   1.577   3.002   0.139 -0.4284  0.2969  0.0061
17729TIP3    H174678   1.591   3.096   0.127  0.6616  0.0324 -0.9684
17729TIP3    H274679   1.665   2.965   0.143 -0.8151 -0.8648 -1.3404
17730TIP3   OH274680   4.953   2.926  16.674  0.7345  0.3184 -0.2751
17730TIP3    H174681   5.015   2.855  16.658 -0.1408 -0.0032 -2.6532
17730TIP3    H274682   4.983   2.998  16.618 -0.6129  0.3728 -0.9860
17731TIP3   OH274683   1.943   1.097  13.931  0.4035  0.1415  0.1732
17731TIP3    H174684   2.018   1.119  13.987 -0.9236  2.2808  1.2690
17731TIP3    H274685   1.901   1.023  13.976  1.6468 -0.8983 -0.3069
17732TIP3   OH274686   5.078   2.085   1.703  0.0571 -0.1675 -0.3297
17732TIP3    H174687   4.985   2.095   1.683  0.3361  2.8300 -0.5204
17732TIP3    H274688   5.081   2.068   1.797 -0.6551 -0.0141 -0.2776
17733TIP3   OH274689   1.425   1.503  13.465 -0.2166  0.4539  0.0879
17733TIP3    H174690   1.448   1.577  13.521 -0.6648  0.0712  0.7972
17733TIP3    H274691   1.357   1.456  13.514  0.7753 -1.0042  0.1418
17734TIP3   OH274692   1.893   3.983   0.598 -1.2057  0.1998 -0.2727
17734TIP3    H174693   1.934   4.030   0.670 -1.9465  1.2513 -0.5187
17734TIP3    H274694   1.854   3.906   0.638 -0.0208 -0.2041  0.1429
17735TIP3   OH274695   4.276   0.175  14.606  0.1534 -0.4511  0.4493
17735TIP3    H174696   4.278   0.155  14.512 -1.5834  0.0882  0.2638
17735TIP3    H274697   4.341   0.116  14.644  0.9299 -0.6388 -1.0918
17736TIP3   OH274698   6.484   1.629   5.468 -0.6273 -0.2148  0.3994
17736TIP3    H174699   6.522   1.549   5.503  1.6000  0.2312 -0.8171
17736TIP3    H274700   6.559   1.681   5.438 -2.1261  1.2571 -1.0710
17737TIP3   OH274701   1.092   2.264  13.455  0.4209  0.7017 -0.1695
17737TIP3    H174702   1.183   2.277  13.426  0.8275 -0.4240  0.4995
17737TIP3    H274703   1.055   2.352  13.460  1.1967  1.1249 -1.3070
17738TIP3   OH274704   3.989   6.272  16.060  0.0326 -0.6026 -0.2843
17738TIP3    H174705   4.002   6.333  16.132  0.2461 -0.0920 -0.7501
17738TIP3    H274706   4.019   6.187  16.095 -1.1468 -0.6450  0.6667
17739TIP3   OH274707   2.005   2.061  16.241  0.0291 -0.0246  0.4212
17739TIP3    H174708   1.915   2.057  16.207 -0.2004 -1.0214  1.1010
17739TIP3    H274709   2.017   1.978  16.287  0.4269  1.1248  2.5298
17740TIP3   OH274710   1.347   5.233   2.597 -0.1588  0.3664  0.4015
17740TIP3    H174711   1.333   5.323   2.627 -0.2049  0.0122  1.5077
17740TIP3    H274712   1.275   5.184   2.638 -2.3094  0.3582 -3.0007
17741TIP3   OH274713   1.431   2.000  11.628 -0.2923 -0.4017 -0.0957
17741TIP3    H174714   1.351   1.964  11.666 -0.0115 -0.9354 -0.0055
17741TIP3    H274715   1.420   1.988  11.533 -0.9913  0.9291 -0.2152
17742TIP3   OH274716   4.253   3.650  17.084  0.5133  0.2356 -0.2332
17742TIP3    H174717   4.251   3.583  17.152 -0.7201 -0.2699 -0.7458
17742TIP3    H274718   4.171   3.698  17.095  1.5728  1.9769  0.4142
17743TIP3   OH274719   5.996   3.973   6.010 -0.2404 -0.5835  0.1743
17743TIP3    H174720   5.995   4.052   5.955 -0.1730  0.8156  2.0600
17743TIP3    H274721   6.052   3.911   5.963  1.0733  1.1076 -0.6113
17744TIP3   OH274722   0.718   1.440  11.938 -0.2130 -0.1508  0.4036
17744TIP3    H174723   0.725   1.390  11.856 -1.0164  0.3786 -0.0054
17744TIP3    H274724   0.805   1.437  11.976  0.1221 -0.5785 -0.3768
17745TIP3   OH274725   4.940   4.914  13.951 -0.3405 -0.6648  0.3964
17745TIP3    H174726   4.953   4.965  13.871 -1.3854 -0.3794  0.3923
17745TIP3    H274727   4.918   4.826  13.919  1.1613 -1.0650  0.4006
17746TIP3   OH274728   0.820   0.452  15.592  0.0366 -0.0209 -0.5022
17746TIP3    H174729   0.791   0.447  15.683  1.1405 -1.5618 -0.1970
17746TIP3    H274730   0.912   0.426  15.595  0.1558  0.1405 -2.0427
17747TIP3   OH274731   4.699   6.559  14.174 -0.2019  0.3387 -0.0839
17747TIP3    H174732   4.621   6.587  14.125  0.4001  0.7823 -0.7945
17747TIP3    H274733   4.704   6.620  14.248  1.8397  3.1146 -2.2961
17748TIP3   OH274734   5.139   6.789   2.886  0.2720  0.1459 -0.3651
17748TIP3    H174735   5.201   6.767   2.955  0.6572  1.7451 -0.1556
17748TIP3    H274736   5.178   6.753   2.806  1.5849  1.2549 -0.2667
17749TIP3   OH274737   0.227   0.104   0.448 -0.5133  0.2797  0.0407
17749TIP3    H174738   0.308   0.059   0.423 -0.0404  1.1661 -0.0641
17749TIP3    H274739   0.256   0.187   0.486 -1.3733  0.6061  0.0165
17750TIP3   OH274740   4.357   2.093   0.971  0.0737 -0.0906  0.4829
17750TIP3    H174741   4.333   2.075   0.880 -1.3473 -0.2831  0.8805
17750TIP3    H274742   4.358   2.008   1.013 -0.8490  0.1490  1.0068
17751TIP3   OH274743   2.357   6.613  17.036 -0.3019 -0.4255  0.2587
17751TIP3    H174744   2.355   6.668  17.114 -1.4625  1.3523 -0.9486
17751TIP3    H274745   2.280   6.557  17.044 -1.0155  0.4837 -0.0818
17752TIP3   OH274746   6.192   6.581  12.116  0.4772 -0.0513  0.3794
17752TIP3    H174747   6.129   6.524  12.161 -0.7499  1.7864  1.0683
17752TIP3    H274748   6.267   6.586  12.176  0.0061  0.1790  0.9584
17753TIP3   OH274749   0.193   4.124  11.076 -0.2803 -0.1725  0.1369
17753TIP3    H174750   0.136   4.051  11.100  0.5979 -0.7892  0.3975
17753TIP3    H274751   0.266   4.083  11.030  0.4505  0.4933  0.6769
17754TIP3   OH274752   3.371   5.931   0.313  0.0282  0.0896 -0.4087
17754TIP3    H174753   3.298   5.869   0.319 -1.7880  2.2122  0.7534
17754TIP3    H274754   3.432   5.904   0.382 -0.8925 -0.2235  0.2969
17755TIP3   OH274755   6.230   6.777  14.413 -0.3875  0.0112 -0.0064
17755TIP3    H174756   6.272   6.832  14.347  0.2842 -0.3065  0.1535
17755TIP3    H274757   6.208   6.697  14.365 -0.6065  0.0821 -0.0289
17756TIP3   OH274758   2.111   2.413   2.422  0.0143 -0.4185  0.3250
17756TIP3    H174759   2.198   2.385   2.450  0.9651 -0.4657 -2.4782
17756TIP3    H274760   2.051   2.370   2.484  1.8864 -1.5114  1.4509
17757TIP3   OH274761   1.631   0.724   4.226  0.2552  0.9415  0.4291
17757TIP3    H174762   1.616   0.663   4.299  0.7247  1.3499  0.8690
17757TIP3    H274763   1.697   0.785   4.259  0.9975  0.7035 -0.5900
17758TIP3   OH274764   0.152   5.317  11.852 -0.5604 -0.1224  0.0040
17758TIP3    H174765   0.060   5.292  11.844 -0.6065  0.0079  0.1105
17758TIP3    H274766   0.150   5.413  11.859 -0.4341 -0.1356  0.2321
17759TIP3   OH274767   3.614   0.390  14.859  0.0964 -0.0445  0.4036
17759TIP3    H174768   3.668   0.413  14.935  0.6514 -0.0357  0.0152
17759TIP3    H274769   3.568   0.471  14.837 -2.2653 -0.7077  2.4247
17760TIP3   OH274770   6.673   5.432   6.142  0.0822  0.2926 -0.5073
17760TIP3    H174771   6.726   5.432   6.062 -1.4074  0.9878 -1.5457
17760TIP3    H274772   6.691   5.516   6.183 -1.4729  1.3216 -1.7942
17761TIP3   OH274773   2.065   1.187   3.089 -0.0372 -0.0840  0.0848
17761TIP3    H174774   2.053   1.104   3.135 -1.0790 -0.2397 -0.4423
17761TIP3    H274775   2.159   1.195   3.078  0.1287 -0.7658  0.9259
17762TIP3   OH274776   3.292   5.428  11.257 -0.2186  0.4755 -0.0083
17762TIP3    H174777   3.354   5.492  11.221  0.7460 -0.7735 -0.6376
17762TIP3    H274778   3.313   5.424  11.350  0.0967  0.6611 -0.0696
17763TIP3   OH274779   0.833   5.131   6.482  0.1564 -0.4036 -0.3591
17763TIP3    H174780   0.762   5.106   6.541  1.1871 -0.5013  0.8648
17763TIP3    H274781   0.882   5.051   6.468  0.0297 -0.3404 -1.2157
17764TIP3   OH274782   2.824   6.644   4.326 -0.2863 -0.4446  0.0247
17764TIP3    H174783   2.901   6.630   4.381 -2.2268  0.1549  3.1976
17764TIP3    H274784   2.815   6.739   4.322 -0.2232 -0.4769 -1.3916
17765TIP3   OH274785   3.305   1.473  12.045 -0.1883 -0.3003 -0.7500
17765TIP3    H174786   3.374   1.435  12.100 -1.6705 -1.4806  0.3842
17765TIP3    H274787   3.242   1.509  12.108 -0.6556  0.7286 -1.7682
17766TIP3   OH274788   2.814   0.447  12.390 -0.7083  0.1980 -0.0883
17766TIP3    H174789   2.908   0.455  12.374 -0.3371  0.3284  1.9056
17766TIP3    H274790   2.807   0.375  12.453 -1.9356  0.3614 -0.0210
17767TIP3   OH274791   0.072   6.494   0.508 -0.1389  0.3367 -0.2003
17767TIP3    H174792   0.122   6.521   0.431  0.0945  0.4508 -0.0123
17767TIP3    H274793   0.126   6.522   0.582  0.1139 -0.6232  0.0031
17768TIP3   OH274794   3.497   3.515   0.529 -0.1383  1.0146 -0.0874
17768TIP3    H174795   3.489   3.501   0.624 -0.8638  2.0843  0.0362
17768TIP3    H274796   3.537   3.602   0.522 -0.2157  0.9981 -0.7694
17769TIP3   OH274797   2.811   5.692   3.757  0.0228 -0.4271  0.0855
17769TIP3    H174798   2.773   5.667   3.673 -1.4000 -0.5979  0.7556
17769TIP3    H274799   2.859   5.614   3.786  0.8240 -0.2439 -0.7255
17770TIP3   OH274800   0.132   6.736  14.924 -0.3009  0.4145 -0.0578
17770TIP3    H174801   0.046   6.709  14.955 -0.3520 -0.2981 -0.7556
17770TIP3    H274802   0.190   6.663  14.949 -0.1587  0.2935 -0.7155
17771TIP3   OH274803   0.322   6.014   5.311 -0.2355  0.2229 -0.1524
17771TIP3    H174804   0.257   6.078   5.339 -1.6955 -1.4426  0.4540
17771TIP3    H274805   0.338   5.961   5.389 -0.4820 -1.2928 -1.0943
17772TIP3   OH274806   6.332   5.400   5.150  0.1445  0.9545 -0.0949
17772TIP3    H174807   6.310   5.449   5.229  0.3621  1.2613 -0.2231
17772TIP3    H274808   6.352   5.312   5.181  2.0244  1.5161  0.4313
17773TIP3   OH274809   1.202   4.380   6.303  0.7374  0.0337  0.0505
17773TIP3    H174810   1.288   4.422   6.306  1.3015 -1.0283 -0.5873
17773TIP3    H274811   1.149   4.430   6.364  1.2971  1.8329 -0.8694
17774TIP3   OH274812   5.469   4.051   4.023  0.3362 -0.2305 -0.1583
17774TIP3    H174813   5.381   4.054   3.985  0.0688 -1.6843  0.2606
17774TIP3    H274814   5.513   4.128   3.989 -0.9974  0.3392 -0.6497
17775TIP3   OH274815   3.495   1.447  16.374 -0.0687 -0.0242 -0.1150
17775TIP3    H174816   3.567   1.461  16.435 -0.5654  0.8930  0.2773
17775TIP3    H274817   3.418   1.432  16.430 -0.1283 -1.4407 -0.5217
17776TIP3   OH274818   0.801   4.182   3.688  0.3530  0.0661  0.2178
17776TIP3    H174819   0.839   4.112   3.742  1.6768 -0.8428 -1.7710
17776TIP3    H274820   0.814   4.261   3.740  3.1629 -0.5141  0.5648
17777TIP3   OH274821   0.689   2.564  11.433  0.2498  0.0056  0.1134
17777TIP3    H174822   0.742   2.547  11.510  1.0700  2.1758  0.0984
17777TIP3    H274823   0.605   2.594  11.467  0.2164 -0.1417  0.1589
17778TIP3   OH274824   0.050   3.033   6.509  0.8340  0.3568  0.3803
17778TIP3    H174825   0.145   3.041   6.501  0.8766  0.6129  1.0473
17778TIP3    H274826   0.036   2.944   6.543  0.6731 -0.6059 -2.0011
17779TIP3   OH274827   2.523   3.324   5.734  0.5719 -0.3189 -0.3115
17779TIP3    H174828   2.539   3.242   5.687  1.2542 -0.7517  0.6523
17779TIP3    H274829   2.598   3.379   5.712 -1.2704  1.2443 -3.3640
17780TIP3   OH274830   0.954   2.697  11.085 -0.1845  0.4992 -0.1589
17780TIP3    H174831   0.891   2.712  11.155  0.5460  0.9136  0.4219
17780TIP3    H274832   0.988   2.609  11.101 -3.3617 -1.4391 -2.6933
17781TIP3   OH274833   4.257   3.453   5.868  0.4658 -0.4422 -0.4578
17781TIP3    H174834   4.193   3.440   5.938 -0.9526  0.9812 -1.4207
17781TIP3    H274835   4.342   3.444   5.911 -0.2725  2.5624  2.0055
17782TIP3   OH274836   6.420   0.307  16.258  0.1510 -0.5558  0.1537
17782TIP3    H174837   6.462   0.316  16.344  0.1803 -0.2278  0.1070
17782TIP3    H274838   6.490   0.275  16.202  0.6631  1.0160 -0.1748
17783TIP3   OH274839   6.461   2.516  13.187 -0.0603  1.0061 -0.3161
17783TIP3    H174840   6.371   2.504  13.219 -0.5544  2.4428 -1.1058
17783TIP3    H274841   6.516   2.487  13.260 -1.1702  1.5122  0.7632
17784TIP3   OH274842   0.432   2.961  12.653  0.3281 -0.0303  0.2445
17784TIP3    H174843   0.439   2.882  12.706 -1.4935 -1.2339 -1.1676
17784TIP3    H274844   0.460   3.032  12.711  2.9059 -1.7353  1.2963
17785TIP3   OH274845   4.422   5.983   3.801  0.6121  0.0369 -0.3498
17785TIP3    H174846   4.395   5.902   3.845  1.0865 -0.4678 -0.9589
17785TIP3    H274847   4.386   5.975   3.712  3.7704 -1.3405 -1.6828
17786TIP3   OH274848   5.243   5.279  15.824  0.8388  0.2103 -0.4819
17786TIP3    H174849   5.337   5.265  15.816  0.7005 -1.4627  0.4878
17786TIP3    H274850   5.204   5.194  15.807 -0.3170  0.1950  1.9226
17787TIP3   OH274851   5.835   4.289  15.010 -0.0086  0.0529  0.4023
17787TIP3    H174852   5.858   4.219  14.949  0.8941 -1.0552  1.9224
17787TIP3    H274853   5.919   4.322  15.042 -0.4188 -0.3517  2.0309
17788TIP3   OH274854   0.545   5.007  16.696  0.4150 -0.0945 -0.1830
17788TIP3    H174855   0.559   5.070  16.767 -0.1820 -0.6114  0.3992
17788TIP3    H274856   0.541   4.922  16.739  0.6396 -0.4808 -0.9084
17789TIP3   OH274857   6.804   4.974   0.142  0.2567 -0.2790 -0.3266
17789TIP3    H174858   6.772   5.063   0.160  0.6131  0.1573 -1.7443
17789TIP3    H274859   6.899   4.984   0.140  0.4418 -1.1521  1.7190
17790TIP3   OH274860   3.685   3.545  13.518 -0.5909  0.1758  0.1199
17790TIP3    H174861   3.665   3.451  13.522  0.4138 -0.0450  0.2114
17790TIP3    H274862   3.608   3.588  13.555 -0.5093 -0.6797  1.3289
17791TIP3   OH274863   2.144   4.707   1.495  0.1045  0.1679 -0.5963
17791TIP3    H174864   2.100   4.622   1.492  0.2889  0.0702 -0.5434
17791TIP3    H274865   2.228   4.689   1.537  0.6853  0.1260 -1.7259
17792TIP3   OH274866   2.108   2.069  13.761 -0.3100 -0.4716  0.0185
17792TIP3    H174867   2.155   2.103  13.685  0.1207  2.3028  1.3879
17792TIP3    H274868   2.147   2.114  13.835 -4.2264  1.0788  1.3952
17793TIP3   OH274869   6.673   6.625  12.556 -0.1332  0.1047  0.5346
17793TIP3    H174870   6.650   6.534  12.541 -0.7172  0.3498 -0.1479
17793TIP3    H274871   6.760   6.622  12.596  0.4549 -0.7142 -0.7182
17794TIP3   OH274872   3.655   4.343   5.122 -0.5247  0.5129 -0.3521
17794TIP3    H174873   3.582   4.305   5.170  0.6299 -0.0452  1.0462
17794TIP3    H274874   3.674   4.280   5.053 -0.6701  0.1044 -0.0268
17795TIP3   OH274875   2.053   5.654   3.024 -0.1159  0.0448  0.6389
17795TIP3    H174876   2.030   5.737   3.066  1.6436  0.0498  1.6941
17795TIP3    H274877   2.096   5.679   2.942  0.0533  0.1683  0.7648
17796TIP3   OH274878   5.600   4.564   4.138  1.0474  0.2996 -0.1759
17796TIP3    H174879   5.523   4.517   4.106 -0.1273  0.4032  2.2865
17796TIP3    H274880   5.673   4.505   4.119  0.1324 -0.6757 -0.7935
17797TIP3   OH274881   2.077   1.379  13.486  1.1051 -0.5694  0.5085
17797TIP3    H174882   2.114   1.309  13.433  0.4823 -1.6830  1.4928
17797TIP3    H274883   2.061   1.339  13.572 -0.4404  0.4032  0.7280
17798TIP3   OH274884   1.096   2.502  16.195 -0.2926  1.1755 -0.0762
17798TIP3    H174885   1.021   2.500  16.254 -0.9087 -0.0998 -0.8733
17798TIP3    H274886   1.061   2.478  16.109  1.1007 -0.0322 -0.3502
17799TIP3   OH274887   0.919   5.919  12.305 -0.5446 -0.9175 -0.1712
17799TIP3    H174888   0.852   5.965  12.355 -1.8725 -0.2352 -2.4230
17799TIP3    H274889   0.959   5.859  12.368 -3.3952 -1.5066  1.2453
17800TIP3   OH274890   5.656   4.820  10.607 -0.8500 -0.2265  0.1118
17800TIP3    H174891   5.711   4.865  10.671 -1.8044 -0.9947  1.5516
17800TIP3    H274892   5.632   4.738  10.651 -1.1966 -0.9791 -1.4229
17801TIP3   OH274893   6.020   0.215   1.383  0.0413 -0.4422  0.0304
17801TIP3    H174894   5.966   0.151   1.338  0.6142 -2.3211  1.8637
17801TIP3    H274895   6.107   0.203   1.346 -0.1170  0.2792 -0.5985
17802TIP3   OH274896   0.111   2.110   0.806 -0.0677  0.4677 -0.8729
17802TIP3    H174897   0.137   2.103   0.715 -1.6108  0.4502 -1.3467
17802TIP3    H274898   0.051   2.036   0.819  1.5675 -0.6692  0.7015
17803TIP3   OH274899   4.965   4.715   5.165 -0.6296 -0.2067 -0.4158
17803TIP3    H174900   5.018   4.649   5.211 -0.3964  0.2138 -0.0590
17803TIP3    H274901   4.972   4.793   5.221 -1.5260 -0.1068 -0.4350
17804TIP3   OH274902   4.151   4.608  16.875 -0.3297  0.0401  0.5398
17804TIP3    H174903   4.141   4.569  16.962 -1.8648  0.3328  0.5254
17804TIP3    H274904   4.239   4.645  16.875 -0.1490 -0.3574  1.8090
17805TIP3   OH274905   4.483   0.876  12.688  0.4470  0.0421  0.3428
17805TIP3    H174906   4.561   0.928  12.706  0.8546  0.1421 -1.5526
17805TIP3    H274907   4.516   0.798  12.642 -0.6416  0.7623 -1.7844
17806TIP3   OH274908   5.654   2.071  16.472 -0.1887 -0.2837 -0.5311
17806TIP3    H174909   5.609   2.094  16.553 -1.1625  0.9151 -1.3669
17806TIP3    H274910   5.619   1.985  16.448  0.8226 -1.1112  0.7692
17807TIP3   OH274911   6.005   4.822  14.695 -0.2230  0.0605  0.0293
17807TIP3    H174912   5.925   4.787  14.734 -0.0991 -1.5265 -1.0078
17807TIP3    H274913   6.076   4.777  14.741 -0.0833 -2.0448 -2.0382
17808TIP3   OH274914   2.909   4.125   2.972 -0.3428  0.8502  0.0654
17808TIP3    H174915   2.869   4.122   2.884  0.0097  0.4893 -0.0834
17808TIP3    H274916   2.911   4.218   2.994 -0.0072  0.9820 -0.5069
17809TIP3   OH274917   1.556   0.945  11.932 -0.3710  0.0161  0.1828
17809TIP3    H174918   1.595   0.859  11.919  0.2608  0.7098 -3.4840
17809TIP3    H274919   1.466   0.936  11.902 -0.1477  0.7222 -0.7425
17810TIP3   OH274920   0.154   2.395   3.629 -0.1178 -0.1482  1.0281
17810TIP3    H174921   0.074   2.429   3.589 -0.6355 -2.4269 -0.0119
17810TIP3    H274922   0.130   2.379   3.720 -0.6782 -0.2997  0.8576
17811TIP3   OH274923   5.287   1.866  14.243  0.2853  0.2234 -0.2603
17811TIP3    H174924   5.282   1.958  14.268  2.9411  0.5611 -0.7159
17811TIP3    H274925   5.263   1.819  14.323  1.3771  1.3122  0.7579
17812TIP3   OH274926   1.246   3.304  15.750  0.4381 -0.1128  0.7154
17812TIP3    H174927   1.304   3.372  15.785  0.4983 -0.8872  2.2092
17812TIP3    H274928   1.232   3.245  15.824  3.5954 -4.0222 -1.4472
17813TIP3   OH274929   1.547   6.656  12.239  0.9187 -0.0573 -0.9599
17813TIP3    H174930   1.571   6.748  12.229 -1.2913  0.4460 -2.3083
17813TIP3    H274931   1.490   6.654  12.315 -0.4265  0.0375 -1.9287
17814TIP3   OH274932   3.661   0.855  14.569  0.7792  0.1617 -0.0951
17814TIP3    H174933   3.582   0.865  14.517  1.4210  0.4167 -1.0414
17814TIP3    H274934   3.685   0.944  14.594 -0.2179 -0.0322  1.7478
17815TIP3   OH274935   1.526   0.689   0.630  0.0498 -0.1785  0.2107
17815TIP3    H174936   1.452   0.716   0.576 -1.2241 -1.4478  1.2580
17815TIP3    H274937   1.487   0.639   0.702  1.8681 -0.3121  1.1668
17816TIP3   OH274938   6.834   0.904  14.777 -0.2183 -0.1139 -0.1140
17816TIP3    H174939   6.891   0.957  14.834  2.4559 -2.3545 -0.4715
17816TIP3    H274940   6.764   0.874  14.835  0.4918  0.5129  1.1155
17817TIP3   OH274941   1.290   2.829   0.723 -0.4244  0.2854 -0.2565
17817TIP3    H174942   1.368   2.774   0.732 -0.7014 -0.0859 -0.0951
17817TIP3    H274943   1.298   2.893   0.794 -1.6710 -1.4983  1.6166
17818TIP3   OH274944   4.959   3.104  16.946  0.2975  0.4282  0.0172
17818TIP3    H174945   5.033   3.148  16.988  0.4550  0.1613  0.0193
17818TIP3    H274946   4.993   3.019  16.919  0.0431  0.3776 -0.1512
17819TIP3   OH274947   4.379   5.359   3.543 -0.2810  0.6130 -0.0752
17819TIP3    H174948   4.290   5.325   3.539  0.2955 -0.9204 -0.3261
17819TIP3    H274949   4.377   5.424   3.614 -1.1874 -0.6866  1.1398
17820TIP3   OH274950   6.503   5.752   1.821  0.5932  0.2362 -0.2241
17820TIP3    H174951   6.443   5.777   1.750  0.7490 -0.0084 -0.4437
17820TIP3    H274952   6.585   5.729   1.776  0.5752 -0.2831  0.0022
17821TIP3   OH274953   4.201   4.971  13.174  0.2771  0.1124 -0.3531
17821TIP3    H174954   4.116   4.957  13.215  1.0147  0.1346  1.2692
17821TIP3    H274955   4.220   4.889  13.129 -0.7366  0.2316 -1.0173
17822TIP3   OH274956   5.706   6.130  16.015  0.0820 -0.7069 -0.4818
17822TIP3    H174957   5.657   6.099  16.091 -1.5943  0.2766 -1.1124
17822TIP3    H274958   5.639   6.161  15.954  1.4386 -0.4651 -1.9179
17823TIP3   OH274959   0.915   1.717  11.756 -0.7753 -0.2543 -0.5656
17823TIP3    H174960   0.928   1.776  11.829  0.2848  0.2709 -1.1557
17823TIP3    H274961   0.821   1.721  11.738 -1.2700 -1.2696  1.4621
17824TIP3   OH274962   5.744   3.720   4.368  0.1546 -0.0964  0.1518
17824TIP3    H174963   5.711   3.769   4.292 -0.6546  0.1319  0.6476
17824TIP3    H274964   5.784   3.787   4.424  0.3655 -0.2083  0.1379
17825TIP3   OH274965   3.651   6.183   2.485  0.0126 -0.9600  0.0951
17825TIP3    H174966   3.743   6.178   2.512  0.1721  1.8009  0.3155
17825TIP3    H274967   3.652   6.237   2.406 -1.3487 -1.6931 -0.4487
17826TIP3   OH274968   3.630   4.318   0.848  0.4266 -0.7263  0.3627
17826TIP3    H174969   3.582   4.366   0.781  0.6157 -0.9567  0.0577
17826TIP3    H274970   3.577   4.239   0.864  1.5086 -1.8212 -1.1841
17827TIP3   OH274971   0.565   5.139   4.402  0.1583 -0.3897 -0.0669
17827TIP3    H174972   0.513   5.164   4.325 -0.0468  0.0630  0.2148
17827TIP3    H274973   0.564   5.043   4.401 -0.9880 -0.3972  0.1322
17828TIP3   OH274974   6.138   4.320  10.759 -0.2790  0.3183 -0.1898
17828TIP3    H174975   6.086   4.274  10.824  0.5587  1.8497  1.6631
17828TIP3    H274976   6.225   4.280  10.765 -0.3390  0.0924 -0.7760
17829TIP3   OH274977   0.477   4.164   2.740  0.1129 -0.2715  0.0743
17829TIP3    H174978   0.470   4.223   2.666  0.8430 -0.0897  0.1395
17829TIP3    H274979   0.445   4.080   2.707 -1.2843  0.2396  0.0959
17830TIP3   OH274980   5.700   0.789   5.471  0.1012  0.4156 -0.2380
17830TIP3    H174981   5.748   0.857   5.425 -0.5750  0.9466 -0.1773
17830TIP3    H274982   5.613   0.826   5.485 -0.5823 -0.8186 -1.0322
17831TIP3   OH274983   2.971   3.071  14.063 -0.3310  0.3621 -0.6743
17831TIP3    H174984   3.020   3.073  14.145 -0.9490  1.3061 -0.3081
17831TIP3    H274985   2.916   3.149  14.066 -1.8599 -0.6574 -1.0804
17832TIP3   OH274986   1.242   5.809  11.516 -0.4132 -0.5557 -0.0642
17832TIP3    H174987   1.296   5.852  11.582 -0.0864  0.5795 -1.0318
17832TIP3    H274988   1.155   5.847  11.528 -0.1879  0.1995 -0.7383
17833TIP3   OH274989   4.037   1.375   3.658 -0.5042 -0.2821 -0.0278
17833TIP3    H174990   3.949   1.336   3.659 -0.5531 -0.3443 -2.2846
17833TIP3    H274991   4.097   1.301   3.652 -0.4871 -0.1709 -1.7794
17834TIP3   OH274992   5.844   2.542  15.401  0.1634  0.1376  0.8304
17834TIP3    H174993   5.785   2.471  15.374 -0.9541  1.0934  0.6642
17834TIP3    H274994   5.839   2.605  15.329  0.4655  0.7789  1.3702
17835TIP3   OH274995   4.694   0.875  16.730 -0.0596 -0.0370 -0.1833
17835TIP3    H174996   4.777   0.831  16.714 -0.8017 -1.5125 -0.1624
17835TIP3    H274997   4.698   0.903  16.821  1.3459  2.0778 -0.8280
17836TIP3   OH274998   4.992   5.720  12.544  0.0897  0.2527  0.0396
17836TIP3    H174999   4.960   5.795  12.494  0.6480  0.1314 -0.5089
17836TIP3    H275000   5.083   5.742  12.564  0.1038 -0.0520  0.3208
17837TIP3   OH275001   3.842   4.055   4.371 -0.1556  0.6933  0.2184
17837TIP3    H175002   3.931   4.085   4.351 -0.3173  1.7689  1.0064
17837TIP3    H275003   3.788   4.133   4.357 -0.5521  0.9471  2.6863
17838TIP3   OH275004   4.515   1.963  12.650 -0.2596 -0.5268 -0.5429
17838TIP3    H175005   4.571   2.019  12.596  0.4072 -0.0916  0.5629
17838TIP3    H275006   4.492   2.017  12.725 -0.5432 -1.3593 -0.0115
17839TIP3   OH275007   2.399   3.797   4.606  0.0248 -0.0072 -0.2131
17839TIP3    H175008   2.325   3.855   4.589  0.8140  1.2029  0.3154
17839TIP3    H275009   2.394   3.730   4.538 -1.6687 -0.0761 -0.0485
17840TIP3   OH275010   0.298   6.779  12.836 -0.1877  0.2771 -0.1036
17840TIP3    H175011   0.239   6.852  12.855  0.9992  0.9984  0.9815
17840TIP3    H275012   0.244   6.716  12.789 -2.2395  0.2741  2.0399
17841TIP3   OH275013   2.191   5.401   1.806  0.2399 -0.1248  0.0852
17841TIP3    H175014   2.238   5.357   1.877 -1.1914  0.0718  1.1899
17841TIP3    H275015   2.168   5.487   1.842 -0.4390  0.0061 -0.6425
17842TIP3   OH275016   5.996   5.036  13.228 -0.0682  0.1130 -0.2320
17842TIP3    H175017   5.907   5.039  13.264 -0.0322 -2.2478  0.2638
17842TIP3    H275018   5.986   5.065  13.137 -1.3460 -0.0191 -0.1539
17843TIP3   OH275019   0.030   2.914   2.360  0.0922 -0.0216  0.5035
17843TIP3    H175020   0.015   2.982   2.425  0.1360  2.4442 -1.8735
17843TIP3    H275021  -0.052   2.910   2.311  0.1683 -1.5627  0.4607
17844TIP3   OH275022   6.089   4.267   6.192 -0.3727  0.9584 -0.5671
17844TIP3    H175023   6.159   4.223   6.240 -0.9293  1.6079  0.9068
17844TIP3    H275024   6.130   4.295   6.110  0.8363  0.5067 -0.1318
17845TIP3   OH275025   3.773   4.120   4.952 -0.5225 -0.4735 -0.0644
17845TIP3    H175026   3.752   4.054   4.886 -0.8586 -0.9254  0.4910
17845TIP3    H275027   3.830   4.075   5.014  0.0543  0.0408 -0.2113
17846TIP3   OH275028   6.494   2.779   0.005  0.0823 -0.1103 -0.1975
17846TIP3    H175029   6.543   2.814   0.079  0.8794  1.5092 -1.4266
17846TIP3    H275030   6.407   2.820   0.012 -0.1814 -0.7472  0.3783
17847TIP3   OH275031   1.401   0.045  11.529 -0.2015 -0.3032 -0.1677
17847TIP3    H175032   1.453   0.125  11.517  0.3154 -0.7752 -1.2015
17847TIP3    H275033   1.310   0.075  11.528 -0.0052  0.3117 -0.2342
17848TIP3   OH275034   5.206   4.443  14.306 -0.3886  0.2041  0.2006
17848TIP3    H175035   5.130   4.477  14.258  0.4433  2.0569  0.1032
17848TIP3    H275036   5.169   4.397  14.381 -1.6650 -1.1428 -1.1745
17849TIP3   OH275037   0.217   6.716  15.686 -0.1665 -0.1643 -0.1089
17849TIP3    H175038   0.189   6.754  15.769 -0.1605  0.5312 -0.4161
17849TIP3    H275039   0.154   6.750  15.622 -0.3219 -0.8950 -0.3537
17850TIP3   OH275040   4.780   6.066   0.132  0.6344 -0.0737 -0.3797
17850TIP3    H175041   4.796   6.048   0.225 -2.2965  0.3611  0.3370
17850TIP3    H275042   4.726   5.992   0.103  0.4460  0.4370 -1.3806
17851TIP3   OH275043   1.698   3.702  16.025 -0.1631  0.3374 -0.1161
17851TIP3    H175044   1.658   3.670  16.106 -0.1208  1.7589  0.4941
17851TIP3    H275045   1.633   3.761  15.987  0.3872  0.7945 -0.3656
17852TIP3   OH275046   4.919   6.488  14.503  0.1151 -0.1310 -0.4127
17852TIP3    H175047   5.003   6.504  14.545  0.0500 -0.4774 -0.1492
17852TIP3    H275048   4.905   6.564  14.447 -0.7698  1.3781  1.7309
17853TIP3   OH275049   4.224   0.321  12.170 -0.1212  0.1342  0.0990
17853TIP3    H175050   4.156   0.379  12.136 -0.6575 -0.5357 -0.0062
17853TIP3    H275051   4.179   0.238  12.185  1.0422 -0.8735 -1.6365
17854TIP3   OH275052   4.188   0.952  11.225  0.1581  0.4907 -0.5937
17854TIP3    H175053   4.094   0.963  11.243  0.4200  0.7426  0.7380
17854TIP3    H275054   4.225   1.039  11.239  0.7832  0.1043  0.1997
17855TIP3   OH275055   0.515   2.157  15.449  0.1138  0.9178  0.1941
17855TIP3    H175056   0.578   2.107  15.395 -0.6759 -0.1461  0.2191
17855TIP3    H275057   0.456   2.197  15.385 -0.8981 -0.4449  0.2127
17856TIP3   OH275058   3.906   2.136   0.656  0.0315  0.2884 -0.0091
17856TIP3    H175059   3.963   2.072   0.614 -1.1029 -0.6651 -0.1319
17856TIP3    H275060   3.957   2.217   0.657  1.1794 -0.4124 -0.5770
17857TIP3   OH275061   4.560   2.460  14.060 -0.5504  0.0132  0.2071
17857TIP3    H175062   4.656   2.466  14.053 -0.6224 -0.6191 -2.3468
17857TIP3    H275063   4.545   2.371  14.090 -0.3437  0.5191  1.8968
17858TIP3   OH275064   5.112   2.902  16.083  0.7908 -0.2008 -0.7202
17858TIP3    H175065   5.083   2.835  16.145  0.0306 -2.2052 -3.0921
17858TIP3    H275066   5.180   2.951  16.130  0.4599 -1.7897  1.5507
17859TIP3   OH275067   3.974   6.635   3.603  0.2868 -0.2674  0.0969
17859TIP3    H175068   4.036   6.678   3.544  0.4194 -1.0795 -0.3591
17859TIP3    H275069   4.028   6.589   3.666  0.1596 -1.1358 -0.4174
17860TIP3   OH275070   5.821   1.595  16.544  0.0407  0.1468  0.0511
17860TIP3    H175071   5.765   1.557  16.612  1.7338 -1.7240  0.4981
17860TIP3    H275072   5.886   1.527  16.526  0.7094  1.2890 -2.1896
17861TIP3   OH275073   3.548   3.314   5.717  0.4987 -0.3718 -0.2339
17861TIP3    H175074   3.571   3.389   5.662  2.3927 -0.0544  0.8936
17861TIP3    H275075   3.488   3.350   5.783  0.4302 -0.1350 -0.4221
17862TIP3   OH275076   4.673   3.518  11.529  0.1204  0.7981 -0.0179
17862TIP3    H175077   4.624   3.489  11.606 -0.8422 -1.9072 -1.5267
17862TIP3    H275078   4.641   3.606  11.512 -2.2116  0.1461  0.6850
17863TIP3   OH275079   6.578   6.780   5.458  0.0019 -0.4206  0.6295
17863TIP3    H175080   6.493   6.816   5.435  0.3170 -0.6201 -0.9330
17863TIP3    H275081   6.591   6.707   5.397  0.9659 -0.8715  1.3401
17864TIP3   OH275082   1.756   4.411  14.941  0.0319 -0.9237 -0.0741
17864TIP3    H175083   1.772   4.355  15.017  1.1895  1.7804  1.8537
17864TIP3    H275084   1.720   4.492  14.978 -0.0529  0.2597 -2.5137
17865TIP3   OH275085   0.738   3.343   1.773 -0.0145 -0.3239 -0.2163
17865TIP3    H175086   0.827   3.353   1.806 -0.4048 -0.4382  0.9099
17865TIP3    H275087   0.714   3.253   1.796 -0.9748  0.1980  0.9288
17866TIP3   OH275088   1.063   0.678  11.116  0.2532  0.3806 -0.6098
17866TIP3    H175089   0.989   0.635  11.158  0.0492  0.6098 -0.7321
17866TIP3    H275090   1.059   0.768  11.147  1.0683  0.1689  0.1668
17867TIP3   OH275091   4.860   3.613  13.678  0.1631 -0.1213  0.5820
17867TIP3    H175092   4.859   3.697  13.632  1.5510 -0.7232 -0.6299
17867TIP3    H275093   4.903   3.632  13.761  0.7528  0.3236  0.1838
17868TIP3   OH275094   1.329   0.944   2.084 -0.1495 -0.4576  1.0712
17868TIP3    H175095   1.324   1.021   2.140 -0.4444  1.9061 -1.9539
17868TIP3    H275096   1.420   0.914   2.091 -0.0032  0.2089  2.2046
17869TIP3   OH275097   1.151   3.771   5.580  0.6180  0.3072 -0.1343
17869TIP3    H175098   1.155   3.679   5.608  0.6714  0.6008  0.8803
17869TIP3    H275099   1.236   3.807   5.607  1.1215  0.3526 -1.7009
17870TIP3   OH275100   6.356   5.229  13.795  0.4559 -0.4014  0.2068
17870TIP3    H175101   6.307   5.148  13.782 -1.7672  1.0702 -1.3858
17870TIP3    H275102   6.405   5.241  13.714  1.1051 -0.3408  0.6001
17871TIP3   OH275103   5.500   6.304   1.895  0.5540  0.3063 -0.4592
17871TIP3    H175104   5.427   6.266   1.845  0.1843 -0.7997  0.8607
17871TIP3    H275105   5.515   6.242   1.967  2.2809  0.9224 -0.2384
17872TIP3   OH275106   6.126   2.064   4.041 -0.2002 -0.1914  0.1222
17872TIP3    H175107   6.207   2.019   4.016  0.6818  0.9442  0.8650
17872TIP3    H275108   6.117   2.135   3.977 -0.6930 -0.4003 -0.0436
17873TIP3   OH275109   6.125   3.462  14.149  0.1433 -0.6749 -0.2396
17873TIP3    H175110   6.139   3.543  14.100 -0.4061 -0.1858  0.3997
17873TIP3    H275111   6.165   3.394  14.095  3.2076  0.3664  0.5411
17874TIP3   OH275112   3.494   5.084   1.063 -0.2294 -0.4684 -0.1638
17874TIP3    H175113   3.485   5.026   0.987 -2.7100 -0.2390 -0.1324
17874TIP3    H275114   3.418   5.142   1.057  1.5771  2.0977  0.4131
17875TIP3   OH275115   5.917   2.653  16.254 -0.1571 -0.7412  0.6440
17875TIP3    H175116   5.933   2.585  16.188 -1.0755 -0.6881  0.3542
17875TIP3    H275117   5.976   2.630  16.326  0.1910 -1.3304  0.1880
17876TIP3   OH275118   2.721   1.686  12.647  0.4577  0.6702 -0.1470
17876TIP3    H175119   2.669   1.756  12.607 -0.8185 -0.8282 -1.2334
17876TIP3    H275120   2.771   1.730  12.716 -2.0535  2.2483  0.7840
17877TIP3   OH275121   0.979   2.844   3.515  0.1173 -0.0152 -0.1972
17877TIP3    H175122   0.947   2.909   3.451 -0.5953 -1.0834 -0.9598
17877TIP3    H275123   0.929   2.765   3.495  0.4555 -0.5995  1.1931
17878TIP3   OH275124   1.143   2.104  15.216  0.0997 -0.1612 -0.4279
17878TIP3    H175125   1.187   2.161  15.154  0.2819  0.3652  0.1766
17878TIP3    H275126   1.163   2.141  15.302  1.4650 -1.9648  0.0963
17879TIP3   OH275127   6.447   0.381   5.009  0.6687  0.4912 -0.5531
17879TIP3    H175128   6.408   0.294   5.016 -1.0706  1.2577 -0.3641
17879TIP3    H275129   6.412   0.417   4.928  1.4922  0.9888 -0.7035
17880TIP3   OH275130   2.539   2.206   6.261  0.5206 -0.3036  0.2402
17880TIP3    H175131   2.498   2.126   6.228 -0.2307 -0.3590  1.2683
17880TIP3    H275132   2.479   2.276   6.235 -1.1550 -0.5312  3.0871
17881TIP3   OH275133   3.872   6.323   5.006 -0.0771 -0.0323 -0.2073
17881TIP3    H175134   3.804   6.386   4.983  0.2265  0.3132 -0.1524
17881TIP3    H275135   3.952   6.359   4.968  0.4923  0.6690  1.5669
17882TIP3   OH275136   3.293   1.075  14.613  0.0767 -0.0890 -0.2754
17882TIP3    H175137   3.267   1.158  14.572 -0.5714  0.2027  0.6858
17882TIP3    H275138   3.288   1.092  14.707  0.1992 -1.1419 -0.0655
17883TIP3   OH275139   4.738   0.139  13.919 -0.1543  0.7679 -0.7316
17883TIP3    H175140   4.758   0.127  14.011 -0.2417  0.6087 -0.7335
17883TIP3    H275141   4.704   0.228  13.913 -2.1262  0.0955 -0.2782
17884TIP3   OH275142   5.459   4.103   4.306  0.5088 -0.0918  0.5552
17884TIP3    H175143   5.459   4.063   4.219 -0.3078 -0.3103  0.6504
17884TIP3    H275144   5.405   4.181   4.297 -0.6868 -0.8156  1.1667
17885TIP3   OH275145   4.686   5.014   5.866  0.0370 -0.0931  0.5675
17885TIP3    H175146   4.613   4.994   5.808 -0.4557 -1.0373  1.4914
17885TIP3    H275147   4.720   4.929   5.893 -0.4492  0.2845  2.5437
17886TIP3   OH275148   1.915   5.023   3.193  0.0611  0.1375 -0.2328
17886TIP3    H175149   1.844   5.055   3.248 -0.6268  0.6158 -1.3495
17886TIP3    H275150   1.987   5.084   3.208 -0.1269  0.2743  0.1183
17887TIP3   OH275151   5.742   5.898   5.253 -0.8102  0.4992  0.0258
17887TIP3    H175152   5.753   5.965   5.187 -0.9945  0.9986  0.4940
17887TIP3    H275153   5.696   5.826   5.208 -0.9671  0.8461 -0.3700
17888TIP3   OH275154   2.935   6.447  13.070  0.0809 -0.5207 -0.7382
17888TIP3    H175155   2.905   6.526  13.024 -0.6553 -0.8244 -0.7939
17888TIP3    H275156   2.861   6.387  13.065 -0.1702 -0.4261  1.1798
17889TIP3   OH275157   3.963   5.575  11.055 -0.5914  0.1925 -0.5017
17889TIP3    H175158   4.011   5.658  11.064  1.8400 -1.1766  0.2313
17889TIP3    H275159   3.929   5.576  10.966 -0.7416  2.0162 -0.4554
17890TIP3   OH275160   1.469   3.908  14.960 -0.3926  0.2211 -0.6509
17890TIP3    H175161   1.517   3.932  14.880  0.7844 -0.3147 -0.1243
17890TIP3    H275162   1.410   3.838  14.932  0.9341 -0.8904 -0.8322
17891TIP3   OH275163   2.086   0.071  13.175  0.0476 -0.1898  0.0349
17891TIP3    H175164   2.095  -0.008  13.228  2.1792 -2.3393 -3.1885
17891TIP3    H275165   2.017   0.050  13.112  0.2166  0.7591 -0.4930
17892TIP3   OH275166   0.597   1.088   1.893 -0.0277 -0.1912  0.2899
17892TIP3    H175167   0.652   1.079   1.815  0.9988 -2.4357  1.1780
17892TIP3    H275168   0.660   1.095   1.965 -0.7685 -3.0833  1.3686
17893TIP3   OH275169   3.119   2.695   6.009 -0.2493 -0.0510 -0.0331
17893TIP3    H175170   3.173   2.682   6.088 -2.5860 -1.6632  1.4455
17893TIP3    H275171   3.032   2.666   6.036 -1.3250  0.1683 -3.0123
17894TIP3   OH275172   6.465   2.581   3.469  0.2887 -0.2408  0.2809
17894TIP3    H175173   6.443   2.664   3.427 -3.5404 -1.6583 -0.9532
17894TIP3    H275174   6.550   2.557   3.433  0.8415  2.4294 -0.3756
17895TIP3   OH275175   2.182   6.654   0.647  0.1785 -0.1996 -0.1379
17895TIP3    H175176   2.220   6.573   0.681  0.7043 -0.0707 -0.4046
17895TIP3    H275177   2.088   6.646   0.665  0.1932 -0.9639 -0.3549
17896TIP3   OH275178   3.661   5.370   5.471 -0.1787 -0.3068  0.1104
17896TIP3    H175179   3.706   5.302   5.422  1.0420 -0.0137  0.7941
17896TIP3    H275180   3.580   5.328   5.500  0.1537 -1.1917 -0.1935
17897TIP3   OH275181   0.367   6.285  12.997 -0.3090  0.1269 -0.3933
17897TIP3    H175182   0.343   6.365  13.044  1.1073  0.8092 -0.7761
17897TIP3    H275183   0.380   6.220  13.066  3.9636  1.6667  0.5950
17898TIP3   OH275184   5.891   6.138   2.893  0.7091 -0.4377 -0.4275
17898TIP3    H175185   5.892   6.181   2.979  0.5536  2.3226 -1.6942
17898TIP3    H275186   5.800   6.145   2.864  1.2972  1.3299 -1.9968
17899TIP3   OH275187   2.552   2.965   5.237  0.6193 -0.9493 -0.1496
17899TIP3    H175188   2.583   2.920   5.316  1.6149  0.2090  0.1353
17899TIP3    H275189   2.546   3.057   5.262 -3.0882 -1.0039 -0.1691
17900TIP3   OH275190   4.791   6.202  15.214 -0.3374 -0.2032 -0.0197
17900TIP3    H175191   4.859   6.230  15.276 -1.0739  1.1114  0.2441
17900TIP3    H275192   4.833   6.208  15.128  0.2927 -0.7680  0.2396
17901TIP3   OH275193   3.609   1.885   3.348  0.7835  0.2074  0.1878
17901TIP3    H175194   3.550   1.906   3.420 -1.8052  0.1750 -1.8102
17901TIP3    H275195   3.678   1.831   3.388 -2.1370 -2.3877  2.1532
17902TIP3   OH275196   4.762   2.272  10.304 -0.2316  0.0362  0.3860
17902TIP3    H175197   4.722   2.336  10.245 -0.3249 -1.1058 -0.8443
17902TIP3    H275198   4.694   2.208  10.320  0.8078 -1.5379 -1.1306
17903TIP3   OH275199   5.800   5.805   4.283  0.0303 -0.4088 -0.1259
17903TIP3    H175200   5.754   5.873   4.331 -0.6816 -2.0909  1.7486
17903TIP3    H275201   5.774   5.818   4.192  0.7417  2.3870 -0.0223
17904TIP3   OH275202   6.164   0.515   4.797  0.2008 -0.3129  0.3459
17904TIP3    H175203   6.141   0.535   4.706  0.0637  1.2530  0.6935
17904TIP3    H275204   6.198   0.426   4.794  0.4711 -0.1878 -1.2816
17905TIP3   OH275205   6.059   4.142   1.552  0.4731 -0.2194 -0.2235
17905TIP3    H175206   5.965   4.144   1.570  0.8001  0.7877  1.5326
17905TIP3    H275207   6.095   4.086   1.621  1.4635  1.6799  0.8884
17906TIP3   OH275208   3.805   2.274  13.172 -0.0588 -0.1376 -0.0182
17906TIP3    H175209   3.791   2.310  13.085 -1.2377 -1.4392 -0.4118
17906TIP3    H275210   3.808   2.350  13.230  1.2333  0.7748 -1.2246
17907TIP3   OH275211   3.470   3.314   2.089 -0.2545 -0.8333  0.0889
17907TIP3    H175212   3.515   3.233   2.113  1.5229  0.6134  2.1516
17907TIP3    H275213   3.515   3.381   2.141 -1.2247  1.5721 -2.0020
17908TIP3   OH275214   6.370   0.510   0.048  0.3510 -0.0737 -0.6931
17908TIP3    H175215   6.315   0.575   0.092  0.8780  0.3012 -0.5761
17908TIP3    H275216   6.457   0.550   0.045  0.3888 -0.1821 -1.8666
17909TIP3   OH275217   0.884   4.269  15.293  0.2815  0.3249 -0.4617
17909TIP3    H175218   0.806   4.270  15.348  0.4308 -0.5005 -0.2273
17909TIP3    H275219   0.908   4.177  15.287  0.8801  0.5118 -1.0453
17910TIP3   OH275220   5.120   1.829  14.868 -0.7337  0.2032  0.1391
17910TIP3    H175221   5.045   1.877  14.832 -0.5040  0.1483 -0.4208
17910TIP3    H275222   5.089   1.738  14.873 -0.2622 -0.0850 -1.4236
17911TIP3   OH275223   1.081   4.229   4.923  0.1257 -0.4896  0.3924
17911TIP3    H175224   1.107   4.204   5.012 -1.6739  0.2108  1.1598
17911TIP3    H275225   1.121   4.315   4.911  0.2815 -0.5355  0.5735
17912TIP3   OH275226   1.920   1.334  11.435 -0.0923  0.1815 -0.0321
17912TIP3    H175227   1.993   1.300  11.382  0.2724  0.6071  0.1935
17912TIP3    H275228   1.855   1.363  11.370 -0.0423 -0.1527 -0.2344
17913TIP3   OH275229   1.368   1.724   2.437  0.0424  0.2246  0.3793
17913TIP3    H175230   1.377   1.669   2.359  0.1218  0.0703  0.4985
17913TIP3    H275231   1.395   1.668   2.510 -2.3629 -0.4525  0.8382
17914TIP3   OH275232   6.324   3.721   1.119  0.0448  0.1972 -0.4822
17914TIP3    H175233   6.367   3.743   1.202 -0.5196  1.4648 -0.5062
17914TIP3    H275234   6.391   3.734   1.052  1.8667 -4.7459 -0.0331
17915TIP3   OH275235   0.507   6.745   1.685  0.2988  0.3021 -0.3140
17915TIP3    H175236   0.570   6.681   1.718  0.0097  0.2749  0.2027
17915TIP3    H275237   0.430   6.733   1.740  0.6108  1.7957  0.5084
17916TIP3   OH275238   3.349   0.789   2.122 -0.3623  0.3118  0.6996
17916TIP3    H175239   3.353   0.834   2.038  3.3690  0.2284  0.6940
17916TIP3    H275240   3.368   0.697   2.102  0.9603  0.3534  1.6173
17917TIP3   OH275241   6.174   2.031  12.610 -0.1371 -0.1601 -0.6707
17917TIP3    H175242   6.256   2.041  12.561 -0.1898 -0.1790 -0.7624
17917TIP3    H275243   6.171   2.107  12.668  0.1471 -0.3709 -0.3770
17918TIP3   OH275244   6.075   3.963  13.178  0.0385  0.2530  0.1942
17918TIP3    H175245   6.139   4.006  13.235 -1.0392  2.6754 -0.3117
17918TIP3    H275246   6.119   3.954  13.094  0.5170 -0.3033  0.5006
17919TIP3   OH275247   3.629   2.947  12.805 -0.2385 -0.1742 -0.0100
17919TIP3    H175248   3.637   3.026  12.752  1.1588 -0.2481  0.0417
17919TIP3    H275249   3.564   2.894  12.759  0.2903  0.1420 -1.1734
17920TIP3   OH275250   6.680   2.161   2.941  0.0188 -0.3129  0.7018
17920TIP3    H175251   6.766   2.122   2.927  0.1221 -0.0839  0.6880
17920TIP3    H275252   6.625   2.089   2.973  0.1218 -0.5389  0.3666
17921TIP3   OH275253   2.618   0.464   2.990  0.4729 -0.2357 -0.0982
17921TIP3    H175254   2.585   0.476   3.079  3.9242 -0.0145  1.3195
17921TIP3    H275255   2.574   0.385   2.959 -0.8427 -0.3149  1.7962
17922TIP3   OH275256   2.959   0.339  14.780  1.2534  0.1607 -0.1458
17922TIP3    H175257   3.010   0.364  14.857 -0.1985  0.6535  0.7072
17922TIP3    H275258   2.900   0.413  14.767  0.3237 -0.6583 -0.6851
17923TIP3   OH275259   6.545   4.993  14.067  0.7103 -0.1267  0.2377
17923TIP3    H175260   6.570   5.085  14.057  0.8995 -0.2217 -0.1653
17923TIP3    H275261   6.450   4.994  14.059  0.7684 -0.0611 -0.5373
17924TIP3   OH275262   4.412   0.884   0.318  0.3099 -0.2896  0.3140
17924TIP3    H175263   4.346   0.925   0.374  0.6566 -2.0512  2.0934
17924TIP3    H275264   4.495   0.913   0.355  0.5401 -1.2330  0.5518
17925TIP3   OH275265   6.007   4.497  11.425 -0.2432  0.1820 -0.3995
17925TIP3    H175266   5.934   4.499  11.487  0.9541  2.0895  1.0605
17925TIP3    H275267   5.969   4.526  11.342 -0.7623  3.7256  0.9248
17926TIP3   OH275268   3.633   3.216   1.584 -0.3762  0.6047 -0.2308
17926TIP3    H175269   3.561   3.271   1.613  0.1312  1.0519  0.2127
17926TIP3    H275270   3.684   3.272   1.525  0.1689  0.6388  0.2611
17927TIP3   OH275271   5.436   1.370   5.180 -0.0414  0.3830  0.1272
17927TIP3    H175272   5.528   1.395   5.185  0.2718 -0.0041 -2.6098
17927TIP3    H275273   5.391   1.446   5.144 -0.1640 -0.6070 -1.9216
17928TIP3   OH275274   3.004   1.644   4.917 -0.3459 -0.0802 -0.5671
17928TIP3    H175275   2.961   1.729   4.912 -2.0551 -0.8491  0.0447
17928TIP3    H275276   2.937   1.586   4.953  1.6275 -1.0989  1.7659
17929TIP3   OH275277   0.954   5.490   4.605 -0.0430  0.0822  0.1870
17929TIP3    H175278   0.876   5.433   4.606  1.5082 -2.1817  0.2291
17929TIP3    H275279   0.976   5.502   4.697  1.0310 -1.3836  0.1595
17930TIP3   OH275280   5.576   0.985  14.071  0.4249 -0.6066  0.2262
17930TIP3    H175281   5.553   0.917  14.008  0.0002  0.7925 -1.2001
17930TIP3    H275282   5.628   1.048  14.021 -0.4214  0.8567  1.1075
17931TIP3   OH275283   3.934   0.893  14.727  0.5071  0.3590  0.2398
17931TIP3    H175284   3.889   0.854  14.802 -0.8648 -0.3687 -0.9005
17931TIP3    H275285   3.867   0.947  14.685  1.8222  2.3977  0.6522
17932TIP3   OH275286   2.318   1.117  16.713 -0.2559 -0.1074 -0.1156
17932TIP3    H175287   2.289   1.199  16.755  0.6738  0.0182  0.3097
17932TIP3    H275288   2.413   1.125  16.709 -0.1404 -1.2353  0.0539
17933TIP3   OH275289   5.784   2.105   3.619 -0.2656 -0.2645  0.5261
17933TIP3    H175290   5.717   2.036   3.622 -1.0890  0.3573 -1.6543
17933TIP3    H275291   5.816   2.103   3.529 -0.0991  2.0267  0.4886
17934TIP3   OH275292   5.139   1.779   6.176 -0.0524  0.4243 -0.2184
17934TIP3    H175293   5.215   1.815   6.221  0.0693 -0.8023  0.6079
17934TIP3    H275294   5.103   1.713   6.236 -2.3637  1.6286 -0.1507
17935TIP3   OH275295   2.533   2.510  11.234 -0.5493  0.3364  0.7425
17935TIP3    H175296   2.598   2.446  11.263  0.3842  0.7029 -0.4605
17935TIP3    H275297   2.478   2.462  11.172 -1.3163  0.0850  1.5986
17936TIP3   OH275298   4.635   1.704   0.683  0.1723  0.5343 -0.4367
17936TIP3    H175299   4.697   1.687   0.753  1.6503  2.3269 -1.2116
17936TIP3    H275300   4.667   1.653   0.609  0.7992  1.4672 -0.8392
17937TIP3   OH275301   3.679   5.898   4.221  0.1364  0.1856 -0.3238
17937TIP3    H175302   3.621   5.823   4.230 -0.3650  0.8241  3.7935
17937TIP3    H275303   3.620   5.974   4.217  0.6330  0.5953 -0.0730
17938TIP3   OH275304   5.954   3.752  16.857 -0.8622 -0.2571 -0.2748
17938TIP3    H175305   5.942   3.670  16.905 -1.1262  0.4863  0.9625
17938TIP3    H275306   5.866   3.787  16.845 -0.8109 -0.5096 -1.4561
17939TIP3   OH275307   0.103   6.217  11.637 -0.4144  0.0418 -0.1234
17939TIP3    H175308   0.080   6.125  11.632  1.4362 -0.5640  1.4974
17939TIP3    H275309   0.093   6.239  11.730  2.3316  0.5379  0.1302
17940TIP3   OH275310   0.932   2.721  13.101  0.5006 -0.5379 -0.0212
17940TIP3    H175311   1.008   2.675  13.066  0.0873 -1.8743  0.7614
17940TIP3    H275312   0.862   2.655  13.100 -0.2066  0.1812  0.8019
17941TIP3   OH275313   0.829   0.859  11.782  0.2868 -0.2522  0.4423
17941TIP3    H175314   0.886   0.802  11.833  0.7304  0.8931  1.2915
17941TIP3    H275315   0.887   0.901  11.719  0.6497  1.5814  1.8816
17942TIP3   OH275316   0.103   6.615  12.661  0.6055  0.2037  0.1635
17942TIP3    H175317   0.058   6.531  12.668 -0.7939  0.9254  0.1470
17942TIP3    H275318   0.167   6.602  12.591  0.2316 -0.7668 -0.0107
17943TIP3   OH275319   4.931   1.255  13.335  0.0372 -0.2698  0.0099
17943TIP3    H175320   4.911   1.282  13.425  2.9141 -1.7675  1.2658
17943TIP3    H275321   4.853   1.208  13.306 -2.2904  3.0813  0.3420
17944TIP3   OH275322   3.257   6.126   3.169 -0.9884 -0.2448  0.3547
17944TIP3    H175323   3.243   6.209   3.214 -0.3903  0.2525 -0.3646
17944TIP3    H275324   3.347   6.129   3.139 -1.0696 -1.0049  0.0046
17945TIP3   OH275325   3.573   1.909  12.386 -0.1907 -0.2476 -0.0284
17945TIP3    H175326   3.544   2.000  12.388 -0.1427 -0.2542  1.2135
17945TIP3    H275327   3.668   1.914  12.372 -0.2359 -0.1185 -0.2879
17946TIP3   OH275328   2.403   6.582   4.085 -0.6605 -0.2087 -0.4218
17946TIP3    H175329   2.357   6.665   4.097 -0.5327 -0.3752  1.5146
17946TIP3    H275330   2.435   6.559   4.172  0.6987 -1.4981 -1.2054
17947TIP3   OH275331   5.329   4.696   4.996  0.1258  0.0805 -0.3115
17947TIP3    H175332   5.422   4.719   4.996  0.6194 -1.7065  0.9088
17947TIP3    H275333   5.322   4.626   5.061 -1.8779 -0.6074 -1.2069
17948TIP3   OH275334   3.247   3.749  10.226  0.2373 -0.4099 -0.4162
17948TIP3    H175335   3.308   3.761  10.299  0.2350 -0.7910 -0.3482
17948TIP3    H275336   3.271   3.663  10.190  0.1177 -0.3038 -0.7475
17949TIP3   OH275337   4.023   2.204  11.617 -0.2615 -0.1709  0.2069
17949TIP3    H175338   4.079   2.147  11.670  0.6084 -1.0249 -1.5052
17949TIP3    H275339   4.071   2.212  11.534 -1.1326  1.8041 -0.1631
17950TIP3   OH275340   4.705   4.611  15.609  0.5634 -0.5908  0.6241
17950TIP3    H175341   4.633   4.635  15.550  0.4778  1.0677  1.3414
17950TIP3    H275342   4.782   4.653  15.571  0.6218 -0.0239  1.3581
17951TIP3   OH275343   2.256   4.451  16.575  0.0694  0.3914  0.5155
17951TIP3    H175344   2.298   4.385  16.520  1.2470  0.5645  1.1882
17951TIP3    H275345   2.177   4.475  16.526  0.1362 -0.7766 -0.2198
17952TIP3   OH275346   5.363   5.598   4.040  0.3469 -0.2422  0.3738
17952TIP3    H175347   5.418   5.659   4.089  0.3925  0.0726 -0.0575
17952TIP3    H275348   5.340   5.529   4.103 -0.1921  0.5208  1.0306
17953TIP3   OH275349   3.242   2.024  11.629  0.4795  0.2610  0.5817
17953TIP3    H175350   3.171   1.966  11.656 -1.0936  0.1619 -3.0952
17953TIP3    H275351   3.322   1.978  11.654 -0.7423 -1.4663  1.4910
17954TIP3   OH275352   2.031   4.223   4.614 -0.3102  0.0085 -0.1737
17954TIP3    H175353   2.011   4.206   4.706 -0.1005  2.1973  0.3409
17954TIP3    H275354   1.946   4.243   4.575 -0.5517 -1.9396 -0.7635
17955TIP3   OH275355   5.186   4.313   4.492 -0.3673 -0.0942  0.6160
17955TIP3    H175356   5.162   4.401   4.462 -1.5446 -1.4917 -3.0615
17955TIP3    H275357   5.107   4.261   4.478  1.8928 -2.9592 -3.3029
17956TIP3   OH275358   4.089   1.088   2.241 -0.0921  0.9865  0.5556
17956TIP3    H175359   4.062   1.027   2.310 -0.2983 -1.4540 -1.5269
17956TIP3    H275360   4.180   1.065   2.224 -0.6605 -0.0466 -1.4241
17957TIP3   OH275361   1.231   5.468   2.753 -0.2842 -0.0072  0.3353
17957TIP3    H175362   1.229   5.486   2.659  1.4267 -2.8004 -0.3256
17957TIP3    H275363   1.141   5.484   2.782 -0.9522  0.4868 -1.8309
17958TIP3   OH275364   2.358   6.148   6.021 -0.3696 -0.0628  0.8656
17958TIP3    H175365   2.273   6.145   6.065  0.1002  0.0599  1.8058
17958TIP3    H275366   2.421   6.164   6.092  0.2901  1.3660  0.0018
17959TIP3   OH275367   5.100   4.532  12.065 -0.0379  0.5099  0.5312
17959TIP3    H175368   5.033   4.491  12.010 -0.7283 -0.2147  1.8508
17959TIP3    H275369   5.179   4.531  12.012 -0.4752 -0.9385 -0.1421
17960TIP3   OH275370   2.728   0.208  16.430  0.2855 -0.2379  0.0010
17960TIP3    H175371   2.665   0.161  16.485 -0.8117  0.1303 -0.9117
17960TIP3    H275372   2.774   0.139  16.383 -0.2385 -0.4641 -0.1849
17961TIP3   OH275373   1.420   1.393  11.508  0.2846  0.9891 -0.0832
17961TIP3    H175374   1.355   1.378  11.577 -0.3788 -0.8693 -1.0565
17961TIP3    H275375   1.383   1.464  11.455 -0.3180  0.8338  0.1286
17962TIP3   OH275376   2.566   6.807   3.509  1.1317  0.2339  0.3515
17962TIP3    H175377   2.591   6.780   3.597 -3.2343 -1.0182  1.4906
17962TIP3    H275378   2.535   6.897   3.519 -2.0234 -0.7917  0.9271
17963TIP3   OH275379   4.990   4.824  12.031  0.0715 -0.5350 -0.2426
17963TIP3    H175380   5.040   4.845  11.952 -0.1375 -2.1234 -0.8257
17963TIP3    H275381   5.046   4.765  12.081 -0.7015 -1.3521 -0.3090
17964TIP3   OH275382   1.823   3.368  14.700 -0.0676  0.2081  0.7090
17964TIP3    H175383   1.912   3.363  14.735  0.0229  2.3702  0.9052
17964TIP3    H275384   1.830   3.334  14.611  0.0151 -3.8562  2.0471
17965TIP3   OH275385   4.480   2.274  12.398  0.0668  0.0863  0.5036
17965TIP3    H175386   4.503   2.358  12.359  0.7289 -0.1208  0.4392
17965TIP3    H275387   4.504   2.284  12.490 -2.5598  0.9876  1.1831
17966TIP3   OH275388   5.922   0.767   5.246 -0.0778  0.4070  0.1023
17966TIP3    H175389   5.999   0.817   5.217 -0.6854  0.6410 -1.1823
17966TIP3    H275390   5.934   0.680   5.208 -0.9927  0.7809 -1.0944
17967TIP3   OH275391   2.978   1.216   5.273 -0.6180 -0.3646  0.3966
17967TIP3    H175392   2.904   1.223   5.334 -1.9181 -0.9213 -1.0605
17967TIP3    H275393   3.007   1.307   5.261 -0.3376 -0.2417  1.8055
17968TIP3   OH275394   3.421   0.011  11.163 -0.0445  0.0973  0.7799
17968TIP3    H175395   3.488   0.031  11.098 -0.8659 -0.6459 -0.3325
17968TIP3    H275396   3.468  -0.031  11.235  0.9776  1.5544  0.9962
17969TIP3   OH275397   1.609   0.143   4.462 -0.5590 -0.1251  0.0834
17969TIP3    H175398   1.583   0.204   4.532 -0.4290 -1.7307  1.6210
17969TIP3    H275399   1.611   0.197   4.383 -2.0046  1.5071  1.0642
17970TIP3   OH275400   3.556   6.376   3.382  0.1994  0.1447 -0.4863
17970TIP3    H175401   3.471   6.373   3.338  0.1858 -0.7485 -0.4015
17970TIP3    H275402   3.534   6.397   3.473  0.0570 -0.2897 -0.4207
17971TIP3   OH275403   5.533   4.854   3.681 -0.3950 -0.1009 -0.4036
17971TIP3    H175404   5.556   4.776   3.731 -0.0820 -1.9092 -3.1350
17971TIP3    H275405   5.603   4.916   3.701 -1.2504  0.0392  2.7218
17972TIP3   OH275406   0.615   5.955   4.097 -0.3573 -0.0985  0.2418
17972TIP3    H175407   0.681   5.886   4.102 -0.5064 -0.3515 -1.1085
17972TIP3    H275408   0.537   5.917   4.138  0.1199 -0.0379  1.2297
17973TIP3   OH275409   1.712   3.751  16.480 -0.0235 -0.0567 -0.3051
17973TIP3    H175410   1.786   3.760  16.420 -0.4144  1.7314 -0.5727
17973TIP3    H275411   1.638   3.788  16.432 -0.6819 -0.0068  0.7160
17974TIP3   OH275412   5.421   3.543  12.500 -0.0281 -0.3558 -0.3858
17974TIP3    H175413   5.398   3.451  12.511  0.5200 -0.4141  0.3191
17974TIP3    H275414   5.417   3.557  12.405 -2.4616 -0.4640 -0.3526
17975TIP3   OH275415   2.793   3.451   2.145  0.1014 -0.2111 -0.4026
17975TIP3    H175416   2.883   3.418   2.146  0.1095 -0.1875  0.1468
17975TIP3    H275417   2.764   3.445   2.236 -0.5054 -0.3565 -0.6009
17976TIP3   OH275418   2.676   1.878   1.013 -0.0740 -0.9928 -0.2163
17976TIP3    H175419   2.770   1.878   1.030 -0.0751  1.1463  0.0514
17976TIP3    H275420   2.640   1.818   1.078  0.9974 -1.0138  0.3820
17977TIP3   OH275421   1.861   4.903   3.583  0.1034 -0.0229  0.1478
17977TIP3    H175422   1.775   4.866   3.563 -0.4996  0.9033  0.9280
17977TIP3    H275423   1.902   4.839   3.640 -0.7570  0.2701  1.1325
17978TIP3   OH275424   3.706   6.545   2.293  0.1540  0.1106 -0.2124
17978TIP3    H175425   3.640   6.475   2.297  0.7995 -0.4649  0.6976
17978TIP3    H275426   3.775   6.508   2.238 -0.0489  0.5302 -0.7643
17979TIP3   OH275427   3.230   6.253   1.320 -0.1579 -0.0109 -0.5123
17979TIP3    H175428   3.244   6.188   1.389 -0.8537  1.2040  0.8209
17979TIP3    H275429   3.149   6.225   1.277 -1.1960  0.6610  0.9312
17980TIP3   OH275430   1.844   4.138   1.695 -0.0126  0.4713  0.0348
17980TIP3    H175431   1.781   4.210   1.693 -0.7660 -0.1289 -3.0380
17980TIP3    H275432   1.795   4.064   1.729  0.1017  0.8471  1.0385
17981TIP3   OH275433   1.900   0.086  12.156 -0.9855 -0.0106  0.4233
17981TIP3    H175434   1.866   0.028  12.087  1.1195 -2.1226  1.0415
17981TIP3    H275435   1.882   0.040  12.238  0.9816  0.0143  0.9179
17982TIP3   OH275436   3.169   1.643   5.924  0.2229 -0.2760  0.2501
17982TIP3    H175437   3.132   1.681   5.845  1.6174  0.6777  0.0034
17982TIP3    H275438   3.256   1.612   5.897  1.6668  2.0536  1.7951
17983TIP3   OH275439   1.794   4.737  11.466  0.0906  0.2334 -0.0889
17983TIP3    H175440   1.854   4.663  11.477 -0.8090 -0.4436  0.3413
17983TIP3    H275441   1.757   4.752  11.552 -1.8934 -0.6936 -0.7357
17984TIP3   OH275442   1.138   4.406   1.658 -0.4616 -0.5199  0.5746
17984TIP3    H175443   1.111   4.496   1.639  0.2346 -0.3422  0.3924
17984TIP3    H275444   1.233   4.411   1.669 -0.0411 -1.5932 -1.8139
17985TIP3   OH275445   5.534   6.837   0.383 -0.0380  0.4178  0.0144
17985TIP3    H175446   5.511   6.766   0.323 -0.2809 -0.0570  0.6599
17985TIP3    H275447   5.606   6.802   0.435 -0.3891  0.5155  0.5697
17986TIP3   OH275448   3.468   6.494  16.376  0.3194 -0.0006  0.0741
17986TIP3    H175449   3.503   6.538  16.299  1.5364  1.0003  1.1494
17986TIP3    H275450   3.379   6.526  16.385 -0.1844 -0.8624 -1.4294
17987TIP3   OH275451   6.648   2.819   0.968  0.3230  0.9004  0.2835
17987TIP3    H175452   6.676   2.761   1.039  1.1610  2.5814  1.3714
17987TIP3    H275453   6.557   2.841   0.991 -0.0698 -0.0901 -0.2418
17988TIP3   OH275454   4.723   3.021  14.693 -0.0662  0.4673 -0.4264
17988TIP3    H175455   4.671   3.023  14.613 -1.6739 -2.2678  0.4438
17988TIP3    H275456   4.714   3.109  14.729 -3.0613  0.4940 -0.9875
17989TIP3   OH275457   1.688   3.201   5.451 -0.5911  0.7481  0.1454
17989TIP3    H175458   1.632   3.150   5.392  1.6379 -0.4277 -1.0906
17989TIP3    H275459   1.713   3.278   5.400  0.5469  0.2214 -0.1289
17990TIP3   OH275460   6.397   2.464   5.187 -0.3251 -0.4904  0.4918
17990TIP3    H175461   6.342   2.397   5.226  1.9749 -1.4741  2.3196
17990TIP3    H275462   6.404   2.532   5.254 -0.5365  0.3629 -0.3279
17991TIP3   OH275463   1.814   0.269  14.183  0.1301 -0.3562  0.2894
17991TIP3    H175464   1.853   0.353  14.159 -0.1649 -0.3044 -0.0218
17991TIP3    H275465   1.783   0.281  14.273  0.7304 -0.3645  0.5028
17992TIP3   OH275466   3.397   0.211   2.699  0.1809 -0.0038 -0.2597
17992TIP3    H175467   3.405   0.138   2.637  1.7405  0.9980 -1.3278
17992TIP3    H275468   3.439   0.180   2.778  0.6521 -0.3450 -0.6379
17993TIP3   OH275469   6.365   2.768   2.282  0.7629  0.0525 -0.4320
17993TIP3    H175470   6.330   2.857   2.280 -0.7622 -0.5068 -0.0264
17993TIP3    H275471   6.457   2.779   2.304  0.0756  1.4196  2.1695
17994TIP3   OH275472   2.563   4.245   6.350 -0.0280  0.2572  0.0422
17994TIP3    H175473   2.576   4.234   6.445  0.1375 -0.2092 -0.0344
17994TIP3    H275474   2.468   4.243   6.340 -0.0227 -0.8584  0.0696
17995TIP3   OH275475   5.600   2.339   3.262  0.4338  0.4076  0.2181
17995TIP3    H175476   5.564   2.292   3.338 -0.7197 -1.8863 -1.6285
17995TIP3    H275477   5.624   2.425   3.297  1.9939 -1.2225  3.6730
17996TIP3   OH275478   4.407   0.122   4.330  0.1940  0.1315  0.2975
17996TIP3    H175479   4.365   0.077   4.257  0.2909 -0.4323  0.5826
17996TIP3    H275480   4.501   0.114   4.313  0.2113  0.3097  0.3033
17997TIP3   OH275481   3.335   4.652   4.361  0.0016 -0.2304 -0.1654
17997TIP3    H175482   3.416   4.643   4.410  0.3147 -2.1948 -0.9322
17997TIP3    H275483   3.310   4.562   4.339 -3.3992  0.0938  1.6056
17998TIP3   OH275484   0.104   1.021   4.004  0.3922  0.2246 -0.2017
17998TIP3    H175485   0.109   1.036   3.910  0.5521 -1.1090 -0.4200
17998TIP3    H275486   0.189   1.048   4.038  0.4637  0.3618 -0.4908
17999TIP3   OH275487   0.693   0.325   5.592 -0.0668 -0.0528 -0.4726
17999TIP3    H175488   0.644   0.335   5.674 -3.0763 -0.5185 -2.0786
17999TIP3    H275489   0.750   0.402   5.590  1.9133 -1.1730  3.0724
18000TIP3   OH275490   1.145   6.772  14.012  0.2397 -0.1524 -0.2473
18000TIP3    H175491   1.149   6.678  14.028 -0.3780 -0.1821 -0.2387
18000TIP3    H275492   1.055   6.788  13.983 -0.1633  0.6683  1.3030
18001TIP3   OH275493   6.756   1.729  13.958  0.0511  0.7184 -0.1585
18001TIP3    H175494   6.708   1.799  14.000  0.7928  0.1094  1.8108
18001TIP3    H275495   6.764   1.661  14.025  0.3216 -0.7946 -1.6456
18002TIP3   OH275496   5.240   0.371  11.052  0.3894  0.1358 -0.3222
18002TIP3    H175497   5.324   0.418  11.049  0.4923 -0.1117 -1.8827
18002TIP3    H275498   5.247   0.306  10.982 -1.1572  0.1900 -0.5463
18003TIP3   OH275499   3.802   5.493   2.125 -0.0047 -0.6151 -0.6979
18003TIP3    H175500   3.850   5.556   2.071  0.3628 -1.2247 -1.0852
18003TIP3    H275501   3.732   5.461   2.069  1.9195 -3.2157 -1.7909
18004TIP3   OH275502   2.060   6.631  15.907 -0.4156 -0.2153 -0.2344
18004TIP3    H175503   1.990   6.685  15.944  0.0937 -1.0652  2.1893
18004TIP3    H275504   2.025   6.542  15.909 -0.7019 -0.2190 -2.8032
18005TIP3   OH275505   0.288   3.242  13.812  0.3910 -0.1176 -0.0882
18005TIP3    H175506   0.349   3.269  13.744 -1.1304 -2.7758 -2.7112
18005TIP3    H275507   0.308   3.150  13.829 -1.9984 -0.7271 -0.1195
18006TIP3   OH275508   4.162   0.252   4.446  0.5692  0.1525 -0.3710
18006TIP3    H175509   4.242   0.200   4.439  0.5782 -0.0084  0.7372
18006TIP3    H275510   4.101   0.211   4.384  0.5849 -1.1788  0.4469
18007TIP3   OH275511   6.752   2.486  12.368 -0.0787 -0.5009  0.2635
18007TIP3    H175512   6.680   2.466  12.309 -0.0991 -3.4627  1.1178
18007TIP3    H275513   6.713   2.487  12.455  0.9024 -2.5541  0.7765
18008TIP3   OH275514   4.754   5.290  10.963  0.2290  0.5562 -0.5940
18008TIP3    H175515   4.813   5.215  10.953 -0.6985 -0.1856 -0.6356
18008TIP3    H275516   4.752   5.307  11.057  0.9881  1.0023 -0.6421
18009TIP3   OH275517   2.975   3.707   1.861  0.3865 -0.0080 -0.6709
18009TIP3    H175518   2.924   3.721   1.782  0.0872 -0.1257 -0.4982
18009TIP3    H275519   3.042   3.776   1.859 -1.6785  2.1693  0.6881
18010TIP3   OH275520   6.172   2.733  15.399  0.0761  0.1570  0.0584
18010TIP3    H175521   6.242   2.730  15.464 -0.6558 -0.7975  0.8265
18010TIP3    H275522   6.200   2.671  15.331  0.2926  0.2883  0.0257
18011TIP3   OH275523   6.027   0.164  14.023 -0.1382 -0.6595 -0.1848
18011TIP3    H175524   6.086   0.218  14.076  0.4993  0.4648 -1.9493
18011TIP3    H275525   5.941   0.205  14.034 -0.1870 -0.9416  0.5985
18012TIP3   OH275526   0.603   3.136  14.353  0.5813  0.1028 -0.1807
18012TIP3    H175527   0.637   3.226  14.358 -0.6407  0.5057  2.2791
18012TIP3    H275528   0.615   3.101  14.441 -2.2735 -0.8564 -0.0810
18013TIP3   OH275529   1.526   3.586   5.078 -0.4029  0.4249  0.1808
18013TIP3    H175530   1.518   3.651   5.148 -0.0453 -0.2861  0.8802
18013TIP3    H275531   1.435   3.563   5.057 -0.4803 -0.7545  1.7167
18014TIP3   OH275532   4.250   5.865   5.538 -0.2174 -0.3621  0.0375
18014TIP3    H175533   4.164   5.898   5.563 -0.4559 -1.4981  0.7459
18014TIP3    H275534   4.298   5.943   5.510 -1.2707  0.3638  0.2031
18015TIP3   OH275535   1.493   5.281  12.188 -0.1072  0.2371  0.3236
18015TIP3    H175536   1.455   5.250  12.105  1.0282 -0.5175  0.0625
18015TIP3    H275537   1.534   5.364  12.165  1.2253 -0.5320 -0.1701
18016TIP3   OH275538   1.017   2.719   0.781 -0.3736 -0.4512  0.0729
18016TIP3    H175539   1.092   2.759   0.737 -0.8205 -0.6916 -0.9409
18016TIP3    H275540   1.035   2.730   0.874  0.0715  1.0606 -0.1703
18017TIP3   OH275541   6.674   0.703   4.378  0.6590  0.5150  0.3712
18017TIP3    H175542   6.754   0.701   4.325  1.4528 -2.0972  1.4972
18017TIP3    H275543   6.684   0.779   4.435  2.0201  0.6478 -0.0242
18018TIP3   OH275544   1.370   0.503   2.333 -0.2850 -0.1980  0.0491
18018TIP3    H175545   1.318   0.547   2.399 -0.6206  0.5197 -0.6770
18018TIP3    H275546   1.320   0.425   2.310 -1.2480  0.6821 -0.9164
18019TIP3   OH275547   3.703   5.629   5.865  0.1609  0.1233  0.0473
18019TIP3    H175548   3.657   5.662   5.943  1.5270 -0.1565  1.0129
18019TIP3    H275549   3.706   5.534   5.878  1.9294  0.2076  0.5846
18020TIP3   OH275550   1.902   2.750   1.475  0.0086  0.0476 -0.3448
18020TIP3    H175551   1.868   2.836   1.500 -1.0088 -0.7598  1.1553
18020TIP3    H275552   1.825   2.698   1.454  0.5677 -0.7216 -0.5467
18021TIP3   OH275553   4.958   1.214   2.908  0.1451  0.0540 -0.7257
18021TIP3    H175554   4.991   1.149   2.846 -1.0306 -0.9794 -0.3190
18021TIP3    H275555   4.959   1.296   2.860  2.2780 -0.1056 -1.0524
18022TIP3   OH275556   3.780   0.741   5.264 -0.0412  0.6561  0.0001
18022TIP3    H175557   3.871   0.772   5.273 -0.5546  1.7132  2.5730
18022TIP3    H275558   3.738   0.806   5.207  0.9855 -0.3762 -2.0305
18023TIP3   OH275559   3.905   0.045   3.327  0.3811 -0.3108 -0.3165
18023TIP3    H175560   3.892   0.013   3.238 -1.5525 -0.7729  0.0842
18023TIP3    H275561   3.994   0.018   3.350  0.3188 -1.6481 -1.5282
18024TIP3   OH275562   1.637   0.649   4.482  0.5461 -1.1055 -0.0397
18024TIP3    H175563   1.578   0.586   4.524  0.8877 -0.9537  0.6826
18024TIP3    H275564   1.616   0.733   4.523  0.0784 -0.7385 -1.0155
18025TIP3   OH275565   5.581   4.096  12.015  0.1417 -0.1224  0.0709
18025TIP3    H175566   5.612   4.137  11.934 -0.4802  3.0973  1.3089
18025TIP3    H275567   5.506   4.150  12.042 -0.3485 -1.7551  2.2181
18026TIP3   OH275568   2.573   5.411  15.684 -0.3575 -0.0593 -0.2574
18026TIP3    H175569   2.557   5.502  15.707 -1.8893 -0.4898  0.5213
18026TIP3    H275570   2.526   5.361  15.750  2.4237 -1.4963  0.8220
18027TIP3   OH275571   4.647   6.269  14.131  0.0758 -0.1596 -0.5062
18027TIP3    H175572   4.692   6.354  14.131  0.3975 -0.3252 -0.0708
18027TIP3    H275573   4.610   6.261  14.043  1.2881 -0.2039 -1.0320
18028TIP3   OH275574   4.351   5.396  16.140  0.0366  0.0000  0.1178
18028TIP3    H175575   4.410   5.404  16.216 -0.1464 -0.9521  0.3789
18028TIP3    H275576   4.354   5.303  16.118  1.6184  0.5338 -2.3043
18029TIP3   OH275577   1.011   4.305  15.849 -0.2314  0.1176  0.9008
18029TIP3    H175578   1.005   4.213  15.875  1.2026 -0.9894 -2.2226
18029TIP3    H275579   1.089   4.337  15.893  2.4824 -1.8704 -2.0171
18030TIP3   OH275580   5.418   5.877   4.117  0.1517 -0.6322 -0.2173
18030TIP3    H175581   5.459   5.927   4.046  0.8925 -0.5520  0.2493
18030TIP3    H275582   5.389   5.943   4.180  0.2298 -0.7403 -0.0673
18031TIP3   OH275583   2.197   1.023  10.624  0.2220  0.0986 -0.0776
18031TIP3    H175584   2.170   1.047  10.713 -0.5599  1.1786 -0.5916
18031TIP3    H275585   2.243   1.099  10.590 -0.2938  0.0486 -0.9256
18032TIP3   OH275586   6.524   0.530   1.363  0.0482 -0.3296 -0.1086
18032TIP3    H175587   6.476   0.461   1.316  0.1243  0.4411 -1.3810
18032TIP3    H275588   6.612   0.526   1.325 -0.9977  3.2967 -3.5773
18033TIP3   OH275589   0.495   4.766  13.725  0.2853 -0.0402  0.0686
18033TIP3    H175590   0.569   4.706  13.724 -1.5603 -2.4220 -0.7372
18033TIP3    H275591   0.476   4.783  13.633  0.9330  2.1151  0.2667
18034TIP3   OH275592   3.905   6.412  13.177  0.6971  0.6551 -0.3229
18034TIP3    H175593   3.811   6.397  13.162  0.9790 -1.5123 -0.2695
18034TIP3    H275594   3.938   6.444  13.094  0.3168 -0.9884 -1.1500
18035TIP3   OH275595   1.006   5.684  13.692  0.3007 -0.1985  0.0439
18035TIP3    H175596   1.092   5.718  13.667  2.5804 -3.6004  2.3852
18035TIP3    H275597   0.994   5.712  13.783 -1.4770  0.7744 -0.4352
18036TIP3   OH275598   3.110   0.060  16.275 -0.0871  0.1133 -0.1109
18036TIP3    H175599   3.120   0.117  16.352 -0.4266 -0.6888  0.5486
18036TIP3    H275600   3.033   0.007  16.295  1.0302 -1.5479 -0.0625
18037TIP3   OH275601   2.741   6.621  11.703 -0.4008  0.1068  0.0304
18037TIP3    H175602   2.723   6.585  11.790 -0.7966  0.0367 -0.0759
18037TIP3    H275603   2.662   6.600  11.653  0.1159 -0.4826 -0.5507
18038TIP3   OH275604   4.814   5.132  15.521 -0.2759  0.3091 -0.5840
18038TIP3    H175605   4.807   5.225  15.497  0.8038  0.6476  0.3389
18038TIP3    H275606   4.892   5.102  15.474 -1.4258 -0.5306 -2.0249
18039TIP3   OH275607   5.022   4.970  11.329 -0.1541  0.9992 -0.4617
18039TIP3    H175608   5.007   4.887  11.374  0.5938  0.9839 -0.2276
18039TIP3    H275609   5.116   4.973  11.315 -0.3289  1.1861 -1.6857
18040TIP3   OH275610   1.697   2.554   0.408 -0.3060 -0.1241  0.1454
18040TIP3    H175611   1.766   2.492   0.433 -1.2056 -0.9352  0.6858
18040TIP3    H275612   1.728   2.593   0.326  1.8294  1.1801  1.4800
18041TIP3   OH275613   4.747   3.857   3.908  0.3083  0.0588 -0.6751
18041TIP3    H175614   4.744   3.763   3.924  0.5289  0.1632  0.0257
18041TIP3    H275615   4.705   3.868   3.823  0.5335 -0.6971 -0.8918
18042TIP3   OH275616   0.817   5.675   1.334 -0.7627  0.0202 -0.1816
18042TIP3    H175617   0.750   5.720   1.283 -0.3185  0.4805 -0.3661
18042TIP3    H275618   0.856   5.743   1.388  1.6387  0.4724 -2.2546
18043TIP3   OH275619   3.288   2.681  11.157 -0.5381 -0.3287 -0.0453
18043TIP3    H175620   3.334   2.717  11.233 -2.0200 -0.1576  0.8013
18043TIP3    H275621   3.224   2.748  11.133 -2.8055 -1.9460  1.0692
18044TIP3   OH275622   0.139   6.689   3.548 -0.0520  0.2826  0.1209
18044TIP3    H175623   0.092   6.654   3.473 -0.7962  3.2585 -0.9476
18044TIP3    H275624   0.229   6.700   3.518 -0.0285  0.1385  0.1405
18045TIP3   OH275625   3.184   2.633   0.806 -0.0813  0.6295  0.4607
18045TIP3    H175626   3.131   2.594   0.875  0.2070  2.0623  1.5193
18045TIP3    H275627   3.120   2.671   0.746 -0.2982  1.5823  1.2726
18046TIP3   OH275628   4.247   0.160   3.820 -0.0036  0.0609  0.0413
18046TIP3    H175629   4.194   0.236   3.793 -0.9589 -0.7181 -0.3235
18046TIP3    H275630   4.197   0.120   3.891  0.0562 -0.7377 -0.3605
18047TIP3   OH275631   3.071   0.836  12.746 -0.0959 -0.1522 -0.3453
18047TIP3    H175632   3.061   0.805  12.656 -1.7019 -0.5935 -0.0495
18047TIP3    H275633   3.112   0.762  12.792 -2.0562 -1.1672 -0.0941
18048TIP3   OH275634   6.415   0.844  16.003  0.0377 -0.0698  0.1824
18048TIP3    H175635   6.484   0.824  15.940 -1.1590  0.3921 -1.3500
18048TIP3    H275636   6.351   0.773  15.990  0.3937 -0.7495  1.9007
18049TIP3   OH275637   3.160   6.791   0.285 -0.0385  0.3879 -0.1146
18049TIP3    H175638   3.105   6.747   0.220 -1.0192  2.5109 -0.8186
18049TIP3    H275639   3.119   6.770   0.369  0.5914 -1.4733 -0.2254
18050TIP3   OH275640   1.159   6.516  14.032 -0.6244  0.5802  0.0616
18050TIP3    H175641   1.144   6.488  14.123 -1.4072  1.7602  0.3118
18050TIP3    H275642   1.250   6.494  14.015 -0.9143 -1.1917  0.5680
18051TIP3   OH275643   1.421   4.781  12.872 -0.2478  0.1911  0.7004
18051TIP3    H175644   1.337   4.804  12.833  1.1090  1.3397 -1.8151
18051TIP3    H275645   1.429   4.840  12.947 -1.0813  1.1035  0.1054
18052TIP3   OH275646   6.702   2.592   5.819 -0.4593  0.1922 -0.2203
18052TIP3    H175647   6.686   2.512   5.869  1.0180 -0.9731 -1.5161
18052TIP3    H275648   6.693   2.566   5.727  0.9206  1.2691 -0.7072
18053TIP3   OH275649   0.901   6.433  13.424  0.4087  0.4017 -0.0463
18053TIP3    H175650   0.935   6.493  13.490 -0.1222  0.0611  0.5551
18053TIP3    H275651   0.978   6.388  13.390  0.6955  0.6433  0.2814
18054TIP3   OH275652   6.283   6.496  16.362 -0.0947 -0.0275 -0.2280
18054TIP3    H175653   6.205   6.519  16.413 -0.1252 -0.6581  0.0210
18054TIP3    H275654   6.356   6.534  16.410 -0.2964  1.2409 -0.8718
18055TIP3   OH275655   5.934   3.921   1.939  0.1381 -0.2020 -1.1368
18055TIP3    H175656   6.016   3.953   1.901 -0.1874  1.7692 -0.3037
18055TIP3    H275657   5.954   3.911   2.033 -0.3906 -0.3602 -1.0428
18056TIP3   OH275658   3.037   3.232  13.602 -0.5070 -0.6087 -0.0887
18056TIP3    H175659   2.943   3.226  13.618 -0.4347  1.2246  1.4000
18056TIP3    H275660   3.048   3.204  13.511 -2.3763 -1.6054 -0.0363
18057TIP3   OH275661   3.529   4.646   0.103 -0.0098  0.0708  0.1996
18057TIP3    H175662   3.505   4.667   0.013  0.6027  0.2720  0.0801
18057TIP3    H275663   3.445   4.638   0.149 -0.3367  3.6546  0.4902
18058TIP3   OH275664   3.681   6.345  12.502  0.6416 -0.0347  0.0453
18058TIP3    H175665   3.592   6.315  12.484  0.1235  1.4234  0.0865
18058TIP3    H275666   3.707   6.393  12.423  0.5670  1.3638  0.8351
18059TIP3   OH275667   3.849   0.190  11.153 -0.8108  0.5830 -0.1619
18059TIP3    H175668   3.834   0.191  11.058 -0.1654  2.3800 -0.2975
18059TIP3    H275669   3.769   0.155  11.190 -0.7768 -0.9163 -1.4004
18060TIP3   OH275670   6.213   1.717  13.056  0.6473  0.2567 -0.0768
18060TIP3    H175671   6.255   1.759  12.980  0.1872  0.2540 -0.3352
18060TIP3    H275672   6.238   1.625  13.049  1.0239  0.3472  0.0606
18061TIP3   OH275673   2.755   0.351  11.890 -0.4918 -0.3434  0.7317
18061TIP3    H175674   2.733   0.412  11.820  1.0181  0.1467  0.6458
18061TIP3    H275675   2.724   0.394  11.970  1.3420  1.0471  0.7803
18062TIP3   OH275676   0.848   4.068  12.296 -0.5011  0.2386 -0.1547
18062TIP3    H175677   0.873   4.158  12.316 -2.2473  0.6911  0.1999
18062TIP3    H275678   0.928   4.017  12.308  0.4074  1.6732  0.0772
18063TIP3   OH275679   6.189   3.950  14.645 -0.2098 -0.2831 -0.4822
18063TIP3    H175680   6.149   4.035  14.624 -0.5166 -0.3365 -0.1312
18063TIP3    H275681   6.232   3.964  14.729 -1.6965 -0.9128  0.4313
18064TIP3   OH275682   0.208   5.374   3.450  0.0379  0.5701 -0.3136
18064TIP3    H175683   0.296   5.411   3.437  1.0533 -1.4431  0.4404
18064TIP3    H275684   0.196   5.375   3.545  0.1077 -1.0295 -0.2768
18065TIP3   OH275685   1.146   1.363  13.232 -0.0702 -0.1415 -0.7687
18065TIP3    H175686   1.158   1.282  13.183 -2.4732  1.0600 -3.6172
18065TIP3    H275687   1.229   1.411  13.221 -0.0926 -0.4722 -2.6025
18066TIP3   OH275688   3.013   2.066   3.809  0.5355  0.0826 -0.1022
18066TIP3    H175689   3.062   2.149   3.808  2.2805 -0.8979 -0.6118
18066TIP3    H275690   3.054   2.016   3.879 -2.5545  0.7344  2.3728
18067TIP3   OH275691   1.977   3.780  16.351  0.1367  0.1807  0.4387
18067TIP3    H175692   1.966   3.730  16.270 -0.3611  0.3052  0.4258
18067TIP3    H275693   1.982   3.871  16.323 -1.1560  0.3301  0.6177
18068TIP3   OH275694   4.194   4.287  11.185  0.6128 -0.6279 -0.4668
18068TIP3    H175695   4.137   4.338  11.128  0.8840  0.4428  0.1913
18068TIP3    H275696   4.277   4.284  11.139  1.2830  1.4920  0.4449
18069TIP3   OH275697   4.371   3.032  12.379  0.1580  0.4599  0.1345
18069TIP3    H175698   4.413   3.024  12.294  0.6702 -0.5619  0.4603
18069TIP3    H275699   4.438   3.004  12.442 -0.0754  1.5670  0.9223
18070TIP3   OH275700   5.140   5.854   4.645 -0.2851 -0.2719 -0.1009
18070TIP3    H175701   5.050   5.823   4.651 -0.5352  0.5862  0.8681
18070TIP3    H275702   5.165   5.839   4.554 -2.1365  1.4085 -0.9600
18071TIP3   OH275703   3.518   2.250  13.987  0.4801  0.0876 -0.1290
18071TIP3    H175704   3.460   2.184  14.025  1.1985 -0.0363  0.7659
18071TIP3    H275705   3.514   2.233  13.893  1.2308 -1.7139  0.1284
18072TIP3   OH275706   0.762   2.963   5.216  0.0817  0.1672  0.3077
18072TIP3    H175707   0.843   3.013   5.208  0.4453 -0.5190 -0.3668
18072TIP3    H275708   0.763   2.902   5.143  0.1816 -1.5965  1.7086
18073TIP3   OH275709   5.139   6.727  12.195  0.2660  0.0124 -0.2989
18073TIP3    H175710   5.179   6.798  12.144 -0.1640  0.6048  0.1783
18073TIP3    H275711   5.069   6.694  12.139  0.6067 -0.1898 -0.6134
18074TIP3   OH275712   3.188   6.312   2.069  0.4142  0.3799 -0.2497
18074TIP3    H175713   3.250   6.274   2.007  0.1504  0.3660 -0.5125
18074TIP3    H275714   3.134   6.237   2.097  2.3769 -0.2201  2.2818
18075TIP3   OH275715   5.744   4.695   5.697 -0.1677  0.1798  0.5726
18075TIP3    H175716   5.835   4.665   5.705  0.2097  1.4545  1.2575
18075TIP3    H275717   5.704   4.633   5.635  1.2235 -0.2606  0.0777
18076TIP3   OH275718   1.620   1.485  16.108  0.0456  0.1164  0.2599
18076TIP3    H175719   1.537   1.441  16.130 -1.4029  2.5618  0.0613
18076TIP3    H275720   1.655   1.514  16.192  0.0823  0.1195  0.2431
18077TIP3   OH275721   3.909   1.315   6.045 -0.2530  0.5681  0.0820
18077TIP3    H175722   3.970   1.242   6.060 -1.2259 -0.0164  1.4041
18077TIP3    H275723   3.952   1.391   6.083  0.4419  0.5482 -0.6367
18078TIP3   OH275724   5.418   2.750   4.947  0.0062 -0.0209 -1.0507
18078TIP3    H175725   5.494   2.724   4.896 -1.1227 -0.1891 -2.7386
18078TIP3    H275726   5.411   2.845   4.932 -2.2823 -0.5312 -4.1881
18079TIP3   OH275727   0.381   4.811   4.766  0.1981 -0.7083  0.2797
18079TIP3    H175728   0.364   4.773   4.680  1.7119 -1.2116  0.1574
18079TIP3    H275729   0.333   4.755   4.827 -1.5785  0.1558 -0.2736
18080TIP3   OH275730   0.363   2.217  15.664 -0.6761 -0.3744  0.4266
18080TIP3    H175731   0.425   2.227  15.736  0.3824 -2.1732 -0.1644
18080TIP3    H275732   0.417   2.193  15.589 -1.9831 -0.9426 -0.3724
18081TIP3   OH275733   6.403   2.971  16.472  0.0302  0.0701  0.3295
18081TIP3    H175734   6.494   2.980  16.500 -0.0356 -0.1648  0.6300
18081TIP3    H275735   6.383   2.878  16.486  0.6787 -0.6370 -2.5760
18082TIP3   OH275736   5.185   3.799  13.247 -0.0890 -0.7010  0.3946
18082TIP3    H175737   5.100   3.796  13.290  0.1829 -2.0708  0.8760
18082TIP3    H275738   5.203   3.709  13.221  1.7642 -0.6851  1.4022
18083TIP3   OH275739   4.907   6.317   0.218  0.0231  0.3914  0.2704
18083TIP3    H175740   4.882   6.403   0.186  2.0973  1.1661  0.5830
18083TIP3    H275741   4.887   6.257   0.146  1.6158  1.6357 -1.2871
18084TIP3   OH275742   0.310   2.209   0.136  0.5974 -0.6011  0.5739
18084TIP3    H175743   0.396   2.168   0.125  1.0386  0.4367  0.1067
18084TIP3    H275744   0.261   2.145   0.188  1.5309 -1.3601  0.5672
18085TIP3   OH275745   1.596   3.370  16.022 -0.0325 -0.2948 -0.3198
18085TIP3    H175746   1.612   3.409  15.936  0.2430  1.5869  0.5390
18085TIP3    H275747   1.671   3.314  16.038  0.8810  0.8372 -0.5264
18086TIP3   OH275748   4.079   4.998  10.933  0.1935 -1.0366 -0.1662
18086TIP3    H175749   4.090   4.944  10.854 -0.4623  0.0884 -1.0527
18086TIP3    H275750   4.053   5.084  10.900  0.7831 -0.2806  1.2365
18087TIP3   OH275751   3.503   3.375  16.492  0.4259 -0.1502  0.5161
18087TIP3    H175752   3.545   3.414  16.416  0.9606 -2.3707 -0.4221
18087TIP3    H275753   3.555   3.404  16.566  0.3235  1.4824 -0.0095
18088TIP3   OH275754   5.758   6.121  12.668  0.3119  0.3132 -0.2559
18088TIP3    H175755   5.771   6.161  12.754  1.3591  0.8277 -0.6399
18088TIP3    H275756   5.667   6.089  12.671 -0.1317  1.5384  0.5415
18089TIP3   OH275757   2.213   6.803   4.051 -0.4650 -0.7516  0.5528
18089TIP3    H175758   2.176   6.826   4.136  0.3607 -0.4564  0.8374
18089TIP3    H275759   2.139   6.807   3.991 -0.5202  2.1950  0.6542
18090TIP3   OH275760   2.374   2.323   1.911 -0.6750  0.3034 -0.0366
18090TIP3    H175761   2.323   2.400   1.939  0.3493  0.6343  0.9831
18090TIP3    H275762   2.313   2.273   1.856 -1.5968  1.4689 -0.1257
18091TIP3   OH275763   5.946   5.788   2.336  0.0008 -0.2611 -0.1940
18091TIP3    H175764   5.896   5.741   2.268  0.9013  0.0534 -1.1063
18091TIP3    H275765   5.890   5.862   2.359 -0.3024 -0.3397 -0.6487
18092TIP3   OH275766   2.757   3.520  13.204  0.8968  0.3216  0.1045
18092TIP3    H175767   2.823   3.545  13.268  0.5831 -0.3904  0.7150
18092TIP3    H275768   2.774   3.427  13.187  0.1193  0.1540  0.2024
18093TIP3   OH275769   3.526   4.090  12.107 -0.2065 -0.6044 -0.1529
18093TIP3    H175770   3.577   4.170  12.098 -0.3078 -0.6320 -1.1234
18093TIP3    H275771   3.583   4.021  12.072 -0.1036 -0.9681  0.7081
18094TIP3   OH275772   5.107   6.496  11.441 -0.4403 -0.1547  0.1217
18094TIP3    H175773   5.169   6.562  11.410 -0.8744  1.4829  2.5260
18094TIP3    H275774   5.157   6.414  11.439  1.6205  0.9899  1.2876
18095TIP3   OH275775   6.148   1.580  12.033 -0.4736 -0.0477 -0.6451
18095TIP3    H175776   6.173   1.568  11.941 -0.6066 -1.4538 -0.5130
18095TIP3    H275777   6.053   1.571  12.033 -0.6003  1.1292 -0.5243
18096TIP3   OH275778   5.299   5.953  13.827  0.0253  0.1935  0.1070
18096TIP3    H175779   5.221   5.985  13.783  0.4305  0.1330 -0.6808
18096TIP3    H275780   5.283   5.859  13.840 -0.2335  0.2775  0.3825
18097TIP3   OH275781   3.332   2.016   4.578  0.3327 -0.0746  0.3019
18097TIP3    H175782   3.298   2.042   4.493  2.1985  0.3771 -0.3457
18097TIP3    H275783   3.339   1.920   4.573  2.7903  0.1024 -1.0547
18098TIP3   OH275784   5.874   2.945  16.288  0.1424  0.3547 -0.0242
18098TIP3    H175785   5.917   2.859  16.288 -0.0554  0.2522 -0.3135
18098TIP3    H275786   5.789   2.928  16.248  0.2180  0.7462 -0.3518
18099TIP3   OH275787   0.405   1.060   6.177 -0.9327 -0.3497  0.3489
18099TIP3    H175788   0.444   0.989   6.229  0.3096 -0.2625 -0.4194
18099TIP3    H275789   0.477   1.120   6.160 -1.7192  0.5292  0.0299
18100TIP3   OH275790   5.852   0.936   4.714  0.2136  0.7639 -0.0185
18100TIP3    H175791   5.933   0.961   4.758  1.3608 -0.3370 -1.4029
18100TIP3    H275792   5.881   0.898   4.630 -1.6896 -0.1942 -0.2993
18101TIP3   OH275793   4.324   6.678   2.546 -0.3813 -0.5325 -0.3253
18101TIP3    H175794   4.387   6.700   2.477  1.4682  2.4000  2.0103
18101TIP3    H275795   4.273   6.758   2.558 -1.6008 -1.4297  0.7820
18102TIP3   OH275796   1.065   5.997  14.133 -0.9071 -0.2744  0.2228
18102TIP3    H175797   1.101   6.067  14.078 -0.6762 -0.2801  0.3646
18102TIP3    H275798   0.975   6.023  14.148 -0.3294  0.9809  1.8382
18103TIP3   OH275799   2.959   1.129  11.874 -0.4379  0.1543  0.6593
18103TIP3    H175800   2.988   1.220  11.880 -1.3164  0.4517  0.4953
18103TIP3    H275801   2.988   1.089  11.956 -0.9079  0.8428  1.1714
18104TIP3   OH275802   2.061   0.429  12.746  0.1948 -0.2615 -0.5142
18104TIP3    H175803   1.972   0.395  12.751  0.0096  0.2096 -0.5821
18104TIP3    H275804   2.084   0.423  12.653 -0.1017  0.4596 -0.6389
18105TIP3   OH275805   4.613   2.825   5.048  0.2792 -0.1262 -0.6351
18105TIP3    H175806   4.600   2.740   5.006 -0.2927 -1.2782  1.7372
18105TIP3    H275807   4.527   2.867   5.046  0.4327  0.1687 -1.2918
18106TIP3   OH275808   3.571   0.610  11.326  0.2373  0.0636 -0.1914
18106TIP3    H175809   3.646   0.653  11.286  0.3529  2.2134  2.0708
18106TIP3    H275810   3.583   0.518  11.306  3.6206  0.2709  0.2272
18107TIP3   OH275811   0.617   2.498   6.402  0.3472 -0.0580 -0.1946
18107TIP3    H175812   0.590   2.521   6.314  1.7108 -0.3284 -0.7075
18107TIP3    H275813   0.545   2.445   6.436 -0.3691  0.3830 -0.9849
18108TIP3   OH275814   4.918   1.848   0.273  0.1595 -0.2035  0.3040
18108TIP3    H175815   4.944   1.773   0.325  1.5679  0.2203  0.2470
18108TIP3    H275816   4.943   1.826   0.184  0.9910  0.4818  0.3479
18109TIP3   OH275817   6.222   2.858  16.936  0.2731 -0.6190 -0.0797
18109TIP3    H175818   6.250   2.915  16.865 -0.7151  0.0770  0.0728
18109TIP3    H275819   6.275   2.885  17.012 -0.2968  0.2215  0.0343
18110TIP3   OH275820   5.467   4.187   0.889  0.0076  0.7154  0.2603
18110TIP3    H175821   5.542   4.133   0.864 -1.3202 -0.8862 -0.4337
18110TIP3    H275822   5.420   4.203   0.807 -1.0215  0.6928  0.8255
18111TIP3   OH275823   0.963   0.783   0.158  0.2891 -0.2934  0.2429
18111TIP3    H175824   0.939   0.798   0.249 -0.1615 -0.7962  0.2154
18111TIP3    H275825   0.886   0.811   0.108 -0.3294 -2.0117  0.1586
18112TIP3   OH275826   2.688   2.930  12.194 -0.2439 -0.0529  0.4675
18112TIP3    H175827   2.597   2.899  12.197 -0.4341  0.5220  0.6603
18112TIP3    H275828   2.705   2.964  12.281 -0.2356  0.9483  0.0824
18113TIP3   OH275829   3.020   5.305  16.251  0.1659 -1.0732  0.0515
18113TIP3    H175830   3.098   5.255  16.276 -0.2692 -1.3998  0.7827
18113TIP3    H275831   3.025   5.384  16.304  0.1871 -0.9283 -0.1681
18114TIP3   OH275832   6.761   0.066  14.203  0.5298 -0.5511  0.1506
18114TIP3    H175833   6.788   0.050  14.294  0.7271 -0.4128  0.1180
18114TIP3    H275834   6.701  -0.005  14.183 -0.8877  0.3752  0.9606
18115TIP3   OH275835   0.268   3.206   3.780 -0.1058 -1.1180 -0.3668
18115TIP3    H175836   0.306   3.261   3.848 -0.8633  0.2786 -1.0143
18115TIP3    H275837   0.209   3.265   3.733 -0.7782 -2.4535 -1.2422
18116TIP3   OH275838   2.488   0.407  14.390 -0.1757  0.4707  0.1294
18116TIP3    H175839   2.496   0.351  14.467  0.5251  0.6486  0.1897
18116TIP3    H275840   2.507   0.348  14.316 -0.4028  0.4081  0.1179
18117TIP3   OH275841   6.165   2.656   6.480 -0.2588 -0.3215 -1.0424
18117TIP3    H175842   6.119   2.573   6.465 -0.0117 -0.4606 -1.0435
18117TIP3    H275843   6.102   2.723   6.455 -0.1818 -0.5286 -1.8535
18118TIP3   OH275844   2.643   2.153   1.865 -0.2696  0.2287  1.0208
18118TIP3    H175845   2.635   2.062   1.836 -0.3359  0.7990 -0.8759
18118TIP3    H275846   2.554   2.186   1.866 -0.0403  1.0022 -0.9156
18119TIP3   OH275847   4.688   1.327   2.911 -0.2850  0.1089  0.0570
18119TIP3    H175848   4.733   1.406   2.942  0.4866  0.5404 -1.9695
18119TIP3    H275849   4.752   1.257   2.925  1.0523  0.6797 -2.5715
18120TIP3   OH275850   0.424   5.597   1.100  0.2429  0.0835 -0.2686
18120TIP3    H175851   0.338   5.621   1.066 -1.8379 -1.7797  3.1382
18120TIP3    H275852   0.453   5.526   1.043  0.0136  1.2921 -1.9739
18121TIP3   OH275853   1.140   3.139  14.403 -0.6839  0.2077 -0.0239
18121TIP3    H175854   1.076   3.112  14.337 -1.5804  0.6758  0.6377
18121TIP3    H275855   1.091   3.139  14.485  0.0948  0.8685  0.4508
18122TIP3   OH275856   4.433   4.799  13.361 -0.1592  0.4700 -0.3078
18122TIP3    H175857   4.506   4.790  13.299 -0.2266  0.6878 -0.4178
18122TIP3    H275858   4.362   4.748  13.322 -0.4839  1.3203 -0.8442
18123TIP3   OH275859   0.050   3.037  12.689 -0.4960  0.0430  0.2645
18123TIP3    H175860   0.007   3.040  12.603  0.0650  1.7143  0.0191
18123TIP3    H275861  -0.021   3.046  12.752 -0.6381  1.7836 -0.1140
18124TIP3   OH275862   2.546   6.443   0.962 -0.4216 -0.1845 -0.0850
18124TIP3    H175863   2.579   6.509   0.902 -0.2552  0.7538  1.0015
18124TIP3    H275864   2.501   6.380   0.907  0.4568  0.1959 -1.2683
18125TIP3   OH275865   4.295   2.787  13.085  0.6269  0.0922 -0.1726
18125TIP3    H175866   4.371   2.811  13.031  0.1978  1.6427 -0.1229
18125TIP3    H275867   4.238   2.863  13.083 -0.0126 -0.2920  1.4240
18126TIP3   OH275868   5.124   0.803   4.581 -0.7986  0.6020  0.2053
18126TIP3    H175869   5.144   0.828   4.490  0.4441  0.5830  0.4636
18126TIP3    H275870   5.190   0.738   4.603 -0.8357  0.9180  1.2783
18127TIP3   OH275871   0.641   4.248  15.398  0.0323 -0.4013 -0.0842
18127TIP3    H175872   0.582   4.177  15.423 -1.3673 -0.1421 -2.3131
18127TIP3    H275873   0.596   4.328  15.426  1.7539 -0.2872  2.7192
18128TIP3   OH275874   5.009   4.996   3.378 -0.0705  0.4666 -0.3949
18128TIP3    H175875   5.053   4.914   3.355 -1.1420 -0.3559  0.4330
18128TIP3    H275876   4.954   5.015   3.302  0.0320  0.3197 -0.5079
18129TIP3   OH275877   3.263   1.042   0.060 -0.5037 -0.3902  0.2625
18129TIP3    H175878   3.344   1.060   0.107 -0.8888  1.0003  0.4343
18129TIP3    H275879   3.275   1.083  -0.026 -0.0637 -2.3451 -0.6737
18130TIP3   OH275880   6.779   2.865   2.811  0.1314 -0.6194  0.7247
18130TIP3    H175881   6.729   2.947   2.817 -0.8094 -1.1962  0.9994
18130TIP3    H275882   6.742   2.819   2.736  0.2280 -1.0693  0.9463
18131TIP3   OH275883   5.495   5.756   3.204 -0.0311  0.3712  0.4082
18131TIP3    H175884   5.420   5.777   3.149  0.2925  0.3380 -0.0615
18131TIP3    H275885   5.560   5.721   3.142  0.0311 -0.4715  0.9357
18132TIP3   OH275886   5.969   1.549  15.239  0.2494  0.7449 -0.0290
18132TIP3    H175887   5.974   1.577  15.330 -1.3005  1.7101 -0.1992
18132TIP3    H275888   6.008   1.621  15.189  1.1514  0.1928 -0.1350
18133TIP3   OH275889   4.527   2.824   3.204 -0.0221  0.2177  0.7582
18133TIP3    H175890   4.448   2.869   3.173 -0.1278 -0.0506  0.6396
18133TIP3    H275891   4.597   2.856   3.148 -0.6552 -2.4283 -1.7464
18134TIP3   OH275892   1.625   2.378   2.524  0.0389 -0.2936  0.6929
18134TIP3    H175893   1.570   2.310   2.563  0.8904 -1.9488 -0.8627
18134TIP3    H275894   1.658   2.340   2.443 -0.1483  2.3167 -0.7234
18135TIP3   OH275895   6.661   6.744   0.327  0.0245 -0.3139 -0.6399
18135TIP3    H175896   6.663   6.678   0.396 -1.3446 -0.2553 -0.5057
18135TIP3    H275897   6.710   6.706   0.254  0.6337 -0.7874  0.0136
18136TIP3   OH275898   2.088   6.542  13.802 -0.3102 -0.3214  0.1184
18136TIP3    H175899   2.045   6.457  13.804  0.3590 -0.6581  0.5233
18136TIP3    H275900   2.072   6.580  13.888 -0.5348 -0.0668 -0.0316
18137TIP3   OH275901   0.490   2.898   1.816 -0.3673  0.7538  0.0399
18137TIP3    H175902   0.438   2.825   1.781 -1.2897  2.3899 -2.2368
18137TIP3    H275903   0.562   2.907   1.755 -0.7412  2.2668 -0.2119
18138TIP3   OH275904   2.557   1.257  10.696  0.3961 -0.2632  0.5290
18138TIP3    H175905   2.501   1.315  10.747 -0.3126 -0.2870 -0.1969
18138TIP3    H275906   2.632   1.239  10.753 -0.2014 -0.0143  1.4075
18139TIP3   OH275907   1.854   6.054  13.965  0.2787 -0.1519  0.1332
18139TIP3    H175908   1.811   5.971  13.984 -1.5131  0.2473 -1.8586
18139TIP3    H275909   1.786   6.110  13.928  1.9105  1.4610 -0.6487
18140TIP3   OH275910   2.171   1.207  13.298  0.0795 -0.7326 -0.1803
18140TIP3    H175911   2.158   1.112  13.294  1.1051 -0.8602 -0.9317
18140TIP3    H275912   2.264   1.219  13.281 -0.3787  0.5325 -2.2140
18141TIP3   OH275913   2.862   2.267  16.544 -0.5245  0.5262  0.1684
18141TIP3    H175914   2.834   2.300  16.458  0.6135  2.0107  0.3282
18141TIP3    H275915   2.901   2.343  16.587  1.3984 -0.8250  0.9361
18142TIP3   OH275916   1.137   0.726   2.177  0.0408 -0.0826 -0.5271
18142TIP3    H175917   1.203   0.789   2.148  0.3827 -0.4091 -0.4810
18142TIP3    H275918   1.060   0.744   2.124  0.7158 -0.8020 -1.7824
18143TIP3   OH275919   6.078   0.062  16.078  0.2237  0.1973  0.2623
18143TIP3    H175920   6.071   0.147  16.035 -1.2192 -0.6539 -1.2959
18143TIP3    H275921   6.041   0.000  16.016  0.3183 -1.4572  1.7612
18144TIP3   OH275922   3.713   6.428  14.023  0.0182  0.3310  0.3127
18144TIP3    H175923   3.617   6.423  14.031 -0.0394 -1.0294 -0.7792
18144TIP3    H275924   3.744   6.428  14.114 -0.9962  0.6503  0.6864
18145TIP3   OH275925   2.855   1.499  12.151 -0.5615  0.1119 -0.0648
18145TIP3    H175926   2.775   1.499  12.098  0.2127 -1.2782 -1.3581
18145TIP3    H275927   2.830   1.457  12.233 -0.8073 -2.1612 -1.2087
18146TIP3   OH275928   5.500   4.381  16.091 -0.2612  0.7081  0.5174
18146TIP3    H175929   5.504   4.401  15.998 -0.9854 -0.9613  0.0843
18146TIP3    H275930   5.529   4.461  16.135 -0.9076  1.8671 -1.0996
18147TIP3   OH275931   0.025   2.071  15.906  0.6194 -0.6339 -0.0188
18147TIP3    H175932   0.039   2.073  15.812  0.0264  0.3836 -0.1068
18147TIP3    H275933  -0.041   2.004  15.920  0.4410 -0.5326 -0.3745
18148TIP3   OH275934   6.449   0.851   2.210  0.2152  0.3948 -0.2995
18148TIP3    H175935   6.450   0.947   2.213  0.5546  0.3965 -0.4624
18148TIP3    H275936   6.541   0.826   2.216  0.1339  0.0809 -0.3647
18149TIP3   OH275937   4.806   0.301  10.920  0.1184 -0.3558  0.0105
18149TIP3    H175938   4.863   0.334  10.851  1.5141 -0.7610  0.9216
18149TIP3    H275939   4.724   0.281  10.876  1.2609 -1.4807 -1.7291
18150TIP3   OH275940   3.537   0.127  13.707 -0.6694 -0.3457  0.3366
18150TIP3    H175941   3.587   0.122  13.788 -0.1570 -4.2226 -0.0143
18150TIP3    H275942   3.603   0.134  13.638 -1.0849  2.4952  0.1019
18151TIP3   OH275943   6.128   2.263   2.345 -0.6784  0.1107  0.5347
18151TIP3    H175944   6.132   2.200   2.272 -2.5813  0.4505  0.0797
18151TIP3    H275945   6.182   2.224   2.413  1.7685  0.1048 -1.2595
18152TIP3   OH275946   0.650   0.865  12.192  0.3130  0.0718  0.6892
18152TIP3    H175947   0.715   0.908  12.137 -1.8899  1.1008 -1.2612
18152TIP3    H275948   0.581   0.930  12.203 -1.6053 -1.8021  0.4300
18153TIP3   OH275949   3.951   4.304   2.662 -0.0709 -0.0602 -0.1338
18153TIP3    H175950   4.033   4.330   2.705 -0.6438  1.8044 -0.0552
18153TIP3    H275951   3.949   4.209   2.669  1.0737  0.0010  1.7320
18154TIP3   OH275952   1.893   0.811  14.458  0.1972  0.4419  0.0405
18154TIP3    H175953   1.801   0.830  14.475 -0.0085  0.3425 -0.8787
18154TIP3    H275954   1.933   0.897  14.443 -0.3115  0.3527 -2.1285
18155TIP3   OH275955   5.503   2.539  17.051 -0.2822 -0.2565 -0.4384
18155TIP3    H175956   5.455   2.514  17.131 -1.8972  1.7309 -0.7142
18155TIP3    H275957   5.577   2.591  17.083 -0.2070 -0.5106 -0.1884
18156TIP3   OH275958   1.446   2.910  13.885  0.1170  0.1235  0.5033
18156TIP3    H175959   1.428   2.957  13.803  0.1064  0.4078  0.6673
18156TIP3    H275960   1.392   2.831  13.879  1.6040 -0.8646 -0.6488
18157TIP3   OH275961   2.227   3.848  14.429  0.5624 -0.0231 -0.4678
18157TIP3    H175962   2.187   3.828  14.513  1.5806 -1.4630 -0.2743
18157TIP3    H275963   2.155   3.882  14.375 -0.0535  1.1391  1.0195
18158TIP3   OH275964   0.961   1.558  12.554 -0.0559  0.5267 -0.2791
18158TIP3    H175965   1.026   1.620  12.585  0.0674 -0.4075  1.4627
18158TIP3    H275966   0.988   1.474  12.591 -2.1881  0.0866  0.4266
18159TIP3   OH275967   2.020   3.370   4.060  0.2078 -0.0862 -0.3783
18159TIP3    H175968   2.114   3.364   4.048  0.3722  0.5736  0.4930
18159TIP3    H275969   2.006   3.366   4.155 -0.4144  2.1288 -0.2997
18160TIP3   OH275970   4.701   3.596  14.856  0.0132 -0.3155 -0.3307
18160TIP3    H175971   4.637   3.660  14.825  0.4789  0.1282 -0.3829
18160TIP3    H275972   4.654   3.513  14.855 -1.2695  0.2894  1.6728
18161TIP3   OH275973   0.948   2.783   0.214  0.0388 -0.6383  0.2678
18161TIP3    H175974   1.015   2.722   0.247 -0.7674 -0.6279  2.0157
18161TIP3    H275975   0.997   2.843   0.157  1.1543 -1.8438 -0.0980
18162TIP3   OH275976   1.238   0.599   2.886  0.0491 -0.6958  0.6099
18162TIP3    H175977   1.151   0.615   2.849  0.4909  1.5029  0.4170
18162TIP3    H275978   1.221   0.581   2.979 -0.5871  0.2367  0.6897
18163TIP3   OH275979   6.512   3.810   2.036 -0.1910 -0.1372 -0.3505
18163TIP3    H175980   6.490   3.733   2.088 -1.2899  0.5486  0.2369
18163TIP3    H275981   6.430   3.859   2.029  0.2481  0.4824 -1.5692
18164TIP3   OH275982   3.394   4.068   0.308 -0.4514 -0.0479  0.2165
18164TIP3    H175983   3.422   3.986   0.266  1.2272  0.6421 -0.1020
18164TIP3    H275984   3.378   4.128   0.235  1.1256  0.7360  0.4679
18165TIP3   OH275985   5.310   1.056  15.750 -0.2212 -0.1312 -0.4958
18165TIP3    H175986   5.322   1.063  15.845 -0.8487 -0.4431 -0.3846
18165TIP3    H275987   5.395   1.080  15.713  0.3503 -1.0027  0.1866
18166TIP3   OH275988   3.964   6.357   0.046 -0.2266  0.0459 -0.0953
18166TIP3    H175989   3.953   6.276  -0.004 -0.6876  0.6279 -0.9601
18166TIP3    H275990   3.876   6.394   0.052 -0.0336  0.4477  0.3760
18167TIP3   OH275991   1.173   5.373   5.618 -0.3712 -0.8312 -0.2531
18167TIP3    H175992   1.123   5.444   5.578 -0.4208 -0.1660  0.9386
18167TIP3    H275993   1.123   5.349   5.696 -0.2624 -2.0729 -0.5348
18168TIP3   OH275994   2.972   5.048   1.418  0.0622 -0.2210 -0.1983
18168TIP3    H175995   2.879   5.045   1.398  0.1519 -2.4384 -0.5654
18168TIP3    H275996   3.010   5.102   1.349 -0.7880 -0.4782 -0.8870
18169TIP3   OH275997   4.516   2.412  15.280 -0.1156 -0.3973 -0.2690
18169TIP3    H175998   4.451   2.370  15.335  0.5107 -1.4790 -0.3371
18169TIP3    H275999   4.550   2.484  15.333 -1.6355  0.4416 -0.3862
18170TIP3   OH276000   1.719   0.088   2.466  0.0595  0.0749  0.0749
18170TIP3    H176001   1.701   0.106   2.374 -1.6795  1.4238  0.6173
18170TIP3    H276002   1.814   0.080   2.471  0.1725 -0.2260 -1.8508
18171TIP3   OH276003   6.354   1.275   4.062 -0.0205 -0.2080 -0.4384
18171TIP3    H176004   6.401   1.226   4.129 -2.3387 -1.2294  0.5498
18171TIP3    H276005   6.263   1.245   4.069 -0.5490  0.3869 -3.3949
18172TIP3   OH276006   3.890   0.958   1.502 -0.2621  0.1077 -0.1788
18172TIP3    H176007   3.972   0.973   1.454  1.2480 -2.4123  1.3539
18172TIP3    H276008   3.873   1.041   1.546  1.5636  0.6891 -0.4739
18173TIP3   OH276009   4.797   5.474   1.307  0.7154  0.3186 -0.5426
18173TIP3    H176010   4.742   5.402   1.275  0.8733  0.4231 -1.0601
18173TIP3    H276011   4.752   5.553   1.279  0.6638  0.4166 -0.1785
18174TIP3   OH276012   4.610   5.006   1.789  0.5741 -0.4126 -0.2884
18174TIP3    H176013   4.662   4.932   1.822 -0.5614 -0.6375  1.0759
18174TIP3    H276014   4.617   5.073   1.857 -0.2488 -0.1357 -0.4638
18175TIP3   OH276015   4.185   3.133   2.469  0.0712 -1.0061 -0.1091
18175TIP3    H176016   4.171   3.088   2.386 -1.5276 -2.9076  1.0799
18175TIP3    H276017   4.244   3.075   2.518  1.0715  0.1374  0.0705
18176TIP3   OH276018   1.982   6.051  13.088  0.3329  0.1522 -0.0373
18176TIP3    H176019   1.991   6.003  13.170  1.4852  0.8172  0.2397
18176TIP3    H276020   1.939   5.989  13.029  2.3261 -1.4634  0.1117
18177TIP3   OH276021   2.904   4.480   3.615  0.4207  0.7240  0.4862
18177TIP3    H176022   2.925   4.442   3.700 -0.3500 -0.5976  0.1247
18177TIP3    H276023   2.847   4.555   3.634  0.6527  0.7301  1.1496
18178TIP3   OH276024   4.531   5.414   3.322 -0.3877 -0.2186 -0.3505
18178TIP3    H176025   4.623   5.428   3.341 -0.0608 -1.4200 -0.9830
18178TIP3    H276026   4.489   5.411   3.408 -0.3937  3.4434 -0.0585
18179TIP3   OH276027   4.886   5.868  13.953 -0.2598  0.3065  0.5994
18179TIP3    H176028   4.958   5.865  14.016  2.0594  0.0882 -1.8975
18179TIP3    H276029   4.905   5.944  13.898 -2.1732  0.4748  0.0925
18180TIP3   OH276030   2.164   4.604   2.380  0.0971  0.0584 -0.0301
18180TIP3    H176031   2.214   4.522   2.382  0.0139  0.0099  0.0513
18180TIP3    H276032   2.138   4.618   2.471 -2.2335 -1.2631 -0.4149
18181TIP3   OH276033   5.565   4.718  16.011 -0.1891 -0.5915 -0.2251
18181TIP3    H176034   5.516   4.710  15.930  0.4447 -0.2331 -0.6495
18181TIP3    H276035   5.558   4.811  16.035 -0.8911 -0.8115  0.4638
18182TIP3   OH276036   5.341   4.271  16.272  0.2962 -0.1391  0.1797
18182TIP3    H176037   5.393   4.319  16.208 -0.2330  0.6415  0.3221
18182TIP3    H276038   5.267   4.328  16.291 -0.6333 -1.2399 -0.0368
18183TIP3   OH276039   2.158   3.165   3.649  0.1290 -0.5241  0.1169
18183TIP3    H176040   2.085   3.226   3.661 -1.0331 -2.1189  1.7590
18183TIP3    H276041   2.227   3.198   3.706 -0.0776 -0.1640  0.1595
18184TIP3   OH276042   1.699   4.573  11.201 -0.0442 -0.2393 -0.0903
18184TIP3    H176043   1.775   4.514  11.195 -1.2302 -1.7524 -0.8500
18184TIP3    H276044   1.632   4.521  11.244 -0.6737  1.1059  0.6125
18185TIP3   OH276045   5.767   1.925  14.112 -0.8176  0.5114  0.5733
18185TIP3    H176046   5.720   2.004  14.085 -0.4390  0.4894 -0.1664
18185TIP3    H276047   5.725   1.854  14.063 -1.8475  0.0869  2.0093
18186TIP3   OH276048   1.084   1.541   0.242 -0.3170 -0.6480 -0.0334
18186TIP3    H176049   1.036   1.584   0.171 -0.4683  0.0707  0.4997
18186TIP3    H276050   1.016   1.505   0.299 -0.2343  0.0122  0.4989
18187TIP3   OH276051   5.652   1.378  15.934 -0.1336 -0.2004  0.6115
18187TIP3    H176052   5.606   1.314  15.880  1.2882 -0.8133  0.0538
18187TIP3    H276053   5.691   1.325  16.004 -0.3727  0.3170  1.1400
18188TIP3   OH276054   5.635   3.859  14.696 -0.2893 -0.1485  0.5802
18188TIP3    H176055   5.621   3.853  14.601  0.8986  0.8089  0.3209
18188TIP3    H276056   5.548   3.873  14.732 -0.7710 -0.5978 -0.3656
18189TIP3   OH276057   4.941   5.661   0.264  0.6610  0.0985 -0.2786
18189TIP3    H176058   4.935   5.642   0.171 -0.8028 -0.2952 -0.1320
18189TIP3    H276059   4.857   5.632   0.300  1.1883  0.2594  1.1592
18190TIP3   OH276060   4.926   2.271  11.835  0.4587 -0.4440  0.0750
18190TIP3    H176061   4.956   2.285  11.925  0.1474 -1.4505  0.3534
18190TIP3    H276062   4.932   2.357  11.794 -1.5320  0.5477  1.6968
18191TIP3   OH276063   2.413   2.157   1.601 -0.2808  1.1084 -0.3237
18191TIP3    H176064   2.346   2.168   1.533 -0.2506  0.4253 -0.4720
18191TIP3    H276065   2.494   2.140   1.552 -0.8508 -3.0639 -0.2126
18192TIP3   OH276066   5.521   1.550   4.079 -0.1781 -0.1079 -0.4076
18192TIP3    H176067   5.603   1.562   4.127 -1.5509  0.0291  2.0632
18192TIP3    H276068   5.487   1.639   4.067  0.3663 -0.0989 -2.1433
18193TIP3   OH276069   5.715   2.566  14.773  0.1246  0.0924 -0.1917
18193TIP3    H176070   5.754   2.485  14.742  0.2955 -0.0792  0.4607
18193TIP3    H276071   5.788   2.627  14.781  0.3709 -0.3665  1.4782
18194TIP3   OH276072   0.934   3.583  11.477  0.1943  0.0355  0.0068
18194TIP3    H176073   1.026   3.558  11.480  0.0502 -0.4472  0.5717
18194TIP3    H276074   0.888   3.513  11.523 -0.6208 -0.4821 -1.5240
18195TIP3   OH276075   1.279   4.934   4.371 -0.1108  0.6724 -0.1715
18195TIP3    H176076   1.296   4.885   4.452 -0.9189  1.3261  0.4081
18195TIP3    H276077   1.365   4.939   4.328  0.0420 -0.9762 -0.1025
18196TIP3   OH276078   0.307   3.462  16.837 -0.3423 -0.1458  0.2463
18196TIP3    H176079   0.399   3.467  16.862  0.0822 -1.4277 -0.9338
18196TIP3    H276080   0.261   3.440  16.918  0.3091  0.8761  0.9225
18197TIP3   OH276081   0.429   6.292  12.126  0.2635 -0.0168  0.1448
18197TIP3    H176082   0.346   6.335  12.105 -0.8773 -1.8385  0.6548
18197TIP3    H276083   0.479   6.297  12.045  0.2639  2.3116  0.2151
18198TIP3   OH276084   5.507   6.356   5.054  0.4777  0.5208 -0.4769
18198TIP3    H176085   5.496   6.281   4.997  1.2342 -0.0012  0.0495
18198TIP3    H276086   5.545   6.320   5.134 -1.6626  1.0270  0.8580
18199TIP3   OH276087   1.007   6.226   4.818 -0.1557  0.4003 -0.1014
18199TIP3    H176088   1.080   6.206   4.875 -0.5281 -0.0428  0.2280
18199TIP3    H276089   1.004   6.154   4.755 -0.0024  0.6750 -0.4302
18200TIP3   OH276090   6.456   4.868  13.503  0.6228  0.5237 -0.3575
18200TIP3    H176091   6.542   4.827  13.507  0.6748  0.6802  0.1520
18200TIP3    H276092   6.457   4.935  13.570 -1.1559 -1.9602  2.4297
18201TIP3   OH276093   3.229   3.475  13.479 -0.5896  0.5748  0.0604
18201TIP3    H176094   3.248   3.560  13.440  0.8090 -0.2888 -1.2850
18201TIP3    H276095   3.303   3.420  13.452 -0.8460 -0.7575  1.9011
18202TIP3   OH276096   0.842   2.308  15.307  0.2423  0.2221 -0.7399
18202TIP3    H176097   0.793   2.228  15.322  0.4476  0.4630  1.6127
18202TIP3    H276098   0.777   2.378  15.315  0.7532  0.4989  1.6790
18203TIP3   OH276099   1.684   1.228  15.102  0.0271  0.1200 -0.5959
18203TIP3    H176100   1.753   1.206  15.039  0.5954  0.6584 -0.1713
18203TIP3    H276101   1.645   1.144  15.125  1.4271 -0.3593  0.1536
18204TIP3   OH276102   1.760   5.579   1.238  0.0898 -0.4673 -0.4060
18204TIP3    H176103   1.694   5.648   1.242  0.1156 -0.4733  0.4875
18204TIP3    H276104   1.719   5.510   1.187  0.0601  0.1945 -1.3021
18205TIP3   OH276105   4.636   1.733   3.484  0.2968  0.2623 -0.3044
18205TIP3    H176106   4.588   1.805   3.444  0.8351  0.5550 -0.4353
18205TIP3    H276107   4.727   1.763   3.488  0.0601  0.8985  2.6013
18206TIP3   OH276108   3.058   0.743  14.508  0.4109 -0.0980 -0.4572
18206TIP3    H176109   3.053   0.839  14.504  1.4825  0.0256  0.5661
18206TIP3    H276110   3.043   0.714  14.418 -0.2645  1.0052 -0.7178
18207TIP3   OH276111   4.389   5.427  11.685  0.0316 -0.0175  0.1559
18207TIP3    H176112   4.453   5.492  11.716 -0.2461  0.7959 -0.9106
18207TIP3    H276113   4.310   5.445  11.736  0.3673 -0.4523  0.8537
18208TIP3   OH276114   5.699   1.298   0.720  0.0630 -0.0515  0.2052
18208TIP3    H176115   5.676   1.281   0.629  0.2565 -1.0533  0.3248
18208TIP3    H276116   5.793   1.281   0.725 -0.1821 -1.3635  0.8607
18209TIP3   OH276117   3.785   0.781   5.867  0.3670  0.2196 -0.0829
18209TIP3    H176118   3.830   0.699   5.849 -0.3002  0.2340 -1.9579
18209TIP3    H276119   3.794   0.833   5.787 -1.9489  0.6808 -0.1185
18210TIP3   OH276120   0.272   5.068   4.711  0.0743 -0.1148 -0.4438
18210TIP3    H176121   0.314   5.112   4.786  1.4621 -1.1358 -0.5995
18210TIP3    H276122   0.309   4.980   4.711  0.1040 -0.1337 -2.3401
18211TIP3   OH276123   1.256   5.266  11.370  0.1559 -0.8022 -0.5316
18211TIP3    H176124   1.326   5.251  11.307 -0.5040 -1.8810 -1.0267
18211TIP3    H276125   1.232   5.179  11.400  0.5700 -0.3096  1.3628
18212TIP3   OH276126   6.510   0.011  11.142  0.3964 -0.0829  0.2170
18212TIP3    H176127   6.592  -0.009  11.186  0.1411  0.7203  1.0836
18212TIP3    H276128   6.471   0.081  11.194 -0.9994 -0.6806  0.0049
18213TIP3   OH276129   0.958   1.937   5.578 -0.4187 -0.3590 -0.0573
18213TIP3    H176130   1.018   1.862   5.575 -0.5873 -0.4725 -2.2608
18213TIP3    H276131   1.001   2.005   5.527 -2.0727 -0.4338 -1.6885
18214TIP3   OH276132   6.407   4.825  15.013 -0.2017 -0.0206 -0.4382
18214TIP3    H176133   6.476   4.759  15.022 -0.3849 -0.4280 -1.7955
18214TIP3    H276134   6.429   4.892  15.078  1.0229 -0.5232 -0.3064
18215TIP3   OH276135   2.835   2.641   1.746  0.0218  0.2247 -0.6076
18215TIP3    H176136   2.895   2.628   1.819 -0.5010 -0.1872 -0.2440
18215TIP3    H276137   2.754   2.599   1.774 -0.8788  1.9291 -0.5163
18216TIP3   OH276138   5.274   3.680   2.131  0.0909  0.5489 -0.4569
18216TIP3    H176139   5.244   3.663   2.041  0.9175  0.7968 -0.7889
18216TIP3    H276140   5.210   3.742   2.166  0.4285  1.3992 -1.2944
18217TIP3   OH276141   0.176   5.326   1.233 -0.2686 -0.3638 -0.9605
18217TIP3    H176142   0.207   5.402   1.283 -0.9971  0.1656 -1.2998
18217TIP3    H276143   0.254   5.271   1.223 -0.1181 -0.5419  0.8322
18218TIP3   OH276144   1.416   0.160  12.964 -0.3463  0.0820 -0.6509
18218TIP3    H176145   1.458   0.158  12.878 -0.2315  0.1316 -0.5970
18218TIP3    H276146   1.452   0.084  13.010 -0.5139 -0.0239 -0.6973
18219TIP3   OH276147   2.788   2.213   2.784  0.5786  0.3633 -0.1010
18219TIP3    H176148   2.777   2.198   2.691 -1.5357  1.9584 -0.1953
18219TIP3    H276149   2.879   2.239   2.794  1.5151 -2.1623 -1.2982
18220TIP3   OH276150   5.590   6.522   2.047 -0.0197 -0.4327 -0.1672
18220TIP3    H176151   5.595   6.584   1.975 -0.3187 -0.4326 -0.1879
18220TIP3    H276152   5.604   6.436   2.006 -1.5905 -0.5827 -0.4584
18221TIP3   OH276153   1.700   5.508  12.205  0.0397  0.5398 -0.4054
18221TIP3    H176154   1.745   5.444  12.260 -0.5031 -0.9711 -1.6688
18221TIP3    H276155   1.745   5.505  12.121 -0.3075  1.4584 -0.6434
18222TIP3   OH276156   0.103   4.637  12.507 -0.1877 -0.4006  0.0451
18222TIP3    H176157   0.072   4.697  12.439  2.0607 -0.0960 -0.7762
18222TIP3    H276158   0.163   4.689  12.560 -0.8016 -1.0384  1.4109
18223TIP3   OH276159   2.474   5.542   0.133 -0.5289  0.2186 -0.4336
18223TIP3    H176160   2.464   5.632   0.164 -0.1378 -0.2608  1.1859
18223TIP3    H276161   2.390   5.500   0.153 -0.0177 -0.2934  0.7778
18224TIP3   OH276162   6.141   0.465  13.986 -0.1781 -0.6022  0.2045
18224TIP3    H176163   6.157   0.428  13.900 -1.4323 -1.2887  0.2459
18224TIP3    H276164   6.221   0.449  14.035  1.1321  1.1314 -1.2585
18225TIP3   OH276165   3.571   1.027   4.624  0.7419  0.0059 -0.2481
18225TIP3    H176166   3.661   1.050   4.604  0.9070  0.7020  1.1860
18225TIP3    H276167   3.573   0.994   4.714 -0.7384  2.1601  0.6581
18226TIP3   OH276168   4.711   5.466   2.686 -0.0086  0.1077  0.6384
18226TIP3    H176169   4.803   5.461   2.660 -0.3585  0.9977 -0.8733
18226TIP3    H276170   4.673   5.384   2.655  0.3349 -0.4392  1.6169
18227TIP3   OH276171   1.402   2.284   4.971  0.3475 -0.2726  0.1231
18227TIP3    H176172   1.345   2.255   4.900  0.6352 -1.8731  0.5025
18227TIP3    H276173   1.489   2.254   4.945  1.0415  1.9757 -0.3584
18228TIP3   OH276174   2.516   0.293  14.135  0.0535 -0.4043 -0.5585
18228TIP3    H176175   2.593   0.318  14.084 -0.1479 -0.4192 -0.8725
18228TIP3    H276176   2.444   0.297  14.073 -0.7339  2.5555  0.3890
18229TIP3   OH276177   3.438   3.694  16.423 -1.1261 -0.5496 -0.2306
18229TIP3    H176178   3.409   3.606  16.402 -2.4207 -0.2921  0.4117
18229TIP3    H276179   3.360   3.749  16.411 -0.6970  0.2937  0.7087
18230TIP3   OH276180   4.160   6.684  15.951 -0.0787 -0.1204 -0.6282
18230TIP3    H176181   4.239   6.631  15.947  0.3353  0.0531  2.8930
18230TIP3    H276182   4.191   6.774  15.953 -0.5424  0.0811 -1.6654
18231TIP3   OH276183   2.186   6.383   1.056  0.0545  0.1310  0.4770
18231TIP3    H176184   2.225   6.458   1.099  1.9659  1.2409 -2.8425
18231TIP3    H276185   2.092   6.400   1.058  0.2266  1.0250  2.4482
18232TIP3   OH276186   2.604   5.622  14.554  0.0947  0.2066  0.1602
18232TIP3    H176187   2.626   5.712  14.531 -2.3676  0.5054 -1.3919
18232TIP3    H276188   2.688   5.579  14.568  1.3654  2.4300 -0.2746
18233TIP3   OH276189   4.225   1.984  16.166  0.4527 -0.4477 -0.3529
18233TIP3    H176190   4.136   1.963  16.137 -0.4969 -2.1776  3.2616
18233TIP3    H276191   4.282   1.925  16.117 -0.5287 -0.4064 -1.5872
18234TIP3   OH276192   1.854   3.174   1.663 -0.3551  0.1758  0.1282
18234TIP3    H176193   1.782   3.234   1.650 -1.3304 -1.1711 -0.9063
18234TIP3    H276194   1.932   3.229   1.661 -1.3368  1.7624  1.9872
18235TIP3   OH276195   5.121   4.267  12.415  0.0239  0.0096 -0.8393
18235TIP3    H176196   5.078   4.273  12.330 -0.9274  2.7912 -0.2790
18235TIP3    H276197   5.076   4.332  12.469  1.6051 -0.5811  1.3394
18236TIP3   OH276198   3.663   5.866  14.920  0.4070  0.5816  0.0149
18236TIP3    H176199   3.645   5.859  15.014  0.4444 -0.8760 -0.0567
18236TIP3    H276200   3.591   5.918  14.885 -0.0190  0.4977  0.7455
18237TIP3   OH276201   1.384   3.628  16.105 -0.0921  0.0806 -0.2041
18237TIP3    H176202   1.394   3.713  16.062 -1.9123  1.2423  1.5027
18237TIP3    H276203   1.290   3.618  16.116  0.2288 -0.6107  2.5098
18238TIP3   OH276204   4.959   5.036  11.699  0.1096  0.2755  0.1494
18238TIP3    H176205   5.027   5.012  11.763 -0.9605  2.0630  2.0732
18238TIP3    H276206   4.962   4.965  11.634  3.8834  0.3299  0.0272
18239TIP3   OH276207   6.462   1.024  16.442  0.2750  0.3860  0.3990
18239TIP3    H176208   6.416   0.992  16.520 -1.7331  0.8541 -0.5337
18239TIP3    H276209   6.531   0.959  16.427 -0.6323 -0.8475  1.3506
18240TIP3   OH276210   5.981   4.752  17.136 -0.5554 -0.4010  0.4429
18240TIP3    H176211   6.071   4.769  17.166 -0.3093 -1.3820  0.2863
18240TIP3    H276212   5.926   4.799  17.198  0.0619  0.0964  0.6267
18241TIP3   OH276213   4.367   2.333  13.179  0.0597  0.0848  0.0923
18241TIP3    H176214   4.421   2.394  13.129  0.3639  0.7274  1.1905
18241TIP3    H276215   4.430   2.276  13.223 -0.1788  0.2590  0.6610
18242TIP3   OH276216   1.100   5.114   2.686 -0.0274 -0.3259 -0.7281
18242TIP3    H176217   1.056   5.071   2.760  0.5684 -0.3771 -0.3957
18242TIP3    H276218   1.049   5.088   2.609 -0.2300 -0.8603 -0.4207
18243TIP3   OH276219   2.259   2.071  15.107  0.5458 -0.3856 -0.3458
18243TIP3    H176220   2.332   2.085  15.167 -0.0724  3.7930 -0.2192
18243TIP3    H276221   2.182   2.061  15.163  0.4267  0.1400 -0.4020
18244TIP3   OH276222   4.647   2.127  14.657  0.1025 -0.2836 -0.0421
18244TIP3    H176223   4.721   2.146  14.599 -0.0917  0.0742 -0.1684
18244TIP3    H276224   4.598   2.208  14.662 -0.0868 -0.4190  0.3325
18245TIP3   OH276225   0.959   0.676   4.667 -1.0029  0.1256  0.1059
18245TIP3    H176226   1.000   0.633   4.592  1.6877 -0.1823  1.6176
18245TIP3    H276227   0.950   0.768   4.640  1.6050  0.4181 -0.0761
18246TIP3   OH276228   0.084   1.104  11.852 -0.3749 -0.1616 -0.8035
18246TIP3    H176229   0.120   1.122  11.765  0.6655 -1.7423 -0.7509
18246TIP3    H276230   0.155   1.127  11.913  0.2404 -2.3043 -0.6326
18247TIP3   OH276231   5.857   6.281   1.564 -0.1500 -0.4175 -0.0651
18247TIP3    H176232   5.947   6.306   1.544 -0.4361 -0.7318 -1.9752
18247TIP3    H276233   5.845   6.304   1.656  2.4676 -2.0535  0.8077
18248TIP3   OH276234   0.109   1.609  10.930 -0.6089  0.3163  0.2889
18248TIP3    H176235   0.033   1.654  10.893  0.5308  1.7883 -0.3824
18248TIP3    H276236   0.144   1.557  10.857 -1.1607 -0.6471  0.6972
18249TIP3   OH276237   2.329   3.672  16.691  0.5649  0.0624  1.0586
18249TIP3    H176238   2.263   3.702  16.629  0.9604 -0.4283  0.3781
18249TIP3    H276239   2.413   3.692  16.648  0.9183  1.9485  2.5000
18250TIP3   OH276240   1.020   1.919  11.304 -0.2881 -0.2544 -0.0872
18250TIP3    H176241   1.115   1.922  11.291 -0.3825 -2.3180 -1.8317
18250TIP3    H276242   0.997   2.008  11.331  2.2176  0.0916  1.2506
18251TIP3   OH276243   6.605   1.976  14.025  0.3410 -0.5562  0.0994
18251TIP3    H176244   6.533   1.924  13.991 -0.8996  0.1179  1.5719
18251TIP3    H276245   6.573   2.009  14.109  1.6078  1.4240 -0.1309
18252TIP3   OH276246   4.156   0.074  15.708 -0.1096 -0.2258 -0.1779
18252TIP3    H176247   4.084   0.011  15.696 -0.8423  0.6189 -0.3427
18252TIP3    H276248   4.113   0.159  15.705  0.8919  0.2902 -0.1015
18253TIP3   OH276249   5.672   0.883  16.998  0.1765  0.5313  0.6237
18253TIP3    H176250   5.624   0.836  17.066  1.0620 -1.5927 -0.1455
18253TIP3    H276251   5.665   0.828  16.920  2.4603  0.9294  0.0518
18254TIP3   OH276252   3.149   2.682  14.653  0.2976 -0.2642  0.2800
18254TIP3    H176253   3.140   2.596  14.611  0.4437 -0.4996  0.7295
18254TIP3    H276254   3.097   2.675  14.733  1.3053 -0.3475  0.9406
18255TIP3   OH276255   1.108   4.441   3.082  0.1111  0.1418  0.7511
18255TIP3    H176256   1.029   4.387   3.072 -0.4799  0.5158  2.9018
18255TIP3    H276257   1.158   4.424   3.002 -1.5803 -1.0228 -0.1435
18256TIP3   OH276258   1.287   2.106  16.056  0.3005 -0.1153 -0.0308
18256TIP3    H176259   1.285   2.128  15.963  0.3073 -1.3393 -0.3487
18256TIP3    H276260   1.338   2.025  16.060 -1.1121 -1.0066  0.8249
18257TIP3   OH276261   5.618   3.645  15.109  0.0278  0.1397 -0.2307
18257TIP3    H176262   5.666   3.721  15.077  0.6018  0.1897  0.7065
18257TIP3    H276263   5.678   3.604  15.172  0.9329 -2.7043 -2.6917
18258TIP3   OH276264   5.833   4.141  12.790  0.4544 -0.1294 -0.2389
18258TIP3    H176265   5.762   4.203  12.807  1.1638  0.5410  0.3412
18258TIP3    H276266   5.791   4.069  12.742 -0.6909  0.0715  0.4178
18259TIP3   OH276267   0.640   2.562   4.186 -0.2334 -0.3328 -0.2989
18259TIP3    H176268   0.642   2.516   4.102  0.7957 -1.7378  0.4693
18259TIP3    H276269   0.710   2.627   4.180 -0.6753  0.1187 -0.7909
18260TIP3   OH276270   0.109   4.019  13.381  0.7230  0.5268  0.2226
18260TIP3    H176271   0.175   3.961  13.420  1.1811  0.7756 -0.1767
18260TIP3    H276272   0.140   4.107  13.401  1.6838  0.6961 -1.8169
18261TIP3   OH276273   4.525   0.914   0.059 -0.2852 -0.4782 -0.3651
18261TIP3    H176274   4.569   0.829   0.069 -0.7929 -0.6525  0.5037
18261TIP3    H276275   4.470   0.921   0.137 -0.2708  0.6459 -0.4500
18262TIP3   OH276276   5.790   0.792  16.130  0.1678  0.1208 -0.3294
18262TIP3    H176277   5.759   0.882  16.122  1.0128  0.3414 -1.2348
18262TIP3    H276278   5.860   0.784  16.066  0.2972 -1.1060 -0.0710
18263TIP3   OH276279   4.990   3.549  14.869 -0.3381 -0.2698 -0.1160
18263TIP3    H176280   4.896   3.561  14.852 -0.4070 -2.2452 -1.4724
18263TIP3    H276281   4.993   3.489  14.943 -0.1697 -0.5599 -0.3536
18264TIP3   OH276282   4.922   3.192   0.599  0.1688  0.1692  0.1648
18264TIP3    H176283   4.982   3.167   0.670 -0.8971  1.3724  1.5484
18264TIP3    H276284   4.905   3.285   0.614 -0.9627  0.1805 -1.0246
18265TIP3   OH276285   2.080   3.530  11.334  0.2817  0.5485  0.2821
18265TIP3    H176286   2.029   3.545  11.255 -0.9615 -0.8886  0.7739
18265TIP3    H276287   2.069   3.437  11.353  3.0861  0.1700  0.4395
18266TIP3   OH276288   2.052   0.279   5.178  0.1820  0.0888 -0.5344
18266TIP3    H176289   1.993   0.354   5.191  1.8789  1.3435  0.3359
18266TIP3    H276290   2.067   0.278   5.084 -0.3209  0.4788 -0.6275
18267TIP3   OH276291   6.839   4.818  12.317 -0.3119 -0.0142 -0.2862
18267TIP3    H176292   6.926   4.795  12.282  0.4591  1.3189  0.6505
18267TIP3    H276293   6.778   4.788  12.250  0.9239 -0.1067 -1.4281
18268TIP3   OH276294   3.939   0.937   1.871 -0.7339 -0.1961 -0.2702
18268TIP3    H176295   3.958   1.022   1.830 -4.0253  1.0115  0.3759
18268TIP3    H276296   3.909   0.960   1.959  0.1432 -2.2606  0.6389
18269TIP3   OH276297   3.336   3.198   1.193  0.2430 -0.3088 -0.1108
18269TIP3    H176298   3.339   3.141   1.116  1.1345 -0.5203  0.0719
18269TIP3    H276299   3.391   3.154   1.258  1.3107  0.9610 -0.1221
18270TIP3   OH276300   2.369   4.856   1.912  0.0282  0.4331  0.3598
18270TIP3    H176301   2.297   4.916   1.929 -0.5976  0.0914 -0.9330
18270TIP3    H276302   2.375   4.802   1.991 -0.6236  0.9686  0.7821
18271TIP3   OH276303   1.554   0.190  15.994 -0.4887 -0.1998 -0.2553
18271TIP3    H176304   1.498   0.116  15.970 -0.6840 -0.2956  0.4949
18271TIP3    H276305   1.639   0.169  15.954  0.0367 -1.8016  1.5628
18272TIP3   OH276306   6.698   1.274  14.444 -0.0292 -0.2529 -0.2932
18272TIP3    H176307   6.646   1.197  14.465  0.3048 -1.0401 -2.2085
18272TIP3    H276308   6.788   1.250  14.467 -0.0449 -0.1096 -0.0783
18273TIP3   OH276309   4.636   5.989   2.125 -0.1789 -0.0810  0.2207
18273TIP3    H176310   4.632   6.041   2.205  0.3177  0.5863 -0.1740
18273TIP3    H276311   4.549   5.998   2.087 -0.0821  0.5107  0.1329
18274TIP3   OH276312   0.558   2.155  12.047 -0.0762  0.3064  0.0593
18274TIP3    H176313   0.507   2.117  12.118 -0.3591 -0.9725 -0.7755
18274TIP3    H276314   0.496   2.208  11.997 -0.4879 -0.7800 -0.6214
18275TIP3   OH276315   0.454   5.314   3.268 -0.8495 -0.0769 -0.6170
18275TIP3    H176316   0.485   5.231   3.232 -1.6709 -0.1348 -1.2340
18275TIP3    H276317   0.373   5.331   3.220 -0.6611  1.1075 -0.5297
18276TIP3   OH276318   2.415   6.400   6.805  0.0855  0.7350  0.4853
18276TIP3    H176319   2.442   6.463   6.738  3.7536 -1.5319 -0.4692
18276TIP3    H276320   2.462   6.426   6.884  0.7107 -0.0936  0.4011
18277TIP3   OH276321   0.279   3.555   0.209 -0.4623  0.2037 -0.0202
18277TIP3    H176322   0.241   3.470   0.189 -2.1011  0.9861 -0.4363
18277TIP3    H276323   0.273   3.563   0.304  1.2804 -0.8078  0.2207
18278TIP3   OH276324   0.086   5.094  16.175  0.1091  0.1761 -0.5144
18278TIP3    H176325   0.174   5.113  16.206 -0.7365  1.7309  1.0593
18278TIP3    H276326   0.049   5.179  16.151 -2.2935  0.1961  2.6544
18279TIP3   OH276327   3.947   1.895  15.558  0.1803 -0.2423 -0.3686
18279TIP3    H176328   3.923   1.849  15.639  1.2038  0.5943  0.4390
18279TIP3    H276329   3.892   1.855  15.490 -0.3730 -1.2723  0.6564
18280TIP3   OH276330   0.301   0.609   1.923  0.0741 -0.4291 -0.2176
18280TIP3    H176331   0.310   0.703   1.904  0.8232 -0.0594  1.7362
18280TIP3    H276332   0.389   0.582   1.949  0.2222 -2.0692 -2.1430
18281TIP3   OH276333   1.391   3.727   5.270  0.4252 -0.5019 -0.0651
18281TIP3    H176334   1.366   3.819   5.271 -1.6281 -0.9961  0.2708
18281TIP3    H276335   1.307   3.680   5.267  1.4296 -2.3513 -0.7881
18282TIP3   OH276336   0.287   0.378  13.110  0.4594  0.4844 -0.2882
18282TIP3    H176337   0.268   0.431  13.188 -0.3773 -1.3023  0.7840
18282TIP3    H276338   0.352   0.315  13.140  0.4295  0.0357 -1.1589
18283TIP3   OH276339   3.395   1.020  16.422 -0.7010  0.4390 -0.2299
18283TIP3    H176340   3.466   0.957  16.435 -1.6041 -0.5878 -0.1580
18283TIP3    H276341   3.319   0.967  16.402 -1.9118  1.3662  1.6033
18284TIP3   OH276342   0.190   0.957   4.629 -0.5557 -0.0167  0.3641
18284TIP3    H176343   0.186   1.052   4.615 -1.8226 -0.3760 -2.1876
18284TIP3    H276344   0.111   0.937   4.680 -0.4511  0.2469  0.6337
18285TIP3   OH276345   2.573   1.011  11.600 -0.5078 -0.7071  0.5391
18285TIP3    H176346   2.517   1.022  11.677 -2.5582 -1.7907 -0.7089
18285TIP3    H276347   2.638   1.081  11.609 -1.6407  0.2175  2.4162
18286TIP3   OH276348   6.460   4.584   2.066  0.0744  0.1671  0.4637
18286TIP3    H176349   6.499   4.599   1.980  1.5936 -3.4505  0.3259
18286TIP3    H276350   6.414   4.666   2.087  1.1354  1.8095 -2.9401
18287TIP3   OH276351   5.611   1.087  10.740 -0.0903  0.1854 -0.4606
18287TIP3    H176352   5.563   1.066  10.820  0.1430  0.5595 -0.2182
18287TIP3    H276353   5.545   1.083  10.671 -0.2059 -0.5656 -0.3112
18288TIP3   OH276354   3.383   5.476  15.036 -0.2058 -0.3641  0.5247
18288TIP3    H176355   3.295   5.477  15.075  0.1558 -0.0369  1.3565
18288TIP3    H276356   3.373   5.425  14.956 -0.7937 -1.8402  1.5012
18289TIP3   OH276357   6.169   2.250   3.179 -0.0283 -0.0246 -0.2613
18289TIP3    H176358   6.198   2.298   3.256 -1.0650 -0.0936  0.1873
18289TIP3    H276359   6.106   2.308   3.137 -1.8534 -1.2211  0.6803
18290TIP3   OH276360   6.723   1.621  11.228 -0.8097  0.0357 -0.4631
18290TIP3    H176361   6.818   1.634  11.234 -0.5600 -0.4594 -2.4681
18290TIP3    H276362   6.697   1.597  11.317  0.8893  0.4466  0.2017
18291TIP3   OH276363   3.822   1.858   1.635  0.3215  0.3296 -0.1783
18291TIP3    H176364   3.835   1.905   1.553 -1.9091 -0.5169 -1.0911
18291TIP3    H276365   3.727   1.848   1.643  0.4909 -0.1211  2.2311
18292TIP3   OH276366   1.520   0.875  16.325  0.0716  0.2018 -0.0542
18292TIP3    H176367   1.438   0.852  16.282  0.3162 -0.6230 -0.0869
18292TIP3    H276368   1.523   0.819  16.403  1.1228 -0.5823 -0.6307
18293TIP3   OH276369   2.951   0.592  17.155 -0.3402  0.0642  0.3544
18293TIP3    H176370   2.975   0.502  17.133  0.7356  0.4522 -0.1838
18293TIP3    H276371   2.936   0.591  17.249  0.3412 -0.5494  0.4663
18294TIP3   OH276372   0.481   1.983   0.709 -0.1304  0.8446  0.0184
18294TIP3    H176373   0.473   2.060   0.765 -2.9912  1.1990 -0.7248
18294TIP3    H276374   0.420   1.919   0.746  0.0274  0.0323 -1.0460
18295TIP3   OH276375   4.173   4.883   4.702  0.5560 -0.3241 -0.0192
18295TIP3    H176376   4.151   4.974   4.681 -2.2497 -0.7148  0.8183
18295TIP3    H276377   4.231   4.889   4.777 -0.3650  0.8056  0.6477
18296TIP3   OH276378   6.206   5.706  13.117  0.3981 -0.3334 -0.8474
18296TIP3    H176379   6.175   5.624  13.080  1.0243 -0.2346 -1.6134
18296TIP3    H276380   6.285   5.728  13.067  0.8777  0.1660  0.0860
18297TIP3   OH276381   0.343   3.880   0.585  0.1661 -0.0434  0.4770
18297TIP3    H176382   0.414   3.921   0.537  1.3539 -1.6516  0.7538
18297TIP3    H276383   0.264   3.925   0.555  1.0178  0.0541 -1.8116
18298TIP3   OH276384   2.163   1.218  11.356  0.1253  0.0900  0.1472
18298TIP3    H176385   2.241   1.214  11.301  0.6323  0.5129  0.8200
18298TIP3    H276386   2.192   1.263  11.435 -0.6159 -0.4369  0.7261
18299TIP3   OH276387   4.463   3.066  11.586 -0.3931  0.5911 -0.2861
18299TIP3    H176388   4.472   3.160  11.606  3.5747  0.2711  0.2174
18299TIP3    H276389   4.487   3.058  11.494  0.7535 -0.0677  0.0585
18300TIP3   OH276390   0.719   0.534  11.040 -0.1995  0.6984 -0.1128
18300TIP3    H176391   0.634   0.499  11.011 -1.0010  2.0074  0.5460
18300TIP3    H276392   0.783   0.486  10.989 -1.2656 -1.1879  0.2309
18301TIP3   OH276393   4.345   3.914  14.134 -0.3783  0.2681  0.2992
18301TIP3    H176394   4.343   4.008  14.117 -1.5541 -0.0520 -1.6416
18301TIP3    H276395   4.321   3.874  14.050  0.3611 -1.7822  1.0055
18302TIP3   OH276396   3.849   1.866  12.218  0.1596  0.0353  0.3227
18302TIP3    H176397   3.886   1.952  12.239  1.9651 -0.9929  1.7270
18302TIP3    H276398   3.782   1.884  12.152 -0.3595  2.6386  1.4152
18303TIP3   OH276399   4.632   0.941  16.452 -0.4924 -0.4910  0.3799
18303TIP3    H176400   4.642   0.919  16.544 -0.8484  0.1916  0.5824
18303TIP3    H276401   4.674   0.868  16.406 -0.0953 -0.7138  1.0808
18304TIP3   OH276402   1.593   0.349   4.654 -0.6922 -0.0143 -0.7302
18304TIP3    H176403   1.527   0.417   4.640 -0.5386  0.6721  1.5189
18304TIP3    H276404   1.626   0.366   4.742  0.5035 -2.0607 -0.7375
18305TIP3   OH276405   0.950   5.444  16.923  0.1530 -0.5830 -0.2972
18305TIP3    H176406   0.898   5.373  16.962 -0.8071 -1.6959 -3.3363
18305TIP3    H276407   1.041   5.415  16.933 -0.2582 -2.8057 -2.2955
18306TIP3   OH276408   0.279   5.213   2.440  0.2046 -0.0814 -0.7271
18306TIP3    H176409   0.328   5.149   2.491 -0.6723 -0.1167  0.1161
18306TIP3    H276410   0.275   5.177   2.352  1.1262 -0.3814 -0.6556
18307TIP3   OH276411   5.709   0.002   5.763  0.2983  0.4054 -0.1627
18307TIP3    H176412   5.694   0.033   5.853  2.0858  1.2342 -0.1123
18307TIP3    H276413   5.621  -0.019   5.731 -0.2703 -1.3202  2.2365
18308TIP3   OH276414   6.214   1.053  11.935 -0.0025  0.5913 -0.7890
18308TIP3    H176415   6.251   1.132  11.975  1.3528  0.6025 -2.0025
18308TIP3    H276416   6.152   1.087  11.870 -1.5744  0.5761  0.6056
18309TIP3   OH276417   0.205   0.724  15.623 -0.0488  0.5518  0.3990
18309TIP3    H176418   0.263   0.673  15.566 -1.8718 -0.0250 -1.0567
18309TIP3    H276419   0.258   0.744  15.700  1.7371 -0.8048 -0.4073
18310TIP3   OH276420   1.961   1.687  12.313  0.2333 -0.1067  0.0124
18310TIP3    H176421   1.893   1.663  12.251 -0.9281  1.4718  0.6258
18310TIP3    H276422   2.040   1.643  12.280 -0.7564 -0.8262 -1.4925
18311TIP3   OH276423   6.241   0.063  13.874  0.7277 -0.2913 -0.2062
18311TIP3    H176424   6.289   0.014  13.807 -1.5097 -2.3313 -0.4815
18311TIP3    H276425   6.165   0.098  13.827 -2.8715 -4.7094  1.5561
18312TIP3   OH276426   2.693   4.645   3.677 -0.4061  0.3452 -0.1395
18312TIP3    H176427   2.643   4.714   3.721 -2.3963 -0.1522 -1.4566
18312TIP3    H276428   2.646   4.564   3.698  1.4882 -0.5900  0.8169
18313TIP3   OH276429   3.523   4.093   0.581  0.1173 -0.3478 -0.4839
18313TIP3    H176430   3.618   4.109   0.578  0.6005 -2.8582 -0.7344
18313TIP3    H276431   3.489   4.136   0.503  0.5995  2.7190  0.8448
18314TIP3   OH276432   4.640   4.018  15.474  0.2088  0.1760  0.0500
18314TIP3    H176433   4.636   4.092  15.413  1.2504 -0.2335 -0.5442
18314TIP3    H276434   4.716   4.038  15.530 -0.2649  0.1603  0.7184
18315TIP3   OH276435   2.620   6.634   0.797  0.4985  0.5785 -0.0295
18315TIP3    H176436   2.681   6.587   0.740 -0.8382  1.7445 -2.6202
18315TIP3    H276437   2.582   6.701   0.741 -1.6466  1.2285  2.0309
18316TIP3   OH276438   0.915   2.235   4.272  0.6992 -0.3763 -0.2021
18316TIP3    H176439   0.906   2.250   4.178  1.9279 -1.2691 -0.4781
18316TIP3    H276440   0.894   2.320   4.311 -2.2118 -0.5577 -1.0708
18317TIP3   OH276441   4.116   3.357   4.940  0.7797  0.3458  0.0852
18317TIP3    H176442   4.206   3.381   4.916  0.8374  1.1710  1.0568
18317TIP3    H276443   4.083   3.434   4.987  0.2991 -0.7368  1.5888
18318TIP3   OH276444   5.982   2.396  16.967  0.6405 -0.1514  0.1480
18318TIP3    H176445   5.947   2.480  16.996 -1.1237 -0.2489 -1.4917
18318TIP3    H276446   6.073   2.415  16.943  0.0304  1.5346 -1.0190
18319TIP3   OH276447   0.990   1.012  11.611 -0.5726  0.3297  0.1728
18319TIP3    H176448   1.063   0.982  11.556 -1.0349  1.2114 -0.9651
18319TIP3    H276449   0.993   1.108  11.605 -0.0415  0.5283  2.5069
18320TIP3   OH276450   1.933   0.699  13.193 -0.2725  0.0342  0.0058
18320TIP3    H176451   1.964   0.765  13.132 -0.2170 -0.0892 -0.0987
18320TIP3    H276452   1.912   0.749  13.273 -0.8266  0.2655 -0.2784
18321TIP3   OH276453   3.181   2.511   3.583  0.5753  0.1429 -0.2195
18321TIP3    H176454   3.274   2.529   3.568  1.0862 -1.6926  0.5044
18321TIP3    H276455   3.173   2.509   3.679 -0.1276 -0.1411 -0.2817
18322TIP3   OH276456   2.968   5.577   2.650  0.5764  0.5842  0.0043
18322TIP3    H176457   2.980   5.521   2.574  0.7195  0.9403 -0.2371
18322TIP3    H276458   3.058   5.597   2.679  0.5217 -0.5485  1.0059
18323TIP3   OH276459   3.566   3.189  15.501 -0.3267 -0.0735 -0.3653
18323TIP3    H176460   3.512   3.207  15.578  0.5857 -0.7345  0.4547
18323TIP3    H276461   3.648   3.155  15.536  0.6242  0.8369 -1.5750
18324TIP3   OH276462   5.500   4.449  15.848  0.4937 -0.5766  0.5593
18324TIP3    H176463   5.550   4.452  15.766  1.2734  1.6511  1.0532
18324TIP3    H276464   5.409   4.457  15.820  0.6834 -0.6836 -0.1307
18325TIP3   OH276465   2.174   1.396   4.924  0.0478 -0.0476 -0.1474
18325TIP3    H176466   2.191   1.489   4.912 -0.1352  0.0450  0.2918
18325TIP3    H276467   2.177   1.383   5.019 -1.8366 -0.1157 -0.0599
18326TIP3   OH276468   1.225   5.844  17.171  0.3548 -0.0028 -0.5502
18326TIP3    H176469   1.296   5.824  17.110 -0.5883  1.5217 -2.2529
18326TIP3    H276470   1.159   5.777  17.154 -0.5282  1.2282 -2.3732
18327TIP3   OH276471   1.912   1.248  13.140  0.0211 -0.0040  0.0995
18327TIP3    H176472   2.007   1.258  13.146 -0.0954  1.6392 -0.4982
18327TIP3    H276473   1.884   1.236  13.231  0.7507 -0.0426  0.3247
18328TIP3   OH276474   2.269   0.269   6.255  0.2013  0.4466  0.3333
18328TIP3    H176475   2.222   0.326   6.316 -0.4991  0.5626 -0.2975
18328TIP3    H276476   2.291   0.191   6.306  0.1003  0.7697  0.8771
18329TIP3   OH276477   6.021   1.397  16.531 -0.3428  0.2083 -0.1069
18329TIP3    H176478   6.029   1.436  16.444 -1.1073 -0.3270 -0.4301
18329TIP3    H276479   6.021   1.303  16.516 -0.5783  0.1111  0.4622
18330TIP3   OH276480   5.719   1.095   3.906  0.0019 -0.1987 -0.2890
18330TIP3    H176481   5.810   1.098   3.877  0.0837 -0.4621 -0.0633
18330TIP3    H276482   5.724   1.111   4.000 -0.2915  1.0579 -0.4665
18331TIP3   OH276483   0.065   6.215   4.403  0.2832  0.1521  0.7403
18331TIP3    H176484  -0.017   6.173   4.377  1.1752 -2.9179  2.4487
18331TIP3    H276485   0.131   6.179   4.343  0.6404  1.6566  0.1776
18332TIP3   OH276486   0.584   0.493   1.644  0.4419 -0.4923 -0.6534
18332TIP3    H176487   0.603   0.531   1.730 -0.9837 -0.2500 -0.4130
18332TIP3    H276488   0.598   0.400   1.655  0.8360 -0.3949 -0.3176
18333TIP3   OH276489   5.814   0.435  16.662  0.1319  0.0964  0.3720
18333TIP3    H176490   5.887   0.485  16.701 -0.2639 -0.5894  2.1138
18333TIP3    H276491   5.843   0.416  16.573  0.7699  2.4293  0.0198
18334TIP3   OH276492   5.281   1.307  12.858  0.1041 -0.4239 -0.3397
18334TIP3    H176493   5.196   1.312  12.902  0.4414 -1.8718  0.5372
18334TIP3    H276494   5.317   1.223  12.886  1.8648  0.1988 -0.6460
18335TIP3   OH276495   3.025   4.504   1.478 -0.8171  0.0859 -0.1071
18335TIP3    H176496   2.984   4.589   1.493 -2.2340 -0.3031 -1.4648
18335TIP3    H276497   3.008   4.455   1.558 -1.2531  0.6077  0.1281
18336TIP3   OH276498   3.959   5.745  15.687 -0.2983  0.2867  0.4835
18336TIP3    H176499   3.975   5.742  15.781  1.7705  2.1346  0.2581
18336TIP3    H276500   3.999   5.665  15.653 -1.0930 -0.4118  1.1498
18337TIP3   OH276501   0.026   5.454   4.597 -0.0093  0.1361  0.2655
18337TIP3    H176502   0.046   5.406   4.516  0.6742  0.2512  0.3618
18337TIP3    H276503  -0.011   5.537   4.567 -0.4138 -0.1043  0.0868
18338TIP3   OH276504   5.720   5.799  13.044  0.0371  0.0486 -0.4432
18338TIP3    H176505   5.703   5.830  13.133  1.2813  1.4339 -0.6500
18338TIP3    H276506   5.683   5.867  12.987  3.7809  1.9504 -0.9099
18339TIP3   OH276507   0.464   1.006   5.903  0.6718  0.8715  0.3344
18339TIP3    H176508   0.445   1.025   5.995  2.0145  1.3502  0.5409
18339TIP3    H276509   0.471   0.910   5.899 -3.0071  0.4923 -0.0667
18340TIP3   OH276510   0.245   2.121  11.715 -0.4592  0.1256 -0.6442
18340TIP3    H176511   0.300   2.177  11.770 -1.2801  0.3411 -0.0132
18340TIP3    H276512   0.217   2.179  11.644  0.8840 -0.2477 -1.5122
18341TIP3   OH276513   3.116   2.350   2.019  0.7323  0.9558 -0.0930
18341TIP3    H176514   3.101   2.409   2.093  0.9126  2.0599 -0.9099
18341TIP3    H276515   3.208   2.326   2.024  0.0407 -1.8002  2.0192
18342TIP3   OH276516   1.630   6.780  11.328  0.1724  0.0687 -0.2317
18342TIP3    H176517   1.649   6.715  11.395 -0.0074 -0.1866 -0.4267
18342TIP3    H276518   1.658   6.863  11.366 -2.2685  0.3349  1.2266
18343TIP3   OH276519   1.617   4.210  13.123 -0.1408  0.0799 -0.1110
18343TIP3    H176520   1.583   4.299  13.134  0.1111  0.1639  0.0197
18343TIP3    H276521   1.545   4.160  13.086 -1.5376 -0.5719  3.1755
18344TIP3   OH276522   2.457   5.472   4.598 -0.5051 -0.1489 -0.4031
18344TIP3    H176523   2.435   5.520   4.678  0.2166  0.5187 -0.6000
18344TIP3    H276524   2.450   5.537   4.528  1.9344  0.0864 -0.5001
18345TIP3   OH276525   5.139   3.870  12.302  0.3764  0.7569  0.6209
18345TIP3    H176526   5.131   3.840  12.392  1.1100  0.9133  0.7445
18345TIP3    H276527   5.230   3.850  12.278  0.1972  0.7419 -0.0714
18346TIP3   OH276528   0.013   3.747   2.179 -0.5018 -0.2411  0.0122
18346TIP3    H176529   0.088   3.691   2.155 -0.7694 -0.4755 -0.2801
18346TIP3    H276530  -0.040   3.692   2.237 -1.0756 -0.5051 -0.7529
18347TIP3   OH276531   2.418   5.091  12.199  0.0027 -0.0101 -0.0900
18347TIP3    H176532   2.402   4.999  12.177 -0.1905  0.1711 -0.7438
18347TIP3    H276533   2.481   5.088  12.270 -1.0225 -0.6853  0.8372
18348TIP3   OH276534   3.607   2.498   0.018  0.1328  0.1590 -0.2899
18348TIP3    H176535   3.572   2.493  -0.071 -1.3544 -1.3455  0.3268
18348TIP3    H276536   3.617   2.592   0.033 -0.6383  0.5039 -1.6691
18349TIP3   OH276537   6.119   6.526   2.478 -0.0606 -0.4857 -0.0385
18349TIP3    H176538   6.051   6.505   2.414 -2.1362  0.9786  1.5418
18349TIP3    H276539   6.169   6.596   2.437 -1.3346  0.4073 -0.1253
18350TIP3   OH276540   2.226   6.424   2.256 -0.3557 -0.2669  0.2535
18350TIP3    H176541   2.258   6.511   2.232 -0.1829 -0.4451 -0.1629
18350TIP3    H276542   2.237   6.419   2.351  0.1060 -0.0298  0.2109
18351TIP3   OH276543   2.286   0.444  10.962  0.0629  0.3087  0.0737
18351TIP3    H176544   2.293   0.539  10.968  2.3959  0.2086 -0.1621
18351TIP3    H276545   2.329   0.422  10.879 -2.3551 -0.8397 -1.0013
18352TIP3   OH276546   2.955   4.621   0.846 -0.0053  0.5413  0.2337
18352TIP3    H176547   2.950   4.581   0.760 -0.4192 -1.2386  1.0224
18352TIP3    H276548   2.865   4.649   0.865  0.0963  0.9826  0.0664
18353TIP3   OH276549   0.468   1.734  13.144  0.5703  0.6097 -0.0677
18353TIP3    H176550   0.486   1.665  13.080 -0.1440  0.1788  0.1886
18353TIP3    H276551   0.402   1.789  13.102  0.8496  0.9134 -0.1120
18354TIP3   OH276552   6.565   0.848  13.630 -0.4847 -0.6405  0.1622
18354TIP3    H176553   6.515   0.771  13.604  0.0113 -0.8225 -0.2614
18354TIP3    H276554   6.598   0.884  13.548  0.4315 -0.7609  0.4715
18355TIP3   OH276555   6.001   0.113   5.219  0.0337  0.2548 -0.0366
18355TIP3    H176556   6.001   0.056   5.295 -2.4027  0.5440  0.2529
18355TIP3    H276557   5.926   0.172   5.232  2.0016  3.1182 -0.6469
18356TIP3   OH276558   1.709   2.064   1.648 -0.6281 -0.0349 -0.4066
18356TIP3    H176559   1.669   2.004   1.586  0.9449  0.0582 -1.5722
18356TIP3    H276560   1.737   2.009   1.721  0.5599 -0.7137 -1.3412
18357TIP3   OH276561   4.179   3.992   0.167  0.1054  0.3569  0.3200
18357TIP3    H176562   4.138   3.939   0.235 -1.4010  1.6386  0.4808
18357TIP3    H276563   4.110   4.005   0.102  1.1636  0.1544 -0.8822
18358TIP3   OH276564   1.532   0.955  15.864 -0.0757 -0.8691 -0.5121
18358TIP3    H176565   1.442   0.945  15.833 -0.2435 -0.8721 -0.0260
18358TIP3    H276566   1.583   0.897  15.808  0.0691  1.2328 -2.7464
18359TIP3   OH276567   6.616   4.065  16.755  0.4913  0.1629  0.1955
18359TIP3    H176568   6.527   4.057  16.720  0.2545  2.3960  0.1326
18359TIP3    H276569   6.605   4.055  16.849  0.0670  1.0273  0.2460
18360TIP3   OH276570   1.602   0.231  15.062 -0.3329  0.1526  0.1322
18360TIP3    H176571   1.683   0.280  15.072  0.1771 -0.7275  0.3984
18360TIP3    H276572   1.558   0.272  14.987  0.1924  0.8478  0.1964
18361TIP3   OH276573   1.076   2.690   6.672  0.4014 -0.4884 -0.6627
18361TIP3    H176574   1.062   2.601   6.640  4.5124 -1.1012 -1.3405
18361TIP3    H276575   1.146   2.682   6.736  1.9383  2.3696 -1.7855
18362TIP3   OH276576   4.031   5.817   3.423  0.3634 -0.4975  0.1502
18362TIP3    H176577   3.970   5.836   3.495  0.2360  3.1287 -0.6967
18362TIP3    H276578   3.979   5.829   3.344  1.1447 -1.7618 -0.5799
18363TIP3   OH276579   1.391   3.446   2.996  0.4104  0.1156  0.1681
18363TIP3    H176580   1.297   3.455   3.013  0.3920 -1.7099  1.3153
18363TIP3    H276581   1.399   3.454   2.901 -1.1254 -1.2485 -0.1136
18364TIP3   OH276582   3.437   6.707   2.812 -0.0915  0.0253  0.0449
18364TIP3    H176583   3.507   6.643   2.825  0.0624  0.0723 -0.5145
18364TIP3    H276584   3.362   6.671   2.858  0.5058  0.3405  1.3031
18365TIP3   OH276585   0.481   3.243  10.787  0.0852  0.4093 -0.6014
18365TIP3    H176586   0.465   3.327  10.831 -2.2126 -0.8683  1.2206
18365TIP3    H276587   0.419   3.243  10.714  1.4765  1.0694 -1.8286
18366TIP3   OH276588   2.157   0.632   1.300  0.1073  0.1478 -0.6334
18366TIP3    H176589   2.101   0.641   1.223  1.0600  1.9072 -1.1618
18366TIP3    H276590   2.195   0.544   1.292  0.0336  0.2257 -2.0522
18367TIP3   OH276591   3.494   1.642  15.506 -0.4278  0.1996 -0.8287
18367TIP3    H176592   3.479   1.731  15.474  2.6246  1.0174 -0.3316
18367TIP3    H276593   3.498   1.588  15.427 -0.8579  0.7372 -1.2233
18368TIP3   OH276594   6.456   5.612   5.034  0.1846  0.2341  0.0441
18368TIP3    H176595   6.423   5.670   5.103  1.3896  0.6274  0.3049
18368TIP3    H276596   6.417   5.527   5.055  0.2260  0.4354  0.9862
18369TIP3   OH276597   5.951   0.280  15.971 -0.1023 -0.5783  0.6141
18369TIP3    H176598   5.903   0.351  16.014  0.9243  1.8780 -1.9168
18369TIP3    H276599   5.930   0.291  15.878  1.4645 -2.5780 -0.0420
18370TIP3   OH276600   5.800   1.208   4.149 -0.5558  0.4199 -0.1967
18370TIP3    H176601   5.825   1.292   4.110  0.8198 -0.0751 -0.4242
18370TIP3    H276602   5.865   1.192   4.217 -0.1508 -0.9696 -0.8802
18371TIP3   OH276603   1.860   4.384   3.872  0.4444  0.4064 -0.4871
18371TIP3    H176604   1.827   4.347   3.789  0.3320 -2.2153  0.6275
18371TIP3    H276605   1.940   4.429   3.847 -0.2771  0.8404 -2.2152
18372TIP3   OH276606   4.001   5.698  11.815  0.3746 -0.0133 -0.1759
18372TIP3    H176607   3.941   5.753  11.765  0.7253  2.6722  2.1222
18372TIP3    H276608   3.953   5.675  11.895  0.2004 -3.3080 -1.0831
18373TIP3   OH276609   3.093   3.085  10.907 -0.4630 -1.0274  0.1934
18373TIP3    H176610   3.015   3.086  10.851 -1.4250  0.8084  1.4890
18373TIP3    H276611   3.112   3.177  10.923  0.5810 -1.4844  1.7927
18374TIP3   OH276612   4.486   6.419   5.516  0.2896  0.2542 -0.6293
18374TIP3    H176613   4.464   6.428   5.423  0.9773  1.0536 -0.7252
18374TIP3    H276614   4.436   6.487   5.560 -1.0072 -0.9160 -0.2281
18375TIP3   OH276615   1.834   0.405  15.032 -0.4222 -0.2184 -0.1426
18375TIP3    H176616   1.798   0.493  15.032 -1.3745 -0.5801 -1.1799
18375TIP3    H276617   1.920   0.414  14.991  0.7317  0.6522  2.3242
18376TIP3   OH276618   6.081   0.482   2.642 -0.1331 -0.2686  0.0436
18376TIP3    H176619   6.001   0.436   2.668 -0.4824 -0.2475 -0.9730
18376TIP3    H276620   6.064   0.573   2.664 -0.3766 -0.2681 -0.1462
18377TIP3   OH276621   4.088   3.994  11.553  0.2492 -0.8294 -0.1476
18377TIP3    H176622   4.076   4.010  11.646 -2.5929 -0.6019 -0.4706
18377TIP3    H276623   4.113   4.079  11.516  2.7562 -1.1945  0.4985
18378TIP3   OH276624   1.760   4.305  15.199  0.2170 -0.2531  0.0431
18378TIP3    H176625   1.785   4.216  15.174 -0.8240 -0.9764  1.4213
18378TIP3    H276626   1.832   4.336  15.252  0.5016 -0.3440 -0.2850
18379TIP3   OH276627   5.349   4.767   1.335  0.0376 -0.0797 -0.6984
18379TIP3    H176628   5.342   4.817   1.254  2.0712 -0.8127 -1.3812
18379TIP3    H276629   5.443   4.754   1.348 -0.2982 -1.1983  1.0195
18380TIP3   OH276630   2.219   4.238   3.672  0.2988  0.5902 -0.1537
18380TIP3    H176631   2.162   4.190   3.611  1.1098 -0.3632 -0.1778
18380TIP3    H276632   2.192   4.208   3.759  0.2644  0.6984 -0.1268
18381TIP3   OH276633   1.179   3.870  15.204  0.4625 -0.3712  0.0681
18381TIP3    H176634   1.114   3.837  15.266  0.1611  0.2663  0.1036
18381TIP3    H276635   1.219   3.792  15.167  0.6035 -0.7657  1.0177
18382TIP3   OH276636   5.649   6.231   4.085 -0.0730 -0.1312  0.2320
18382TIP3    H176637   5.675   6.307   4.032 -1.5087  0.5495  0.4522
18382TIP3    H276638   5.728   6.208   4.134  0.8584  0.1645 -1.0721
18383TIP3   OH276639   0.061   1.355   6.124  0.2667  0.1768  0.6347
18383TIP3    H176640   0.083   1.434   6.173 -0.2582  1.3167 -0.8952
18383TIP3    H276641  -0.025   1.373   6.086 -0.5292 -1.7187  1.4091
18384TIP3   OH276642   1.577   3.733  15.269  0.2723  0.1511 -0.1383
18384TIP3    H176643   1.671   3.749  15.261  0.4861 -0.1872  1.4838
18384TIP3    H276644   1.571   3.641  15.297 -0.5720  0.0490 -0.6190
18385TIP3   OH276645   3.447   0.323  11.270  0.1683  0.1070 -0.8921
18385TIP3    H176646   3.368   0.352  11.315  0.0431 -0.2192 -0.8966
18385TIP3    H276647   3.415   0.271  11.196  0.3935 -1.2711 -0.0562
18386TIP3   OH276648   0.748   0.464   2.720 -0.1561 -0.6844  0.5594
18386TIP3    H176649   0.723   0.373   2.735 -0.6624 -1.1223 -2.4275
18386TIP3    H276650   0.726   0.508   2.802 -0.2798 -3.1406  1.9517
18387TIP3   OH276651   5.630   5.298   1.991 -0.0112  0.5145 -0.6028
18387TIP3    H176652   5.695   5.227   1.995  0.6346  1.0226 -1.6249
18387TIP3    H276653   5.623   5.329   2.082  0.0609 -0.5233 -0.2268
18388TIP3   OH276654   0.547   3.657  12.979  0.1322 -0.0869  0.1179
18388TIP3    H176655   0.491   3.620  13.047  0.2575  1.3607  1.0558
18388TIP3    H276656   0.579   3.581  12.930  0.1715 -1.1907  1.7840
18389TIP3   OH276657   6.619   3.452   2.767  0.1142  0.1698 -0.2790
18389TIP3    H176658   6.603   3.489   2.854  0.5631 -0.8223  0.2370
18389TIP3    H276659   6.713   3.463   2.754  0.0844  0.1042 -0.5432
18390TIP3   OH276660   5.245   2.744  15.213  0.1165 -0.8453 -0.0215
18390TIP3    H176661   5.202   2.703  15.288 -2.1630 -0.6342 -1.1153
18390TIP3    H276662   5.177   2.799  15.174  1.8345  0.6523 -1.0725
18391TIP3   OH276663   0.997   1.781  14.031 -1.2899  0.7382 -0.0211
18391TIP3    H176664   0.964   1.709  13.977  2.5879 -1.1038 -0.2843
18391TIP3    H276665   0.968   1.759  14.120 -0.9000 -0.7387 -0.2262
18392TIP3   OH276666   0.808   5.922   2.732  0.3824 -0.1953 -0.8668
18392TIP3    H176667   0.739   5.858   2.750  0.1265  0.5320  0.9901
18392TIP3    H276668   0.763   6.007   2.731  1.3593  0.4347  1.6945
18393TIP3   OH276669   3.024   0.674  15.877  0.2610  0.2801  0.7721
18393TIP3    H176670   3.110   0.635  15.860  0.2901  1.0276 -1.0994
18393TIP3    H276671   2.962   0.602  15.867  0.4626  0.2900 -0.8063
18394TIP3   OH276672   0.190   3.063   1.594 -0.5105  0.7425 -0.0257
18394TIP3    H176673   0.201   3.094   1.683  1.3697  1.6204 -0.5155
18394TIP3    H276674   0.229   2.975   1.595 -2.0250  0.0326  0.3664
18395TIP3   OH276675   3.293   0.507  14.529  0.4424 -0.5733 -0.6548
18395TIP3    H176676   3.324   0.598  14.524  2.8236 -1.3422 -1.0265
18395TIP3    H276677   3.281   0.480  14.438 -1.2321 -0.3713 -0.5241
18396TIP3   OH276678   0.380   5.781  16.968  0.0061 -0.1564  0.0589
18396TIP3    H176679   0.472   5.783  16.942 -0.2114 -0.0911 -0.7363
18396TIP3    H276680   0.382   5.755  17.060  0.8083 -0.3500 -0.0001
18397TIP3   OH276681   6.040   4.765  13.182  0.0126 -0.1058  0.2825
18397TIP3    H176682   5.997   4.840  13.223  1.7741  0.8987  0.3757
18397TIP3    H276683   6.089   4.802  13.108  0.3126 -1.2728 -0.1263
18398TIP3   OH276684   2.550   0.511   0.800 -0.1860  0.1255 -0.2962
18398TIP3    H176685   2.615   0.494   0.868 -0.7264  1.5550  0.6233
18398TIP3    H276686   2.506   0.427   0.788 -0.8283  0.0660  1.9505
18399TIP3   OH276687   2.387   1.413  13.557 -0.2587  0.2244  0.4609
18399TIP3    H176688   2.366   1.456  13.473  1.9045  2.0455  0.7647
18399TIP3    H276689   2.334   1.461  13.621  0.2266  0.7755  0.4644
18400TIP3   OH276690   4.651   3.223   2.371 -0.1299  0.7820  0.6099
18400TIP3    H176691   4.671   3.281   2.299  0.2500  1.0832  0.9548
18400TIP3    H276692   4.734   3.211   2.417 -0.1554 -0.2003  0.4236
18401TIP3   OH276693   0.443   1.941   5.795  0.4450  0.3241  0.0291
18401TIP3    H176694   0.532   1.952   5.761  0.4502 -1.9571 -0.8352
18401TIP3    H276695   0.454   1.894   5.877  0.0701  0.9319  0.4354
18402TIP3   OH276696   1.676   2.896  11.086  0.4080  0.1728 -0.0874
18402TIP3    H176697   1.712   2.915  11.000  1.1807  1.8930  0.5615
18402TIP3    H276698   1.593   2.852  11.069  0.5469  0.5055 -1.6995
18403TIP3   OH276699   3.191   4.195  13.794 -0.2788  0.3845 -0.3939
18403TIP3    H176700   3.195   4.171  13.887  0.3400 -0.0463 -0.5309
18403TIP3    H276701   3.118   4.143  13.759 -0.5248  0.5608 -0.1500
18404TIP3   OH276702   3.367   2.028   2.130  0.2122  0.4412  0.1166
18404TIP3    H176703   3.325   1.996   2.051  0.6665 -1.2064  0.5026
18404TIP3    H276704   3.383   2.121   2.113  1.1476 -0.0575 -2.0870
18405TIP3   OH276705   2.960   2.498   0.506  0.1244 -0.6878  0.1939
18405TIP3    H176706   2.972   2.424   0.565  0.0988  0.3050  1.4907
18405TIP3    H276707   3.038   2.497   0.450 -0.3486 -2.2520 -0.4651
18406TIP3   OH276708   3.809   5.316  13.434 -0.5064  0.0988  0.1486
18406TIP3    H176709   3.753   5.257  13.485  0.1144  0.3211  1.1137
18406TIP3    H276710   3.835   5.384  13.496  1.5974 -0.5056  0.0112
18407TIP3   OH276711   6.639   0.767  14.906  0.3604 -0.0431  0.1007
18407TIP3    H176712   6.550   0.749  14.875  0.4976 -0.9750  0.2235
18407TIP3    H276713   6.660   0.692  14.962  1.2992  0.0664 -0.0937
18408TIP3   OH276714   1.303   4.753  10.801 -0.1581 -0.1019  0.3659
18408TIP3    H176715   1.339   4.820  10.858 -0.1049  0.5966 -0.4687
18408TIP3    H276716   1.214   4.783  10.782  0.1498  0.1716 -0.6838
18409TIP3   OH276717   2.530   0.178   6.441  0.2671 -0.1762  0.4358
18409TIP3    H176718   2.471   0.103   6.432 -0.0091 -0.0798  1.3381
18409TIP3    H276719   2.584   0.157   6.517  0.1025  0.6030  0.7716
18410TIP3   OH276720   3.911   6.713  16.945 -0.4029 -0.6687 -0.2047
18410TIP3    H176721   3.969   6.766  16.890 -0.9259  0.9382  0.7458
18410TIP3    H276722   3.834   6.768  16.960 -0.0508 -0.7742  2.5819
18411TIP3   OH276723   1.381   2.402  17.075 -0.4159  0.3546  0.5215
18411TIP3    H176724   1.393   2.470  17.008 -1.6088  0.0731  0.0102
18411TIP3    H276725   1.425   2.325  17.039  0.9528  0.8200  1.1079
18412TIP3   OH276726   3.678   6.266   0.567  0.0690 -0.4791 -0.2707
18412TIP3    H176727   3.681   6.359   0.587  0.2837 -0.7702  1.1460
18412TIP3    H276728   3.765   6.247   0.530  0.3222 -0.2778  0.2128
18413TIP3   OH276729   4.983   1.279   0.777 -0.2020  0.4077  0.4406
18413TIP3    H176730   4.943   1.233   0.851  0.0596 -0.0395  0.3112
18413TIP3    H276731   5.009   1.364   0.812  0.8142 -0.1649  1.1368
18414TIP3   OH276732   3.853   2.509   1.463  0.0461 -0.0036  0.9577
18414TIP3    H176733   3.888   2.422   1.442 -2.2134 -1.2882  2.1405
18414TIP3    H276734   3.906   2.569   1.410  2.0218 -2.0175  0.4780
18415TIP3   OH276735   6.368   1.699  12.116 -0.0528 -0.5731 -0.1730
18415TIP3    H176736   6.338   1.786  12.140 -0.0075 -0.8261  0.8124
18415TIP3    H276737   6.289   1.653  12.088 -0.2688 -0.5908  0.4548
18416TIP3   OH276738   3.029   0.956   3.634 -0.1799 -0.4124  0.3104
18416TIP3    H176739   2.972   0.928   3.706 -0.0733 -1.2026  0.1009
18416TIP3    H276740   2.975   0.949   3.556 -0.4270  0.8523  0.3425
18417TIP3   OH276741   0.724   0.412  10.669  0.5792 -0.1169 -0.3480
18417TIP3    H176742   0.701   0.325  10.637  2.4718 -1.0153  0.6000
18417TIP3    H276743   0.792   0.397  10.735  0.9248  2.0792 -0.1109
18418TIP3   OH276744   5.496   3.686   3.138 -0.3135 -0.0963 -0.0709
18418TIP3    H176745   5.467   3.777   3.148  3.1645  1.1637 -0.3003
18418TIP3    H276746   5.487   3.668   3.044 -1.7352 -0.3434  0.0806
18419TIP3   OH276747   2.919   6.092  10.877 -0.0739  0.6934 -0.0485
18419TIP3    H176748   2.950   6.151  10.946 -0.6629 -1.5483  2.3256
18419TIP3    H276749   2.829   6.120  10.860 -0.1810  0.8079  0.6813
18420TIP3   OH276750   4.556   5.642  11.804  0.0319 -0.1365 -0.1765
18420TIP3    H176751   4.473   5.683  11.831  0.1729 -0.9067  1.5630
18420TIP3    H276752   4.623   5.692  11.851  0.3544 -1.0438  0.3422
18421TIP3   OH276753   1.867   3.691   3.454  0.2310 -0.5283  0.8039
18421TIP3    H176754   1.915   3.720   3.532  0.6877 -2.4659  1.2913
18421TIP3    H276755   1.776   3.710   3.473  0.5513  1.2413  0.7600
18422TIP3   OH276756   3.356   4.428   6.352 -0.1710  0.4589  0.0364
18422TIP3    H176757   3.398   4.400   6.433 -1.0863  1.0170  0.7188
18422TIP3    H276758   3.346   4.347   6.301  0.2597  0.0792  0.5448
18423TIP3   OH276759   1.156   6.346   0.149 -0.0388 -0.5294 -0.1217
18423TIP3    H176760   1.145   6.406   0.075 -0.6198  0.3238  0.6357
18423TIP3    H276761   1.163   6.259   0.109 -1.9311 -0.2709 -1.1078
18424TIP3   OH276762   3.848   2.210  11.347  0.2668 -0.4717  0.0796
18424TIP3    H176763   3.813   2.275  11.286 -0.2463  1.3063  2.1417
18424TIP3    H276764   3.943   2.214  11.333  0.5044  2.5711  1.7349
18425TIP3   OH276765   1.029   6.287  16.467 -0.2181  0.4367 -0.5529
18425TIP3    H176766   1.051   6.209  16.518  0.6576  0.9902 -0.0692
18425TIP3    H276767   0.940   6.310  16.495  0.5114  1.1654  1.3054
18426TIP3   OH276768   5.988   3.644   3.080  0.2027  0.0494  0.3523
18426TIP3    H176769   5.972   3.564   3.031 -0.2970 -0.5178  1.4046
18426TIP3    H276770   5.997   3.616   3.171  0.8669  1.0934  0.6372
18427TIP3   OH276771   0.791   1.702   3.707 -0.1966 -0.0091  0.2411
18427TIP3    H176772   0.860   1.727   3.645 -0.8233 -1.1225 -0.9589
18427TIP3    H276773   0.762   1.616   3.677 -1.2751 -0.0962  1.4505
18428TIP3   OH276774   5.925   5.296   3.901 -0.0682  0.8460 -0.2626
18428TIP3    H176775   6.005   5.258   3.937 -0.5093 -0.4257 -0.5787
18428TIP3    H276776   5.890   5.348   3.973  0.2113  0.1092  0.4316
18429TIP3   OH276777   1.768   0.025  16.258 -0.1751 -0.0435 -0.1684
18429TIP3    H176778   1.763   0.077  16.338 -1.9876 -2.2450  1.2774
18429TIP3    H276779   1.827  -0.047  16.280  1.8101  0.9596 -1.9279
18430TIP3   OH276780   3.028   2.345  15.686  0.1004  0.2125  0.4094
18430TIP3    H176781   3.075   2.266  15.663  1.4997  0.9892  0.4856
18430TIP3    H276782   3.033   2.350  15.782 -1.2213 -0.3285  0.5238
18431TIP3   OH276783   6.167   5.407  13.867  0.0080 -0.8607 -0.3787
18431TIP3    H176784   6.222   5.350  13.813  1.1460 -0.4315  0.3050
18431TIP3    H276785   6.136   5.351  13.938 -0.5714 -1.1361 -0.8357
18432TIP3   OH276786   4.801   2.476   0.745 -0.3111  0.2499 -0.1331
18432TIP3    H176787   4.727   2.537   0.739 -2.8345 -2.4687  0.8352
18432TIP3    H276788   4.761   2.389   0.741  2.6475 -1.4155  2.0503
18433TIP3   OH276789   0.209   3.651  14.725 -0.2705 -0.2071 -0.5013
18433TIP3    H176790   0.270   3.596  14.677  0.8349  0.9078 -0.4389
18433TIP3    H276791   0.189   3.723  14.665  0.4224  0.7243  0.3429
18434TIP3   OH276792   6.638   0.948  13.376  0.0053 -0.4508  0.2795
18434TIP3    H176793   6.732   0.938  13.357  0.1064 -1.2772  1.1596
18434TIP3    H276794   6.597   0.953  13.289  0.8369 -0.3588 -0.1199
18435TIP3   OH276795   2.801   0.667  16.789  0.2024  0.0698  0.0228
18435TIP3    H176796   2.742   0.593  16.802 -0.8329  0.7316 -0.7572
18435TIP3    H276797   2.811   0.706  16.875  0.7540 -0.9533  0.4438
18436TIP3   OH276798   2.732   1.089   1.763 -0.0609 -0.0800 -0.2301
18436TIP3    H176799   2.688   1.011   1.729  0.7324 -0.0420 -1.4102
18436TIP3    H276800   2.668   1.128   1.823 -1.2970 -0.5174 -1.2039
18437TIP3   OH276801   1.488   3.848  15.921  1.0457 -0.1749 -0.4212
18437TIP3    H176802   1.479   3.810  15.833  2.2768 -2.1850  0.2362
18437TIP3    H276803   1.527   3.934  15.906  2.3252 -0.9448 -1.8455
18438TIP3   OH276804   0.246   0.677  12.660  0.4472  0.4267 -0.3979
18438TIP3    H176805   0.313   0.742  12.640  1.5220 -0.3856  0.4626
18438TIP3    H276806   0.232   0.685  12.754 -1.2935  1.1492 -0.6834
18439TIP3   OH276807   5.307   4.092  14.367 -0.4097  0.2327  0.2961
18439TIP3    H176808   5.304   4.174  14.416 -0.3809  0.9847 -0.9297
18439TIP3    H276809   5.383   4.046  14.402 -1.3248 -0.0088  2.1001
18440TIP3   OH276810   3.270   6.688   3.723  0.4066 -0.1185 -0.0441
18440TIP3    H176811   3.323   6.614   3.691  0.0533 -0.3601 -0.0751
18440TIP3    H276812   3.327   6.764   3.712  1.4560 -0.6045  1.6314
18441TIP3   OH276813   5.423   4.186   1.543  0.2055  0.4353  0.2966
18441TIP3    H176814   5.329   4.169   1.556 -0.4379  1.7002 -2.1788
18441TIP3    H276815   5.428   4.277   1.516  2.1903  0.4162  0.4430
18442TIP3   OH276816   0.513   2.089  16.309 -0.3753  0.1322  0.6251
18442TIP3    H176817   0.575   2.083  16.382 -1.6657 -0.0616  1.7498
18442TIP3    H276818   0.431   2.119  16.350 -2.1626 -3.3287 -0.0943
18443TIP3   OH276819   3.531   1.106   0.065  0.3182  0.4638  0.2522
18443TIP3    H176820   3.576   1.116   0.149  1.2577  0.6536 -0.2550
18443TIP3    H276821   3.561   1.180   0.012  1.3151 -0.7160 -0.9195
18444TIP3   OH276822   3.569   1.336  14.722  0.1226 -0.5698 -0.6533
18444TIP3    H176823   3.577   1.432  14.718  0.6109 -0.5572  0.3063
18444TIP3    H276824   3.579   1.308  14.631 -2.5521  0.4382 -1.3542
18445TIP3   OH276825   5.256   0.856  11.260 -0.2854 -0.0155 -0.4340
18445TIP3    H176826   5.327   0.921  11.267 -0.4351  0.1003  0.0637
18445TIP3    H276827   5.176   0.907  11.273 -0.7084  0.3600 -3.6599
18446TIP3   OH276828   5.841   5.822   0.379  1.0126  0.4795  0.1082
18446TIP3    H176829   5.816   5.810   0.471  0.2188 -1.4769 -0.3289
18446TIP3    H276830   5.918   5.878   0.383  1.4835 -0.2225  2.0316
18447TIP3   OH276831   0.480   3.934   1.035  0.1589  0.8204 -0.6221
18447TIP3    H176832   0.512   3.880   1.108 -2.7274  0.2356  0.3357
18447TIP3    H276833   0.439   3.872   0.975 -0.4401  1.6273 -1.0609
18448TIP3   OH276834   2.183   5.699  16.419 -0.0805 -0.4990  0.2460
18448TIP3    H176835   2.201   5.605  16.428 -0.0594 -0.9099 -2.9697
18448TIP3    H276836   2.268   5.740  16.433  0.0099 -0.9666  1.1903
18449TIP3   OH276837   5.065   3.624  15.292 -0.5714 -0.2318  0.0666
18449TIP3    H176838   5.025   3.657  15.373 -1.7793 -0.9139 -0.2284
18449TIP3    H276839   5.000   3.643  15.224  0.7424  1.0114 -0.9039
18450TIP3   OH276840   4.926   5.383  12.175 -0.1845  0.7122  0.2838
18450TIP3    H176841   4.893   5.468  12.203 -0.1753 -0.0048  2.7388
18450TIP3    H276842   4.900   5.323  12.246  0.5886 -1.1498 -0.9352
18451TIP3   OH276843   3.153   2.629   4.122  0.3250 -0.0473 -0.0446
18451TIP3    H176844   3.107   2.577   4.188 -0.8525  0.4261 -0.4703
18451TIP3    H276845   3.245   2.629   4.151 -0.2557  0.6949  1.9688
18452TIP3   OH276846   3.678   1.949  13.815  0.3317 -0.1073  0.1829
18452TIP3    H176847   3.690   2.033  13.770  0.3801 -1.4668 -2.5293
18452TIP3    H276848   3.593   1.957  13.859 -0.0518  1.0826 -0.7188
18453TIP3   OH276849   4.222   6.190   4.157 -0.5540 -0.4961 -0.3733
18453TIP3    H176850   4.167   6.264   4.184 -0.2643 -0.5408  0.3659
18453TIP3    H276851   4.291   6.230   4.105 -0.0237 -0.1390  0.5657
18454TIP3   OH276852   4.647   6.301  10.561 -0.4898  0.4961 -0.4664
18454TIP3    H176853   4.563   6.325  10.523 -0.4226  1.0817 -0.2602
18454TIP3    H276854   4.685   6.384  10.591 -0.1726  0.1536  0.1204
18455TIP3   OH276855   4.101   5.537  16.861 -0.2195 -0.1544 -0.1831
18455TIP3    H176856   4.089   5.625  16.896 -1.9785 -0.5139  0.1920
18455TIP3    H276857   4.159   5.494  16.924  0.8115  0.7621 -0.4666
18456TIP3   OH276858   4.546   6.595  14.550 -0.0046 -0.2325  0.0665
18456TIP3    H176859   4.626   6.647  14.539 -0.7039  0.6484 -1.1280
18456TIP3    H276860   4.573   6.505  14.533  0.5184  0.2043 -1.6767
18457TIP3   OH276861   2.416   0.449  16.604  0.5157 -0.0552 -0.3289
18457TIP3    H176862   2.348   0.516  16.591  1.5570  2.0817  3.5404
18457TIP3    H276863   2.367   0.368  16.620 -1.1880  1.2505  1.5261
18458TIP3   OH276864   4.123   2.607   5.166  0.5445  0.4520 -0.4277
18458TIP3    H176865   4.062   2.623   5.239  0.5582 -2.5112  0.3717
18458TIP3    H276866   4.079   2.645   5.090 -0.3688  1.9607  0.7882
18459TIP3   OH276867   1.869   5.061   4.295  0.1979  0.1811 -0.0553
18459TIP3    H176868   1.804   5.116   4.339  0.7077  0.7717 -0.0239
18459TIP3    H276869   1.941   5.055   4.359  1.6679  2.3932 -1.3686
18460TIP3   OH276870   4.841   0.450  15.832  0.3788 -0.0589  0.6888
18460TIP3    H176871   4.780   0.379  15.817  0.4282 -0.0242  0.3179
18460TIP3    H276872   4.913   0.434  15.771 -0.3377  1.1623 -0.5318
18461TIP3   OH276873   3.709   1.978  14.981  0.1397 -0.1663  0.1647
18461TIP3    H176874   3.757   2.059  14.998 -0.7723  0.2998  0.5560
18461TIP3    H276875   3.653   1.999  14.906  0.2075 -0.5734 -0.0035
18462TIP3   OH276876   1.593   3.799  13.230  0.2931 -0.4881  0.1102
18462TIP3    H176877   1.639   3.827  13.310 -0.4360 -1.2565  0.8190
18462TIP3    H276878   1.599   3.875  13.172  0.7993  0.1068  0.9107
18463TIP3   OH276879   6.703   3.882   5.148  0.1411 -0.2057 -0.1901
18463TIP3    H176880   6.758   3.960   5.148 -1.0182  0.6371  0.3844
18463TIP3    H276881   6.748   3.821   5.207  0.6576  0.3072 -0.0409
18464TIP3   OH276882   2.466   6.318   4.863  0.1922  0.1951 -0.1137
18464TIP3    H176883   2.415   6.284   4.936  1.1554 -0.4554  0.2746
18464TIP3    H276884   2.548   6.348   4.902  0.4907  0.3664 -0.8520
18465TIP3   OH276885   3.596   0.793   4.121  0.2296 -0.0653 -0.5976
18465TIP3    H176886   3.607   0.779   4.027 -2.2310  0.7813 -1.0928
18465TIP3    H276887   3.657   0.731   4.161  1.3936 -0.4115 -2.7211
18466TIP3   OH276888   3.597   0.818   1.578  0.3919  0.0257 -0.6415
18466TIP3    H176889   3.559   0.892   1.625 -0.0394 -0.3356 -0.4074
18466TIP3    H276890   3.663   0.783   1.638 -1.3102 -1.4773  0.4820
18467TIP3   OH276891   1.074   3.292   2.862  0.1078  0.3835 -0.5066
18467TIP3    H176892   1.013   3.263   2.931 -1.3824 -2.0424 -2.6682
18467TIP3    H276893   1.157   3.251   2.885 -0.1520  0.2727  0.2710
18468TIP3   OH276894   0.971   5.540   2.862  0.0920 -0.1660 -0.6079
18468TIP3    H176895   0.960   5.574   2.951 -3.5843  1.0766 -1.3687
18468TIP3    H276896   0.900   5.478   2.850  0.9865 -0.9238 -2.4376
18469TIP3   OH276897   5.519   0.236   2.392  0.1410  0.6078  0.0820
18469TIP3    H176898   5.602   0.279   2.412 -0.1072  0.8667  0.5844
18469TIP3    H276899   5.453   0.303   2.410 -0.0901  1.0248 -2.1016
18470TIP3   OH276900   4.159   1.303   5.385  0.2214  0.3260  0.1160
18470TIP3    H176901   4.067   1.291   5.363 -0.2621  0.7331  1.7984
18470TIP3    H276902   4.198   1.217   5.371 -0.8846 -0.4334  1.4723
18471TIP3   OH276903   2.132   5.134   0.815 -0.6651  0.7179 -0.1370
18471TIP3    H176904   2.192   5.168   0.882 -1.0533 -0.2880  0.7600
18471TIP3    H276905   2.068   5.082   0.865  0.3808 -2.0459 -1.4552
18472TIP3   OH276906   4.384   1.195   2.146 -0.1125  0.2155  0.1936
18472TIP3    H176907   4.370   1.101   2.146 -1.5365  0.3964  1.6472
18472TIP3    H276908   4.414   1.216   2.234 -0.1497  1.1768 -0.0041
18473TIP3   OH276909   6.164   5.150   3.973 -0.5013  0.1192  0.1992
18473TIP3    H176910   6.166   5.082   4.040  0.3210  0.2647  0.3349
18473TIP3    H276911   6.171   5.103   3.890 -0.4728  0.0052  0.2669
18474TIP3   OH276912   1.529   6.513  12.813 -0.1689 -0.5291  0.5058
18474TIP3    H176913   1.446   6.467  12.799  0.5530 -2.1679  1.3225
18474TIP3    H276914   1.580   6.454  12.869  1.4010  0.6108  0.3408
18475TIP3   OH276915   6.750   4.552  16.709  0.0374  0.1438  0.1473
18475TIP3    H176916   6.735   4.477  16.651 -0.5471 -0.0243  0.5130
18475TIP3    H276917   6.844   4.547  16.729 -0.3300 -1.6406  1.6969
18476TIP3   OH276918   2.085   5.502  16.656 -0.1215  0.0126  0.3380
18476TIP3    H176919   2.139   5.570  16.696 -1.2898  0.9478  0.3894
18476TIP3    H276920   2.086   5.430  16.719 -0.3337  0.7006  1.1456
18477TIP3   OH276921   3.251   0.271   5.103  0.3816 -0.2170  0.2435
18477TIP3    H176922   3.322   0.306   5.050 -0.2265  2.7982  1.2278
18477TIP3    H276923   3.226   0.343   5.161 -2.3046 -1.7286  1.1557
18478TIP3   OH276924   2.071   1.658   3.443 -0.0846 -0.4940  0.3293
18478TIP3    H176925   2.094   1.579   3.393 -1.2518 -1.2687  0.9681
18478TIP3    H276926   1.976   1.664   3.436 -0.1061  0.3094  1.1214
18479TIP3   OH276927   0.716   2.321  12.382 -0.1883 -0.1868  0.5605
18479TIP3    H176928   0.764   2.347  12.461 -1.7889  3.3649  0.5671
18479TIP3    H276929   0.641   2.271  12.415 -1.5148  2.2898  1.5679
18480TIP3   OH276930   1.478   6.476  17.036  0.4780  0.7604  0.0712
18480TIP3    H176931   1.516   6.561  17.056 -0.8596  1.1988  0.9310
18480TIP3    H276932   1.383   6.493  17.031  0.3897 -0.0072 -3.2071
18481TIP3   OH276933   2.075   3.530   1.874  0.1249 -0.0384 -0.1771
18481TIP3    H176934   2.060   3.439   1.847 -0.0157 -0.0417 -0.0888
18481TIP3    H276935   2.169   3.544   1.860 -0.2473  0.5431 -2.4078
18482TIP3   OH276936   4.797   0.338   4.419 -0.0373 -0.0538  0.1322
18482TIP3    H176937   4.876   0.301   4.378 -0.2659  0.2125 -0.5586
18482TIP3    H276938   4.751   0.262   4.454 -0.3149 -0.4062 -0.9544
18483TIP3   OH276939   3.365   3.689   0.937 -0.0247 -0.0250  0.3180
18483TIP3    H176940   3.349   3.619   1.001 -0.6518  1.5344  1.9435
18483TIP3    H276941   3.279   3.706   0.899 -0.2003  0.9536  1.1245
18484TIP3   OH276942   5.315   3.744  17.026  0.0732  0.2094 -0.3441
18484TIP3    H176943   5.336   3.805  16.956  1.1524 -1.0441 -1.1518
18484TIP3    H276944   5.238   3.696  16.994  1.3432 -1.2762 -1.3182
18485TIP3   OH276945   6.785   6.588   4.150 -0.8728  0.2444  0.1235
18485TIP3    H176946   6.879   6.606   4.155 -1.2277  2.2651  0.0769
18485TIP3    H276947   6.753   6.603   4.239 -1.4084  1.2017 -0.2226
18486TIP3   OH276948   4.385   0.904   1.882 -0.2322  0.8252 -0.0002
18486TIP3    H176949   4.347   0.866   1.961 -1.2997  0.4314 -0.6744
18486TIP3    H276950   4.316   0.894   1.816  0.1195  2.3552 -0.6385
18487TIP3   OH276951   6.337   5.573  14.201  0.1259  0.0988 -0.4941
18487TIP3    H176952   6.309   5.483  14.186  0.8210 -0.0875 -0.7245
18487TIP3    H276953   6.390   5.595  14.124  1.4902  0.0579  0.3965
18488TIP3   OH276954   4.358   0.610   3.768  0.3130  0.3087 -0.4247
18488TIP3    H176955   4.440   0.643   3.804  0.6203 -1.1328  0.2612
18488TIP3    H276956   4.328   0.544   3.830 -1.4484  0.8724 -0.5988
18489TIP3   OH276957   5.846   6.013  14.585 -0.1106 -0.2404 -0.2462
18489TIP3    H176958   5.940   5.998  14.586 -0.0455  0.1166  0.7595
18489TIP3    H276959   5.818   5.993  14.675 -0.9809 -0.3008 -0.5222
18490TIP3   OH276960   3.704   1.793  10.960  0.0378  0.5215  0.2220
18490TIP3    H176961   3.700   1.700  10.937  1.0665  0.4287  0.3803
18490TIP3    H276962   3.732   1.837  10.879  0.6809  0.5466  0.4479
18491TIP3   OH276963   4.196   0.545   2.424 -0.2788  0.2027 -0.4100
18491TIP3    H176964   4.231   0.607   2.488 -0.1422  0.6102 -0.8762
18491TIP3    H276965   4.152   0.600   2.359 -1.0199 -0.2545 -0.2996
18492TIP3   OH276966   0.942   1.290   5.462  0.1400 -0.1094 -0.2556
18492TIP3    H176967   0.930   1.369   5.409  0.0094  0.0945  0.0767
18492TIP3    H276968   0.956   1.220   5.398  0.1071  0.1575 -0.5554
18493TIP3   OH276969   4.183   3.301  15.932 -0.1169  0.2719  0.2292
18493TIP3    H176970   4.222   3.216  15.911  1.1261  1.1812 -1.3888
18493TIP3    H276971   4.241   3.338  15.998  1.9301  1.5915 -2.1221
18494TIP3   OH276972   1.114   5.835  10.861 -0.1328  0.6992 -0.2277
18494TIP3    H176973   1.156   5.827  10.776  0.5796  2.5731 -0.0953
18494TIP3    H276974   1.120   5.747  10.900 -0.5967 -0.2182 -2.1287
18495TIP3   OH276975   2.157   0.283  16.333  0.0447 -0.4617  0.3353
18495TIP3    H176976   2.076   0.253  16.292 -0.7637 -0.3365  1.7403
18495TIP3    H276977   2.129   0.314  16.419  1.1212  2.5267 -0.2908
18496TIP3   OH276978   2.591   4.804   6.195 -0.3774  0.1630  0.4880
18496TIP3    H176979   2.686   4.805   6.209  0.1388  0.1560 -2.3271
18496TIP3    H276980   2.571   4.711   6.179 -0.3795  0.4343 -1.2728
18497TIP3   OH276981   5.289   6.450   4.616 -0.0305 -0.2755 -0.2612
18497TIP3    H176982   5.300   6.459   4.710 -2.6451  0.5506  0.0333
18497TIP3    H276983   5.197   6.468   4.600  0.6684  1.3254 -3.1969
18498TIP3   OH276984   4.104   0.050  14.129 -0.8550  0.5882 -0.4518
18498TIP3    H176985   4.091   0.081  14.039 -1.0841 -0.1420 -0.6750
18498TIP3    H276986   4.016   0.042  14.165 -0.7385  1.5174  0.0683
18499TIP3   OH276987   0.938   5.667  14.776 -0.1479 -0.2950  0.1107
18499TIP3    H176988   1.021   5.686  14.819 -0.1903 -0.4648  0.2695
18499TIP3    H276989   0.872   5.678  14.845 -0.2895  0.1432 -0.0892
18500TIP3   OH276990   0.997   5.647  13.299  0.0950 -0.3252  0.2137
18500TIP3    H176991   0.980   5.740  13.286  1.8811  0.2715  1.6771
18500TIP3    H276992   1.092   5.638  13.290  0.3057 -1.4893  2.6156
18501TIP3   OH276993   2.707   5.505  13.903 -0.7270 -0.4241 -0.2531
18501TIP3    H176994   2.758   5.431  13.871 -1.0973 -0.5229 -0.6210
18501TIP3    H276995   2.737   5.579  13.851  0.3137 -0.1130  0.7499
18502TIP3   OH276996   0.604   6.075   3.688 -0.0935  0.3787  0.0718
18502TIP3    H176997   0.639   6.093   3.601  1.4056  0.4093  0.6621
18502TIP3    H276998   0.667   6.114   3.748 -0.8243 -0.1174  1.1940
18503TIP3   OH276999   3.867   1.187  12.369 -0.2702  0.6193 -0.0915
18503TIP3    H177000   3.791   1.154  12.323 -0.3162 -0.0019  0.4125
18503TIP3    H277001   3.831   1.240  12.441 -0.1987  1.6712 -0.8021
18504TIP3   OH277002   1.317   0.219  15.609  0.0685 -0.6666 -0.2996
18504TIP3    H177003   1.383   0.231  15.677 -0.1769 -1.3639  0.0762
18504TIP3    H277004   1.365   0.184  15.534  0.2440 -0.4566 -0.2850
18505TIP3   OH277005   3.445   0.186  11.990  0.5291 -0.4398  0.0848
18505TIP3    H177006   3.534   0.174  11.957  0.5718 -0.7429  0.3133
18505TIP3    H277007   3.400   0.231  11.918  0.9022 -0.1505  0.0234
18506TIP3   OH277008   0.436   6.189   3.255  0.2010 -0.6280 -0.3651
18506TIP3    H177009   0.408   6.171   3.166  0.6153 -2.3338 -0.1878
18506TIP3    H277010   0.383   6.263   3.283  2.0324  1.8967 -2.9734
18507TIP3   OH277011   3.935   0.848   4.838  0.3349 -0.2305 -0.1739
18507TIP3    H177012   4.000   0.780   4.858  1.3875  1.0752  1.0725
18507TIP3    H277013   3.981   0.931   4.856 -1.2595  0.7784 -0.5666
18508TIP3   OH277014   2.391   4.540  16.319  0.5057 -0.2426 -0.8174
18508TIP3    H177015   2.345   4.624  16.314 -2.0865 -1.3798  1.3167
18508TIP3    H277016   2.456   4.551  16.387 -0.5468 -0.2004  0.2158
18509TIP3   OH277017   0.058   2.311  14.696 -0.3814  0.1738 -0.2591
18509TIP3    H177018   0.121   2.366  14.651  0.9683 -0.7457  0.4231
18509TIP3    H277019   0.055   2.230  14.645 -0.6788  0.0372 -0.0332
18510TIP3   OH277020   0.856   5.753   5.059  0.4099 -0.2913 -0.1877
18510TIP3    H177021   0.833   5.841   5.030 -0.8892 -0.7043 -0.4895
18510TIP3    H277022   0.951   5.755   5.069  0.3013  1.5423  1.1266
18511TIP3   OH277023   0.240   0.882  16.280  0.0916  0.2847  0.3115
18511TIP3    H177024   0.294   0.859  16.356 -2.1082  0.1857  1.9537
18511TIP3    H277025   0.167   0.821  16.283 -0.7065  1.1080 -1.1593
18512TIP3   OH277026   5.958   2.113   6.059  0.1726 -0.5626 -0.3827
18512TIP3    H177027   6.047   2.106   6.023  0.6258  0.1548  0.5244
18512TIP3    H277028   5.961   2.057   6.137  0.2687  0.5381  0.4214
18513TIP3   OH277029   1.902   0.931   1.879  0.7297 -0.5460  0.2473
18513TIP3    H177030   1.928   1.018   1.910  2.1786 -0.5884 -0.7510
18513TIP3    H277031   1.826   0.909   1.932 -1.1590  2.3102 -0.9862
18514TIP3   OH277032   2.371   0.658   3.884  0.1482 -0.0203  0.1282
18514TIP3    H177033   2.465   0.672   3.877  0.4531 -0.5677  2.3139
18514TIP3    H277034   2.361   0.596   3.956 -1.9660  1.6153  1.3666
18515TIP3   OH277035   6.648   0.226  16.093 -0.0865 -0.5922  0.0727
18515TIP3    H177036   6.721   0.267  16.047 -1.0078  0.4111 -0.5663
18515TIP3    H277037   6.622   0.153  16.037  0.2514 -0.7740  0.1547
18516TIP3   OH277038   6.079   5.385   1.190  0.3641 -0.7870 -0.1625
18516TIP3    H177039   6.141   5.431   1.133  0.3286 -1.2062 -0.5416
18516TIP3    H277040   6.115   5.395   1.278 -1.6304  3.4489  0.4239
18517TIP3   OH277041   4.041   3.987  11.174  0.3042  0.3251 -0.0552
18517TIP3    H177042   4.030   4.067  11.224  2.3700 -0.0763  1.1743
18517TIP3    H277043   4.117   4.003  11.118  0.9265 -0.8304  0.4095
18518TIP3   OH277044   5.691   0.328  16.236  0.0792  0.1552 -0.2986
18518TIP3    H177045   5.756   0.258  16.234  2.0619  1.8234  1.2745
18518TIP3    H277046   5.666   0.336  16.328 -0.3289  1.2974 -0.4904
18519TIP3   OH277047   0.581   5.779   3.087 -0.1169  0.8917 -0.4819
18519TIP3    H177048   0.564   5.872   3.069  1.2233  1.7651  2.1441
18519TIP3    H277049   0.537   5.762   3.171  1.7020 -0.0850  0.3396
18520TIP3   OH277050   5.900   2.238   1.670 -1.1863  0.4810  0.3419
18520TIP3    H177051   5.816   2.193   1.681 -0.5045 -0.6509  1.2626
18520TIP3    H277052   5.942   2.230   1.756  1.9987 -3.5114 -1.2601
18521TIP3   OH277053   6.745   6.731  11.214 -0.4827 -0.0944 -0.4117
18521TIP3    H177054   6.747   6.649  11.264 -1.1043  0.5245  0.6864
18521TIP3    H277055   6.773   6.706  11.126 -1.1548 -1.5866 -0.2462
18522TIP3   OH277056   6.022   2.873  13.248 -0.7523 -0.1405  0.1500
18522TIP3    H177057   6.064   2.798  13.206 -0.6683  0.5188 -0.9844
18522TIP3    H277058   6.007   2.845  13.338  0.0105 -1.2255 -0.0434
18523TIP3   OH277059   1.685   4.649   1.647 -0.5174  0.3968 -0.5985
18523TIP3    H177060   1.734   4.730   1.637 -0.4413  0.3114 -0.9382
18523TIP3    H277061   1.622   4.667   1.716  0.0745  0.4665 -0.0723
18524TIP3   OH277062   0.753   4.091   0.339 -0.8191 -0.1214 -0.8069
18524TIP3    H177063   0.771   4.185   0.329 -1.7467 -0.0315 -1.9192
18524TIP3    H277064   0.783   4.070   0.427  0.5023  0.9533 -0.9706
18525TIP3   OH277065   1.437   5.913  16.596  0.3808 -0.8790  0.5848
18525TIP3    H177066   1.526   5.902  16.629  0.9858  0.2184 -0.6155
18525TIP3    H277067   1.422   6.008  16.597 -0.6817 -1.0334  0.5303
18526TIP3   OH277068   0.954   4.525  15.635  0.5999  0.3841  0.0320
18526TIP3    H177069   0.933   4.465  15.706  0.7709  0.3846  0.0831
18526TIP3    H277070   0.888   4.595  15.643 -0.2580 -0.3202 -0.6770
18527TIP3   OH277071   1.439   1.483   1.733 -0.6019 -0.1353 -0.5283
18527TIP3    H177072   1.384   1.553   1.769  2.7764  1.9391  1.1884
18527TIP3    H277073   1.408   1.403   1.775 -1.8389  1.0396  0.8984
18528TIP3   OH277074   4.713   2.339   4.633  0.7073 -0.2234  0.3511
18528TIP3    H177075   4.800   2.357   4.600  0.7037 -1.7878 -0.6518
18528TIP3    H277076   4.666   2.422   4.626  1.3761  0.0354 -1.5124
18529TIP3   OH277077   2.792   5.916   3.077 -0.7352 -0.2665 -0.8623
18529TIP3    H177078   2.847   5.885   3.005 -2.9617 -1.2344 -2.2410
18529TIP3    H277079   2.799   5.847   3.143  0.2287 -0.0370 -0.7096
18530TIP3   OH277080   1.876   6.109   0.844 -0.6235 -0.4401  0.0533
18530TIP3    H177081   1.837   6.141   0.763 -0.3076  0.0919  0.1065
18530TIP3    H277082   1.822   6.148   0.913  0.6351  1.2279  0.1633
18531TIP3   OH277083   0.523   5.372  15.000 -0.0833  0.3060 -0.1086
18531TIP3    H177084   0.463   5.392  15.073  1.1181 -0.3996  1.1287
18531TIP3    H277085   0.514   5.278  14.987  0.1722  0.3287 -0.4478
18532TIP3   OH277086   2.735   2.549  14.405  0.0396  0.3350  0.3058
18532TIP3    H177087   2.792   2.614  14.362 -0.3586  2.0386  2.2038
18532TIP3    H277088   2.782   2.526  14.485 -1.3799  0.8803  1.3241
18533TIP3   OH277089   1.793   5.368   2.112  0.6026 -0.1858  0.0928
18533TIP3    H177090   1.844   5.331   2.040  0.8451 -1.3763  0.8465
18533TIP3    H277091   1.822   5.320   2.189  1.0986  1.7660  1.1944
18534TIP3   OH277092   6.791   1.085  16.353 -0.5053 -0.2024 -0.6628
18534TIP3    H177093   6.797   1.015  16.417 -1.1943 -0.8695 -1.3177
18534TIP3    H277094   6.734   1.051  16.284  0.6685  0.2810 -1.9182
18535TIP3   OH277095   2.926   3.900   4.169  0.5248  0.2947 -0.1269
18535TIP3    H177096   2.959   3.987   4.188  1.1796  0.3939 -1.5915
18535TIP3    H277097   2.852   3.914   4.109  0.3808 -0.1362 -0.0590
18536TIP3   OH277098   1.111   4.682   1.295  0.3552  0.1276 -0.6026
18536TIP3    H177099   1.027   4.677   1.339  0.8744  1.2537  0.5884
18536TIP3    H277100   1.091   4.721   1.210 -0.3059  0.6051 -0.2348
18537TIP3   OH277101   0.028   6.167   5.656 -0.5037  0.3145 -0.1787
18537TIP3    H177102  -0.000   6.227   5.725  1.1389  0.3621  0.5108
18537TIP3    H277103  -0.039   6.175   5.588 -2.8376 -0.6088  1.8506
18538TIP3   OH277104   2.546   6.261  11.052  0.2450 -0.0019 -0.3751
18538TIP3    H177105   2.613   6.246  10.985  0.3662  1.7335 -0.7126
18538TIP3    H277106   2.594   6.289  11.129 -0.0082 -0.0419 -0.2012
18539TIP3   OH277107   4.628   0.107   4.149 -0.3923 -1.0354 -0.1598
18539TIP3    H177108   4.724   0.110   4.154 -0.3113 -0.0793 -1.5818
18539TIP3    H277109   4.608   0.137   4.060 -1.9893 -1.9328 -0.1413
18540TIP3   OH277110   1.615   0.668   3.508 -0.1476 -0.2483 -0.2836
18540TIP3    H177111   1.612   0.738   3.442  1.3950 -1.2675 -1.5145
18540TIP3    H277112   1.676   0.700   3.574 -0.2468  0.0006 -0.3122
18541TIP3   OH277113   1.355   1.990   5.244  0.3498  0.8079 -0.0014
18541TIP3    H177114   1.349   1.965   5.152  0.5104 -0.1872  0.2362
18541TIP3    H277115   1.443   1.961   5.270 -0.4560 -0.9208  0.9935
18542TIP3   OH277116   2.472   2.742   0.991  0.4046 -0.2957  0.5421
18542TIP3    H177117   2.416   2.726   0.915  1.2861  0.8781 -0.3873
18542TIP3    H277118   2.523   2.662   1.001  2.2601  0.4874 -1.8525
18543TIP3   OH277119   0.050   4.893  13.857  0.0384 -0.7003 -0.2723
18543TIP3    H177120   0.116   4.932  13.800 -1.2837  2.1092 -0.0480
18543TIP3    H277121   0.088   4.898  13.944  0.4863 -1.4019 -0.4154
18544TIP3   OH277122   3.133   4.793   2.487  0.1540  0.4150 -0.2708
18544TIP3    H177123   3.123   4.809   2.581  0.0604  3.5848 -0.6948
18544TIP3    H277124   3.063   4.731   2.466  0.1875 -0.3779  1.7256
18545TIP3   OH277125   5.555   5.217  14.761  0.0054 -0.0752  1.1768
18545TIP3    H177126   5.597   5.303  14.754 -0.3137 -0.0413 -2.8281
18545TIP3    H277127   5.462   5.236  14.771  0.1124 -0.0147  2.1171
18546TIP3   OH277128   1.354   5.686   0.289  0.6177  0.0172 -0.4977
18546TIP3    H177129   1.291   5.647   0.349  2.3989 -1.9976  0.1873
18546TIP3    H277130   1.357   5.778   0.313  1.4287 -0.7459  2.7425
18547TIP3   OH277131   3.123   5.170  13.772 -0.2228 -0.2327  0.3473
18547TIP3    H177132   3.126   5.118  13.691  0.1850 -0.8018  0.7191
18547TIP3    H277133   3.114   5.261  13.742  2.6580 -0.1193 -0.4627
18548TIP3   OH277134   0.559   0.064   0.858  0.1219 -0.1308  0.2769
18548TIP3    H177135   0.495   0.040   0.791  1.0986  0.3770 -0.8507
18548TIP3    H277136   0.581  -0.019   0.901 -0.4282 -0.4699 -0.0851
18549TIP3   OH277137   3.806   0.143   5.270  0.8475 -0.0316 -1.1844
18549TIP3    H177138   3.878   0.201   5.292  2.1932 -2.1571  0.3741
18549TIP3    H277139   3.821   0.064   5.322 -2.8664 -0.4278 -0.4122
18550TIP3   OH277140   4.451   1.516   0.508 -0.3306  0.3257 -0.3688
18550TIP3    H177141   4.545   1.524   0.523 -0.3446 -0.3559  0.1621
18550TIP3    H277142   4.431   1.582   0.441  0.5634  0.3102 -0.6647
18551TIP3   OH277143   2.957   1.139   1.624  0.0824 -0.2925  0.2165
18551TIP3    H177144   2.981   1.054   1.588 -1.6301  0.3448 -2.7699
18551TIP3    H277145   2.873   1.124   1.668 -0.0496 -0.2199 -0.0095
18552TIP3   OH277146   3.753   4.444   5.398 -0.1009  0.4913  0.1440
18552TIP3    H177147   3.836   4.407   5.429 -0.9600  0.6124  2.8611
18552TIP3    H277148   3.686   4.390   5.441 -1.4814  0.3163 -2.0948
18553TIP3   OH277149   4.469   6.777   3.860  0.1518  0.1208 -0.5259
18553TIP3    H177150   4.429   6.719   3.925  0.5670 -0.3138 -0.6489
18553TIP3    H277151   4.510   6.717   3.798  1.2859  0.5612 -0.2136
18554TIP3   OH277152   4.076   0.515  12.071 -0.0988 -0.4435  0.0354
18554TIP3    H177153   4.145   0.523  12.004  3.1459 -0.7743  3.0331
18554TIP3    H277154   4.053   0.606  12.092  3.2814  0.0526  2.4105
18555TIP3   OH277155   6.222   0.679  14.548 -0.2434  0.1119 -0.0568
18555TIP3    H177156   6.188   0.697  14.460  0.1145 -1.0029 -0.4332
18555TIP3    H277157   6.193   0.754  14.600  1.9496  2.3061 -1.7521
18556TIP3   OH277158   1.562   3.723   4.417 -0.1291  0.4210 -0.7153
18556TIP3    H177159   1.658   3.719   4.424 -0.0630  1.5047 -0.7991
18556TIP3    H277160   1.532   3.638   4.447  0.9637 -0.5896 -2.3408
18557TIP3   OH277161   4.333   6.193  11.748 -0.4131 -0.2230 -0.0192
18557TIP3    H177162   4.341   6.167  11.657 -1.3670 -0.2491 -0.1065
18557TIP3    H277163   4.379   6.277  11.753 -2.4236  1.0261 -1.1165
18558TIP3   OH277164   2.019   3.261   4.571 -0.2368 -0.7760 -0.6070
18558TIP3    H177165   1.962   3.187   4.591  0.5770 -0.6972  2.4688
18558TIP3    H277166   1.994   3.328   4.634  1.0632  0.4908 -1.3765
18559TIP3   OH277167   0.940   2.143  16.726 -0.4592 -0.5260  0.3485
18559TIP3    H177168   0.969   2.122  16.814  1.4492 -4.0489 -0.8988
18559TIP3    H277169   0.853   2.104  16.719  0.0596 -1.7264  0.2698
18560TIP3   OH277170   2.016   6.815   1.010 -0.0873 -0.1996  0.6128
18560TIP3    H177171   2.049   6.739   0.962  0.9175 -0.2051  1.2897
18560TIP3    H277172   1.929   6.790   1.038  0.2550 -1.1242  0.8708
18561TIP3   OH277173   4.787   1.642  15.751 -0.0188 -0.2083 -0.1985
18561TIP3    H177174   4.708   1.591  15.768 -1.0970  1.3555 -0.3571
18561TIP3    H277175   4.793   1.702  15.825 -2.0477  3.3377 -2.6084
18562TIP3   OH277176   3.764   1.076  10.898 -0.2552  0.0136 -0.3866
18562TIP3    H177177   3.859   1.074  10.907 -0.2311  1.2099 -0.2502
18562TIP3    H277178   3.740   0.985  10.880  0.8227 -0.4616  0.4501
18563TIP3   OH277179   6.282   5.307  12.568  0.1127 -0.5400 -0.1245
18563TIP3    H177180   6.309   5.254  12.493 -1.4240  2.8915 -3.4352
18563TIP3    H277181   6.194   5.276  12.589  0.2186 -0.9659 -0.2892
18564TIP3   OH277182   0.533   3.807  13.899 -0.4712 -0.4190  0.2671
18564TIP3    H177183   0.627   3.792  13.889 -0.7567 -1.3072 -1.4721
18564TIP3    H277184   0.492   3.733  13.854 -2.0099 -0.0114  0.9243
18565TIP3   OH277185   6.501   5.492   5.934  0.5002 -0.1265  0.2699
18565TIP3    H177186   6.527   5.583   5.943  0.6514 -0.2421  1.0575
18565TIP3    H277187   6.545   5.447   6.007 -0.5344 -0.6166  0.6099
18566TIP3   OH277188   5.509   6.466  12.062  0.2977 -0.4738 -0.1961
18566TIP3    H177189   5.474   6.518  12.134  1.5140  0.4306 -0.2241
18566TIP3    H277190   5.435   6.455  12.002 -0.1949  0.5650  0.1921
18567TIP3   OH277191   5.485   3.725   3.876 -0.5951  0.1825  0.0670
18567TIP3    H177192   5.520   3.730   3.965 -1.5447 -0.6796  0.5134
18567TIP3    H277193   5.562   3.721   3.820  0.0982 -2.6294  1.0563
18568TIP3   OH277194   1.273   1.471  12.041 -0.0898 -0.0742 -0.3659
18568TIP3    H177195   1.320   1.408  11.987 -2.1402  0.3672 -2.8699
18568TIP3    H277196   1.258   1.426  12.123  1.2327 -1.6403 -0.9185
18569TIP3   OH277197   3.838   4.993   4.498 -0.2108 -0.4651  0.4901
18569TIP3    H177198   3.784   4.949   4.433 -0.1000  0.1075  0.0049
18569TIP3    H277199   3.777   5.046   4.549 -0.5832 -2.2660  2.0531
18570TIP3   OH277200   2.205   5.533   1.545  0.0350 -0.5034  0.6644
18570TIP3    H177201   2.184   5.479   1.621 -1.5369 -0.9820 -0.0588
18570TIP3    H277202   2.141   5.605   1.548  0.1816 -0.3327 -0.0029
18571TIP3   OH277203   6.275   0.040   3.266  0.6998 -0.1967 -0.9173
18571TIP3    H177204   6.224   0.102   3.319  0.6001 -0.1265 -1.0933
18571TIP3    H277205   6.264   0.071   3.176  0.7122 -0.4262 -0.9977
18572TIP3   OH277206   5.548   5.013  14.967 -0.3701  0.1366 -0.2637
18572TIP3    H177207   5.541   5.081  14.900 -0.8198 -1.1218 -1.5358
18572TIP3    H277208   5.642   4.995  14.973 -0.4218 -0.8043 -1.7084
18573TIP3   OH277209   0.737   0.597   2.975  0.1879  0.0414  0.1873
18573TIP3    H177210   0.769   0.555   3.054  0.4591  0.5030  0.3227
18573TIP3    H277211   0.791   0.675   2.964  0.5852 -0.3545 -0.8101
18574TIP3   OH277212   3.235   4.539   5.579 -0.0597  0.0830 -0.0017
18574TIP3    H177213   3.254   4.552   5.672  1.0107 -0.0914 -0.1839
18574TIP3    H277214   3.141   4.517   5.576  0.1511 -1.0694  1.1439
18575TIP3   OH277215   5.061   3.328   4.968  0.3279  0.0895 -0.2329
18575TIP3    H177216   4.987   3.293   4.918 -2.0691  0.2661  2.8004
18575TIP3    H277217   5.134   3.271   4.947 -0.4928  0.1302 -3.7224
18576TIP3   OH277218   5.641   5.773  16.780 -0.2609  1.0084  0.1681
18576TIP3    H177219   5.685   5.827  16.846  1.7300 -1.1029  0.7038
18576TIP3    H277220   5.713   5.738  16.726 -1.5689 -0.0441 -0.9706
18577TIP3   OH277221   6.218   4.510  14.667 -0.0513  1.1240  0.0366
18577TIP3    H177222   6.313   4.498  14.660 -0.2679 -0.7536 -0.1613
18577TIP3    H277223   6.205   4.550  14.753  0.9330  1.7557 -0.0928
18578TIP3   OH277224   3.907   2.485  16.249 -0.2676  0.5547  0.0532
18578TIP3    H177225   3.879   2.575  16.233  0.7126  0.9124  0.2602
18578TIP3    H277226   3.947   2.457  16.167  1.5185  1.1449  0.6541
18579TIP3   OH277227   1.358   5.506  16.529 -0.4287 -0.3715  0.2145
18579TIP3    H177228   1.302   5.440  16.491 -1.1421  0.5760 -0.4162
18579TIP3    H277229   1.299   5.561  16.581  0.3760 -1.1017  2.0064
18580TIP3   OH277230   2.221   3.073  16.247  0.2921  0.1290 -0.5886
18580TIP3    H177231   2.221   3.016  16.324  1.0924  2.1878  1.0361
18580TIP3    H277232   2.190   3.018  16.176 -0.0858 -1.9787  1.1229
18581TIP3   OH277233   1.205   5.807  13.545 -0.3483 -0.4716 -0.4229
18581TIP3    H177234   1.297   5.821  13.524  0.1210 -1.2268  0.9788
18581TIP3    H277235   1.165   5.894  13.536  0.6860  0.0424 -0.2247
18582TIP3   OH277236   3.933   4.123  14.306 -0.2438 -0.3735  0.0243
18582TIP3    H177237   3.961   4.148  14.218 -1.4468 -1.8168 -0.8343
18582TIP3    H277238   3.840   4.146  14.309 -0.0540  0.3442  1.2149
18583TIP3   OH277239   6.041   3.732   1.095 -0.3267 -0.1266  0.0789
18583TIP3    H177240   6.002   3.650   1.064  0.1182 -0.1138 -0.5444
18583TIP3    H277241   6.131   3.729   1.063  0.2108 -0.1751  1.5464
18584TIP3   OH277242   1.796   1.946  17.080 -0.0610 -0.1689 -0.8351
18584TIP3    H177243   1.760   1.960  16.992 -0.0299 -0.1027 -0.8375
18584TIP3    H277244   1.729   1.978  17.139 -0.0208 -0.0796 -0.8386
18585TIP3   OH277245   2.955   4.546   0.574 -0.3647 -0.2381  0.2949
18585TIP3    H177246   2.993   4.461   0.554 -2.4299 -0.8964 -1.1383
18585TIP3    H277247   2.874   4.550   0.522 -1.6420  1.5556  2.2250
18586TIP3   OH277248   0.538   2.594   1.068 -0.1970 -0.4666  0.2723
18586TIP3    H177249   0.467   2.638   1.022 -0.9114 -0.0844  1.6825
18586TIP3    H277250   0.543   2.638   1.153 -1.2221 -3.2729  1.9532
18587TIP3   OH277251   1.796   3.004  16.504 -0.1071 -0.2442 -0.3566
18587TIP3    H177252   1.884   3.031  16.528 -0.2245  0.3339 -0.5614
18587TIP3    H277253   1.791   3.018  16.410 -0.5679  0.1623 -0.2755
18588TIP3   OH277254   0.876   2.712  15.159  0.0306  0.0780  0.3274
18588TIP3    H177255   0.896   2.750  15.245  0.8627 -1.1457  0.7083
18588TIP3    H277256   0.879   2.786  15.099 -0.8170  1.0062  1.3774
18589TIP3   OH277257   3.266   5.198  11.960 -0.2040  0.2533  0.3928
18589TIP3    H177258   3.274   5.195  11.864  0.8027 -0.7200  0.4760
18589TIP3    H277259   3.180   5.160  11.978 -1.0016  1.7389 -0.1729
18590TIP3   OH277260   5.160   3.313  11.562 -0.4657 -0.3258 -0.2685
18590TIP3    H177261   5.087   3.354  11.516 -1.0370 -1.4483 -0.3982
18590TIP3    H277262   5.219   3.385  11.583 -1.5250  0.5799 -0.3198
18591TIP3   OH277263   6.457   4.638  15.895  0.1689 -0.3670  0.0684
18591TIP3    H177264   6.473   4.732  15.891 -0.9112 -0.0066  2.4843
18591TIP3    H277265   6.539   4.598  15.863  0.8953  1.3532 -0.3179
18592TIP3   OH277266   3.576   3.857   0.954 -0.0925  0.1207  0.0220
18592TIP3    H177267   3.522   3.786   0.920 -0.6038  0.9946 -1.0469
18592TIP3    H277268   3.538   3.878   1.039  1.1935 -2.0860  1.2594
18593TIP3   OH277269   6.313   6.566   5.309 -0.7155  0.1862  0.3145
18593TIP3    H177270   6.223   6.537   5.320 -0.5597 -0.1896  0.5837
18593TIP3    H277271   6.362   6.520   5.376 -0.0555 -0.8157 -0.8183
18594TIP3   OH277272   2.856   2.238  12.116 -0.5272  0.2360  0.5790
18594TIP3    H177273   2.941   2.217  12.154 -0.5007  0.4001  0.6138
18594TIP3    H277274   2.800   2.258  12.192 -0.4810  0.5406  0.5367
18595TIP3   OH277275   3.701   1.565   5.964 -0.0486  0.2881 -0.9840
18595TIP3    H177276   3.638   1.628   6.000 -0.4223 -0.3537 -0.4854
18595TIP3    H277277   3.780   1.577   6.016 -0.5541 -0.5683  0.0267
18596TIP3   OH277278   6.365   4.208   5.579  0.4060  0.0044  0.1384
18596TIP3    H177279   6.303   4.135   5.588 -0.5863  0.9652  1.3299
18596TIP3    H277280   6.432   4.174   5.520  0.2949 -2.0907  1.1157
18597TIP3   OH277281   0.445   3.881   1.758  0.4357 -0.1646 -0.6737
18597TIP3    H177282   0.538   3.861   1.772  0.8151  1.3674 -0.8624
18597TIP3    H277283   0.423   3.943   1.827 -0.8201 -1.4928  0.1683
18598TIP3   OH277284   4.784   4.791   6.049 -0.0152 -0.4547 -0.3232
18598TIP3    H177285   4.787   4.860   6.116 -0.0028 -0.3912 -0.3882
18598TIP3    H277286   4.720   4.728   6.082 -0.3047 -0.2271 -0.4407
18599TIP3   OH277287   0.177   0.006  13.180 -0.1968 -0.6914 -0.0423
18599TIP3    H177288   0.149  -0.081  13.153  0.0578 -0.3256 -1.5579
18599TIP3    H277289   0.117   0.030  13.250 -2.8461 -0.4933 -2.2250
18600TIP3   OH277290   2.947   2.440  17.100 -0.3951 -0.2734 -0.6785
18600TIP3    H177291   2.931   2.534  17.092 -0.0613 -0.2012 -0.5509
18600TIP3    H277292   3.002   2.418  17.025  3.0401  0.4771  1.3571
18601TIP3   OH277293   0.780   4.813  16.831  0.2443 -0.1569 -0.5076
18601TIP3    H177294   0.694   4.779  16.855  0.3183  0.2018  0.2979
18601TIP3    H277295   0.765   4.907  16.819  0.6222 -0.0075  0.1463
18602TIP3   OH277296   3.857   6.687  11.055 -0.0337 -0.2437 -0.1656
18602TIP3    H177297   3.841   6.646  10.970  1.3331 -0.0542 -0.5354
18602TIP3    H277298   3.918   6.627  11.100  0.7489  0.5869 -0.0901
18603TIP3   OH277299   3.160   0.731  13.954  0.4701 -0.1700 -0.5218
18603TIP3    H177300   3.177   0.766  14.041 -0.1025 -1.0093 -0.0553
18603TIP3    H277301   3.087   0.783  13.921  0.3944 -0.1461 -0.3169
18604TIP3   OH277302   2.488   4.522  12.126 -0.2528  0.4117 -0.2520
18604TIP3    H177303   2.435   4.495  12.052  0.5650 -0.6264 -0.4943
18604TIP3    H277304   2.462   4.462  12.197  2.2613 -1.8250 -1.0615
18605TIP3   OH277305   0.723   3.453  13.658 -0.0979 -0.5153 -0.4330
18605TIP3    H177306   0.738   3.526  13.718 -2.5803 -1.2382  1.2313
18605TIP3    H277307   0.808   3.411  13.649  0.7589  0.8162  0.9808
18606TIP3   OH277308   3.397   4.982  13.919  0.2497 -0.4986  0.1704
18606TIP3    H177309   3.424   4.964  13.829 -0.1386  0.8486 -0.2444
18606TIP3    H277310   3.357   4.901  13.949  3.6103 -2.2075  0.4277
18607TIP3   OH277311   1.911   0.776   5.652  0.3508  0.4506 -0.2130
18607TIP3    H177312   1.897   0.794   5.559 -0.4270  0.2587 -0.1430
18607TIP3    H277313   1.959   0.693   5.654 -1.7604 -0.8567 -0.4293
18608TIP3   OH277314   1.504   4.114  11.604 -0.1225  0.0161 -0.5214
18608TIP3    H177315   1.453   4.034  11.587  0.4115 -0.4741  0.1342
18608TIP3    H277316   1.552   4.096  11.685  2.8027 -0.4408 -2.1908
18609TIP3   OH277317   5.793   3.824  14.941 -0.4028  0.3444 -0.5022
18609TIP3    H177318   5.745   3.859  14.866 -2.4891  0.0515  0.6231
18609TIP3    H277319   5.869   3.780  14.902  0.7673  3.5206 -2.1380
18610TIP3   OH277320   5.203   1.573  11.425 -0.3394  0.4647 -0.3104
18610TIP3    H177321   5.251   1.647  11.462 -0.3152  0.2580  0.0808
18610TIP3    H277322   5.116   1.580  11.464 -0.4021  0.4082 -0.4397
18611TIP3   OH277323   1.726   5.527   2.309 -0.4763 -0.0819 -0.2341
18611TIP3    H177324   1.751   5.515   2.217 -0.0596  1.0409 -0.2850
18611TIP3    H277325   1.792   5.588   2.344  0.0512 -1.3643  1.1270
18612TIP3   OH277326   4.135   2.951   1.317 -0.1886 -0.3234 -0.2360
18612TIP3    H177327   4.143   3.038   1.356  0.2263 -0.9790  1.1934
18612TIP3    H277328   4.104   2.895   1.388  0.7228 -1.5906 -0.7987
18613TIP3   OH277329   5.671   2.238   5.747  0.4628 -0.8624  0.1276
18613TIP3    H177330   5.642   2.326   5.724 -0.1366 -1.6044 -2.3477
18613TIP3    H277331   5.689   2.241   5.841  0.3530  1.8341  0.1186
18614TIP3   OH277332   6.439   6.438  11.676 -0.2203  0.0905  0.2492
18614TIP3    H177333   6.481   6.523  11.689  0.9112 -0.4767  0.4479
18614TIP3    H277334   6.384   6.426  11.754  1.2153 -0.2517  1.2449
18615TIP3   OH277335   4.639   1.282   3.555  0.4522  0.0901 -0.1221
18615TIP3    H177336   4.710   1.327   3.510  0.7558 -0.3257 -0.0617
18615TIP3    H277337   4.561   1.333   3.534  0.1946 -1.2723 -2.8807
18616TIP3   OH277338   3.212   0.603   6.283  0.8092 -0.3224 -0.3117
18616TIP3    H177339   3.198   0.666   6.213 -0.0166 -0.9638 -0.7480
18616TIP3    H277340   3.307   0.593   6.288  0.8930 -2.5818 -3.5098
18617TIP3   OH277341   5.550   1.466  12.384  0.3066  0.3838 -0.1100
18617TIP3    H177342   5.507   1.400  12.439  0.9386 -0.2181 -0.3305
18617TIP3    H277343   5.637   1.431  12.368  0.0058  0.3517 -1.8354
18618TIP3   OH277344   1.865   5.735   0.539  0.3234 -0.1787  0.6095
18618TIP3    H177345   1.884   5.646   0.510  2.7787 -0.2374  2.1193
18618TIP3    H277346   1.848   5.726   0.633  3.7235  1.1800  1.5053
18619TIP3   OH277347   2.194   4.423  11.334  0.0695 -0.5191 -0.2066
18619TIP3    H177348   2.110   4.467  11.348 -0.2194 -1.1460  0.0434
18619TIP3    H277349   2.244   4.440  11.413 -0.1544 -0.8974  0.0147
18620TIP3   OH277350   1.872   6.528  12.672 -0.2861 -0.1976  0.2419
18620TIP3    H177351   1.958   6.546  12.711 -0.1222 -0.6341  0.0764
18620TIP3    H277352   1.890   6.483  12.590 -0.6376  0.6751 -0.3341
18621TIP3   OH277353   1.812   4.080  16.106  0.9318 -0.0832  0.6560
18621TIP3    H177354   1.798   4.004  16.162 -1.0251  1.7299  2.8689
18621TIP3    H277355   1.728   4.094  16.062  1.5715  0.2183 -0.5084
18622TIP3   OH277356   2.058   5.386  13.087  0.0493  0.1809 -0.3494
18622TIP3    H177357   2.021   5.324  13.024  0.3055 -0.8904  0.5262
18622TIP3    H277358   2.033   5.351  13.172  1.2712  0.6116  0.2014
18623TIP3   OH277359   1.739   2.667   0.795 -0.2941 -0.0119 -0.4883
18623TIP3    H177360   1.795   2.719   0.853  0.7648 -0.4527 -1.0782
18623TIP3    H277361   1.759   2.576   0.818 -1.9203 -0.1920  0.3434
18624TIP3   OH277362   3.592   2.770   5.289  0.6408  0.7462 -0.6929
18624TIP3    H177363   3.572   2.776   5.196  0.5651 -2.0126 -0.9359
18624TIP3    H277364   3.529   2.829   5.331 -1.9497 -0.7974 -2.1377
18625TIP3   OH277365   2.618   0.466  16.858  0.0026 -0.2207  0.4441
18625TIP3    H177366   2.532   0.502  16.837  0.5990  0.0491 -1.8368
18625TIP3    H277367   2.615   0.377  16.823  0.2804 -0.6052  1.3867
18626TIP3   OH277368   4.398   2.854  14.688  0.1162 -0.1224 -0.3824
18626TIP3    H177369   4.444   2.914  14.631 -0.6267  0.2537 -0.6025
18626TIP3    H277370   4.314   2.839  14.645 -0.0407 -0.6569  0.0875
18627TIP3   OH277371   0.482   3.201   4.792  0.2764 -0.2767 -0.4718
18627TIP3    H177372   0.480   3.289   4.830  0.6264 -0.4640 -0.0151
18627TIP3    H277373   0.514   3.145   4.862 -2.5579 -1.2428  0.1940
18628TIP3   OH277374   6.602   4.904  15.199 -0.2477 -0.3438 -0.3202
18628TIP3    H177375   6.627   4.987  15.160  0.1271 -0.8600 -1.2038
18628TIP3    H277376   6.549   4.928  15.275 -1.0836  0.6706 -1.1981
18629TIP3   OH277377   0.497   5.090   3.132 -0.0081 -0.0369 -0.2132
18629TIP3    H177378   0.587   5.062   3.150  0.2521  1.1411  0.4438
18629TIP3    H277379   0.500   5.124   3.042 -0.0114 -0.7952 -0.5083
18630TIP3   OH277380   0.139   0.972   3.733 -0.2320 -0.6499  0.6177
18630TIP3    H177381   0.070   0.949   3.671  0.7133 -1.0446 -0.3229
18630TIP3    H277382   0.164   0.888   3.773  2.6709 -1.3324 -2.2373
18631TIP3   OH277383   5.348   6.446  15.050 -0.4278  0.0513  0.0610
18631TIP3    H177384   5.336   6.518  15.112  4.3404 -0.3654  1.8215
18631TIP3    H277385   5.367   6.488  14.967  0.2708  0.8297  0.6024
18632TIP3   OH277386   6.460   0.952   6.353 -0.1012 -0.4346 -0.0651
18632TIP3    H177387   6.372   0.915   6.360 -0.4671  0.3278 -0.5263
18632TIP3    H277388   6.446   1.038   6.314  0.6742  0.4186  1.4562
18633TIP3   OH277389   6.827   0.211   0.466  0.0597  0.1004  0.9561
18633TIP3    H177390   6.917   0.178   0.461  0.6002  0.6139  4.5473
18633TIP3    H277391   6.795   0.205   0.377  3.1105 -1.6208 -0.1984
18634TIP3   OH277392   5.881   2.296  13.206  0.1494 -0.2463  0.0352
18634TIP3    H177393   5.938   2.350  13.151  0.5677  1.7925  2.3415
18634TIP3    H277394   5.931   2.283  13.287 -1.2092 -1.5461  0.7197
18635TIP3   OH277395   2.973   5.852   2.033 -0.1827  0.2338  0.3419
18635TIP3    H177396   2.944   5.804   1.955  2.1794 -1.9501  0.6681
18635TIP3    H277397   2.893   5.892   2.067 -1.8526 -1.3218 -1.4634
18636TIP3   OH277398   3.132   1.298   1.364  0.1621  0.6072 -0.0557
18636TIP3    H177399   3.217   1.270   1.400  0.1207 -0.5476 -0.8163
18636TIP3    H277400   3.149   1.384   1.325  1.2927 -0.1316 -1.2637
18637TIP3   OH277401   6.759   1.135   1.787  0.3728  0.3948  0.2963
18637TIP3    H177402   6.793   1.163   1.702 -0.0718 -2.3225 -0.8523
18637TIP3    H277403   6.673   1.176   1.793  0.7256  1.2369 -0.1603
18638TIP3   OH277404   0.084   3.372   5.369  0.4673 -0.0444 -0.0092
18638TIP3    H177405   0.076   3.418   5.452  1.2610 -0.6238  0.4061
18638TIP3    H277406   0.154   3.307   5.384 -1.9102 -2.7886  0.0960
18639TIP3   OH277407   1.893   1.973   3.719 -0.6379  0.2203 -0.2174
18639TIP3    H177408   1.869   1.881   3.710  0.3810 -0.0546 -0.3211
18639TIP3    H277409   1.842   2.005   3.794  0.2629 -0.9025  0.9267
18640TIP3   OH277410   2.665   3.989  11.054 -0.8461 -0.0683  0.1409
18640TIP3    H177411   2.648   4.061  10.993 -0.5996 -0.4345 -0.3735
18640TIP3    H277412   2.584   3.979  11.104 -1.5964 -0.7303 -1.1469
18641TIP3   OH277413   5.923   5.108   4.902 -0.5483 -0.1180  0.2161
18641TIP3    H177414   5.916   5.203   4.907 -1.3973 -0.2002  0.7738
18641TIP3    H277415   5.840   5.076   4.937 -0.1967 -1.0685  0.2052
18642TIP3   OH277416   0.694   2.453   0.928 -0.0115 -0.0235  0.1804
18642TIP3    H177417   0.726   2.540   0.905 -0.0636 -0.4745 -1.7615
18642TIP3    H277418   0.640   2.467   1.006 -0.1217  1.6936 -0.1743
18643TIP3   OH277419   3.039   3.580  13.022  0.7265  0.6202 -0.2182
18643TIP3    H177420   3.131   3.596  13.002  0.5961  0.6549 -0.8111
18643TIP3    H277421   2.991   3.627  12.955  0.2836  0.1302 -0.2545
18644TIP3   OH277422   2.868   4.855   2.196 -0.5634  0.3379 -0.2656
18644TIP3    H177423   2.899   4.780   2.144  1.5646 -0.1485  1.5892
18644TIP3    H277424   2.798   4.819   2.250  1.4296 -0.7863  1.6952
18645TIP3   OH277425   2.430   5.630  13.235 -0.1633 -0.3092 -0.0765
18645TIP3    H177426   2.355   5.571  13.241 -1.9652  1.8801 -0.1079
18645TIP3    H277427   2.401   5.701  13.178  1.5853  1.0989  0.6812
18646TIP3   OH277428   2.843   2.848  11.941 -0.5418 -0.0654  0.2383
18646TIP3    H177429   2.934   2.826  11.962 -1.3539 -3.1280  1.0027
18646TIP3    H277430   2.806   2.878  12.024 -0.4123  0.5431  0.0790
18647TIP3   OH277431   4.035   0.304  15.580  0.3864 -0.6191 -0.1840
18647TIP3    H177432   3.945   0.271  15.588 -0.2530  1.1277  0.2012
18647TIP3    H277433   4.077   0.243  15.518 -0.9392 -1.6713 -0.1023
18648TIP3   OH277434   2.467   4.402   4.892 -0.6300 -0.6991 -0.3895
18648TIP3    H177435   2.460   4.307   4.900 -0.2731 -0.9264 -2.3140
18648TIP3    H277436   2.518   4.429   4.968  0.7869 -2.2857 -0.7291
18649TIP3   OH277437   0.711   5.862  13.569  0.2937  0.0406 -0.1213
18649TIP3    H177438   0.661   5.924  13.622 -1.0586 -0.6001 -0.5926
18649TIP3    H277439   0.701   5.778  13.614 -0.7525 -0.4829 -1.2611
18650TIP3   OH277440   4.200   1.093  15.059  0.0307  0.0436 -0.1165
18650TIP3    H177441   4.130   1.138  15.106 -0.5832  1.7979 -2.5087
18650TIP3    H277442   4.158   1.015  15.024 -0.2083  0.1045  0.0268
18651TIP3   OH277443   2.765   5.154  14.436 -0.3279  0.4465 -0.1038
18651TIP3    H177444   2.850   5.193  14.417 -0.1106 -0.9611 -2.4188
18651TIP3    H277445   2.726   5.138  14.350 -2.4312 -0.0437  0.8782
18652TIP3   OH277446   5.325   2.051  11.447 -0.1710  0.5355 -1.0768
18652TIP3    H177447   5.276   2.121  11.491 -0.1570 -0.7024  1.0184
18652TIP3    H277448   5.415   2.061  11.480 -0.1839 -0.4826 -0.7070
18653TIP3   OH277449   0.807   5.041  13.162  0.0894 -0.1136 -0.0896
18653TIP3    H177450   0.726   5.088  13.143 -0.3891 -1.5923 -2.0744
18653TIP3    H277451   0.865   5.063  13.089  0.7595 -0.6355  0.2760
18654TIP3   OH277452   4.187   2.245   1.143  0.5110  0.2373 -0.5100
18654TIP3    H177453   4.261   2.209   1.094 -0.1617  1.6334 -2.7060
18654TIP3    H277454   4.152   2.314   1.086 -2.5592 -0.4400  0.3577
18655TIP3   OH277455   0.979   6.798  16.540 -0.0920 -0.0189 -0.1122
18655TIP3    H177456   0.890   6.767  16.525 -1.5776  3.1426  1.0383
18655TIP3    H277457   0.974   6.893  16.524  3.0868  0.2746 -0.0063
18656TIP3   OH277458   4.714   5.413   0.251 -0.0244  0.3634  0.3621
18656TIP3    H177459   4.739   5.461   0.171  0.9863  1.3804  1.2567
18656TIP3    H277460   4.715   5.321   0.225 -1.6682  0.7485 -1.3157
18657TIP3   OH277461   1.043   2.462   5.562  0.0768  0.2413  0.5039
18657TIP3    H177462   0.962   2.423   5.595  0.5309 -1.2118 -0.0524
18657TIP3    H277463   1.099   2.470   5.640 -0.2745  0.4417  0.7382
18658TIP3   OH277464   3.026   5.416   5.310  0.0630  0.4235  0.0765
18658TIP3    H177465   3.110   5.368   5.308  0.0975  0.4535  0.5254
18658TIP3    H277466   2.968   5.365   5.254 -0.1426 -0.6327  1.2065
18659TIP3   OH277467   0.408   5.056  11.696 -0.1409  0.2269  0.1815
18659TIP3    H177468   0.444   4.975  11.731 -0.9538  0.2146  1.0244
18659TIP3    H277469   0.323   5.066  11.739 -2.6954 -1.3554 -3.9157
18660TIP3   OH277470   3.173   1.051   5.372  0.0818 -0.4081  0.0571
18660TIP3    H177471   3.110   1.119   5.347 -0.0406 -0.6130 -0.1986
18660TIP3    H277472   3.196   1.071   5.462 -1.3761 -1.1068  0.6112
18661TIP3   OH277473   1.544   3.031   4.672  0.0958  0.0825  0.0739
18661TIP3    H177474   1.489   2.965   4.714 -0.1087  0.3259  0.1947
18661TIP3    H277475   1.515   3.031   4.580 -1.2004  1.2726  0.4313
18662TIP3   OH277476   0.377   0.969  14.433 -0.3333  0.1274  0.0313
18662TIP3    H177477   0.327   0.889  14.447 -1.0341  0.6947  0.9115
18662TIP3    H277478   0.371   1.016  14.516  1.3644  0.3922  0.0439
18663TIP3   OH277479   1.154   6.234  11.490  0.5610 -0.0981  0.3143
18663TIP3    H177480   1.098   6.308  11.512  0.2627  0.1436 -1.1749
18663TIP3    H277481   1.120   6.201  11.407  2.4792 -0.0718 -0.5395
18664TIP3   OH277482   1.457   4.081  17.037 -0.0901  0.6815  0.1854
18664TIP3    H177483   1.537   4.035  17.062  0.6015  1.6261 -0.2382
18664TIP3    H277484   1.441   4.053  16.947 -0.7085 -0.1269  0.5263
18665TIP3   OH277485   0.613   4.749   1.082 -0.9289 -0.4669 -0.3117
18665TIP3    H177486   0.572   4.806   1.147  0.6709  1.1084 -0.5984
18665TIP3    H277487   0.599   4.660   1.116 -0.4347  0.2727  2.0508
18666TIP3   OH277488   1.373   6.131   4.745 -0.2170 -0.5352  0.2447
18666TIP3    H177489   1.390   6.068   4.814 -1.1021 -0.8527  0.1891
18666TIP3    H277490   1.365   6.078   4.666  5.0559  0.0621 -1.0779
18667TIP3   OH277491   4.137   3.834  15.887 -0.3893  0.1685  0.5397
18667TIP3    H177492   4.212   3.888  15.862 -2.4572  2.8169 -0.3618
18667TIP3    H277493   4.067   3.860  15.827 -2.2083 -1.8316  1.6464
18668TIP3   OH277494   0.470   4.510  15.153 -0.5978 -0.0877  0.4424
18668TIP3    H177495   0.450   4.416  15.161 -1.1108  0.0463  0.7805
18668TIP3    H277496   0.541   4.525  15.214  1.2602 -0.7609 -1.4306
18669TIP3   OH277497   1.651   1.850  13.240  0.4431 -0.4428  0.1557
18669TIP3    H177498   1.563   1.827  13.211  0.2304 -1.4909  1.5677
18669TIP3    H277499   1.703   1.771  13.227  0.8050 -0.3203  0.8236
18670TIP3   OH277500   3.702   2.172   2.856  0.3874  0.0683 -0.2377
18670TIP3    H177501   3.697   2.081   2.885  1.2579  0.4651  1.2481
18670TIP3    H277502   3.643   2.219   2.914  1.7670  0.8076  0.6216
18671TIP3   OH277503   1.824   3.456  13.867  0.3515  0.3819  0.1033
18671TIP3    H177504   1.776   3.441  13.786 -0.1465  0.6449  0.3475
18671TIP3    H277505   1.832   3.551  13.874 -0.7635  0.4308  1.0176
18672TIP3   OH277506   3.466   3.450   3.028 -0.2083 -0.4305 -0.2560
18672TIP3    H177507   3.485   3.537   3.062 -0.2485 -0.3625 -0.4101
18672TIP3    H277508   3.491   3.391   3.100 -2.0101 -0.1976  0.6302
18673TIP3   OH277509   5.887   0.979  15.950 -0.2885  0.0244  0.1418
18673TIP3    H177510   5.934   1.027  15.882  0.5801  1.3413  1.5772
18673TIP3    H277511   5.812   0.940  15.906  0.7372  0.0487 -1.7208
18674TIP3   OH277512   4.009   5.110   0.794 -0.0987 -0.2498  0.6439
18674TIP3    H177513   4.061   5.090   0.716 -0.1265  1.0713  0.2625
18674TIP3    H277514   4.066   5.167   0.846 -0.9887  0.8867  0.4081
18675TIP3   OH277515   2.753   3.756  16.294 -0.3646 -0.3004  0.3542
18675TIP3    H177516   2.802   3.751  16.212  0.0601  2.2213  0.3541
18675TIP3    H277517   2.817   3.732  16.361 -0.3442 -1.1021  0.0540
18676TIP3   OH277518   5.111   5.035   2.728  0.3582 -0.2111 -0.4118
18676TIP3    H177519   5.021   5.036   2.761  0.1310 -0.3499 -1.0264
18676TIP3    H277520   5.142   4.946   2.747  0.7348  0.1587  0.7742
18677TIP3   OH277521   4.289   4.462   0.732 -0.2854  0.0634 -0.3940
18677TIP3    H177522   4.203   4.500   0.716  0.0569  0.0279 -2.6189
18677TIP3    H277523   4.341   4.487   0.655  0.5177 -3.2776 -1.1169
18678TIP3   OH277524   2.296   6.326  13.572 -0.6799 -0.2550  0.2996
18678TIP3    H177525   2.387   6.311  13.548 -0.8308 -2.3371  0.8200
18678TIP3    H277526   2.293   6.417  13.599  1.5499 -0.5053  1.6144
18679TIP3   OH277527   5.737   5.253  14.510 -0.1165 -0.5501 -0.1566
18679TIP3    H177528   5.826   5.221  14.493 -0.4766 -0.8268 -1.6218
18679TIP3    H277529   5.750   5.327  14.570  1.1205 -0.4219 -0.5536
18680TIP3   OH277530   2.528   5.946   4.534  0.0439 -0.8741 -0.2158
18680TIP3    H177531   2.564   6.029   4.565 -1.8510 -0.3062  0.6121
18680TIP3    H277532   2.602   5.886   4.536  0.4519 -0.6232  4.4742
18681TIP3   OH277533   1.437   4.497   2.441  0.3225  0.0379  0.1597
18681TIP3    H177534   1.426   4.428   2.375 -0.4386 -0.1069  0.4268
18681TIP3    H277535   1.441   4.451   2.524 -0.5575  0.3244  0.3736
18682TIP3   OH277536   3.195   1.408  12.512 -0.2636 -0.0356 -0.2608
18682TIP3    H177537   3.182   1.313  12.505 -0.4299 -0.1187  0.9842
18682TIP3    H277538   3.107   1.442  12.527 -0.3522  0.4411 -1.6931
18683TIP3   OH277539   0.256   0.059   2.927 -0.6758 -0.0513 -0.3510
18683TIP3    H177540   0.235  -0.024   2.883  1.9267 -1.0286  0.0607
18683TIP3    H277541   0.272   0.120   2.856  0.5300 -0.8084 -0.7681
18684TIP3   OH277542   5.018   2.007  13.428 -0.2486 -0.6418 -0.0313
18684TIP3    H177543   5.111   1.984  13.423  0.1614  1.0795 -2.4573
18684TIP3    H277544   5.000   2.013  13.521  1.8854 -1.7145  0.5256
18685TIP3   OH277545   1.249   2.043   1.011 -0.1274  0.4956  0.3086
18685TIP3    H177546   1.227   2.071   0.922 -0.1089  0.0246  0.1576
18685TIP3    H277547   1.178   1.983   1.035  2.0736 -2.8837 -1.0250
18686TIP3   OH277548   1.451   0.214  15.369 -0.2982 -0.2580 -0.0635
18686TIP3    H177549   1.500   0.171  15.299  0.1199 -0.2726  0.2347
18686TIP3    H277550   1.364   0.229  15.332 -1.9160 -5.0758  1.1103
18687TIP3   OH277551   2.870   1.475   0.020 -0.2065 -0.2959  0.0053
18687TIP3    H177552   2.948   1.526  -0.003  0.7259 -1.5215  0.3028
18687TIP3    H277553   2.818   1.474  -0.060  0.0729  0.5406 -0.2007
18688TIP3   OH277554   2.102   1.895   6.012  0.0906  0.3029 -0.0850
18688TIP3    H177555   2.054   1.977   6.027 -0.7750  0.0118 -1.0894
18688TIP3    H277556   2.046   1.846   5.951  2.6743  0.8723 -3.1525
18689TIP3   OH277557   2.225   2.621   0.400  0.0899  0.1802  0.5279
18689TIP3    H177558   2.133   2.647   0.394  0.4702  1.4696  0.0137
18689TIP3    H277559   2.265   2.689   0.454  0.7130 -0.4925  0.9299
18690TIP3   OH277560   1.272   3.500  12.949  0.3290 -0.6822 -0.3233
18690TIP3    H177561   1.218   3.578  12.964  1.6579 -0.1708  2.4765
18690TIP3    H277562   1.329   3.524  12.876  0.1817  0.7126 -0.0117
18691TIP3   OH277563   5.998   0.816   1.741  0.2056 -0.3921 -0.0165
18691TIP3    H177564   6.016   0.804   1.648  0.7901 -1.1230  0.1748
18691TIP3    H277565   5.931   0.750   1.761 -0.1301 -0.0415  0.0205
18692TIP3   OH277566   0.431   5.990  13.586 -0.1936  0.3314  0.6288
18692TIP3    H177567   0.400   5.927  13.521  0.4217 -0.1760  0.8138
18692TIP3    H277568   0.355   6.006  13.642 -1.0054  1.5045 -0.7634
18693TIP3   OH277569   2.910   6.534  16.333 -0.0003 -0.5348 -0.0250
18693TIP3    H177570   2.880   6.449  16.365  1.8796 -1.6256 -1.0075
18693TIP3    H277571   2.951   6.576  16.408 -1.4417 -0.2108  0.6136
18694TIP3   OH277572   1.447   4.742   4.989 -0.0197 -0.4069 -0.1304
18694TIP3    H177573   1.359   4.722   4.956 -0.2000  0.4480 -0.1997
18694TIP3    H277574   1.464   4.674   5.054 -1.0107 -0.2164  0.3602
18695TIP3   OH277575   5.007   3.848   4.440 -0.5964 -0.0084 -0.0307
18695TIP3    H177576   5.024   3.875   4.530 -0.3003 -0.5182  0.0700
18695TIP3    H277577   5.082   3.792   4.417 -0.6896  0.0824 -0.5783
18696TIP3   OH277578   2.559   3.590  15.021 -0.0988 -0.1665  0.1395
18696TIP3    H177579   2.492   3.640  15.067 -0.3066 -0.3386  0.0250
18696TIP3    H277580   2.636   3.595  15.077 -0.1406  0.2189  0.1645
18697TIP3   OH277581   1.096   5.208   2.043  0.2684  0.0607  0.1903
18697TIP3    H177582   1.056   5.294   2.053 -1.5903 -0.8068  0.4759
18697TIP3    H277583   1.190   5.225   2.051 -0.0110  2.1314 -0.3615
18698TIP3   OH277584   3.280   5.712  16.132 -0.2634 -0.8427 -0.5212
18698TIP3    H177585   3.311   5.635  16.181  0.1643 -1.2033 -1.3359
18698TIP3    H277586   3.356   5.742  16.084 -0.5432 -0.1625 -0.5490
18699TIP3   OH277587   5.504   6.470   3.126  0.5822 -0.2282  0.5139
18699TIP3    H177588   5.503   6.563   3.102 -0.2261 -0.4472 -0.3636
18699TIP3    H277589   5.424   6.458   3.178  0.0958 -0.6453 -0.3019
18700TIP3   OH277590   6.610   0.700  12.726  0.2986 -0.4320  0.0423
18700TIP3    H177591   6.682   0.639  12.709  1.3004  0.6559  0.2518
18700TIP3    H277592   6.533   0.644  12.738  1.0512 -1.6029 -0.4779
18701TIP3   OH277593   5.881   4.632  14.857  0.0024 -0.3125  0.0448
18701TIP3    H177594   5.942   4.567  14.893 -2.2412 -0.5603  3.8808
18701TIP3    H277595   5.814   4.580  14.813 -0.0170 -0.3623  0.1331
18702TIP3   OH277596   2.624   1.930   3.866 -0.3796  0.2718  0.1880
18702TIP3    H177597   2.598   1.955   3.778  0.1256 -1.6423 -0.5540
18702TIP3    H277598   2.570   1.853   3.887 -0.8924  1.0147  1.7904
18703TIP3   OH277599   5.811   1.742   3.326 -0.2215 -0.0573 -0.2829
18703TIP3    H177600   5.814   1.833   3.355  0.4361  0.2954 -1.3976
18703TIP3    H277601   5.719   1.725   3.308 -0.2431  0.6485 -0.8667
18704TIP3   OH277602   2.482   4.148  13.445  0.1147 -0.5726 -0.0542
18704TIP3    H177603   2.472   4.080  13.378  0.9573 -0.1256 -0.6444
18704TIP3    H277604   2.568   4.186  13.428  0.2850 -0.3652  1.2100
18705TIP3   OH277605   1.124   3.388   1.096  0.2863  0.5155 -0.1330
18705TIP3    H177606   1.170   3.424   1.020 -0.5062 -1.4943 -1.6579
18705TIP3    H277607   1.032   3.408   1.080 -0.0869 -1.4234 -0.6552
18706TIP3   OH277608   6.163   4.900  12.496 -0.0503 -0.1572 -0.1137
18706TIP3    H177609   6.257   4.884  12.485 -0.2623 -1.8691  0.1888
18706TIP3    H277610   6.130   4.912  12.407  0.2889 -0.6685 -0.3161
18707TIP3   OH277611   0.080   2.787   1.805  0.3526 -0.2005 -0.3631
18707TIP3    H177612   0.148   2.752   1.748 -0.0191  0.2281 -1.0981
18707TIP3    H277613   0.010   2.722   1.801  0.3593 -0.2095 -0.3325
18708TIP3   OH277614   6.002   1.988  16.161 -0.4848  0.1369  0.6046
18708TIP3    H177615   5.951   1.973  16.081 -2.0152  0.8674  1.4057
18708TIP3    H277616   6.020   1.900  16.194  0.0322 -0.1719 -0.4467
18709TIP3   OH277617   3.025   3.568  14.559  0.2870  0.4993 -0.4254
18709TIP3    H177618   2.938   3.541  14.590  1.0494  0.0289  1.3885
18709TIP3    H277619   3.070   3.487  14.538  0.9215  0.6406  0.3886
18710TIP3   OH277620   1.692   3.382   1.932  0.3108  0.0829 -0.0175
18710TIP3    H177621   1.609   3.428   1.944 -0.0428 -0.3116 -0.8687
18710TIP3    H277622   1.689   3.351   1.841  2.0396  1.3499 -0.5396
18711TIP3   OH277623   0.621   0.687  13.719 -0.1437 -0.3559  0.2944
18711TIP3    H177624   0.572   0.766  13.696 -0.9880 -1.0533 -0.3332
18711TIP3    H277625   0.620   0.634  13.640  1.6854 -0.3802  0.2406
18712TIP3   OH277626   1.291   6.610   3.899  0.1533 -0.1629  0.1932
18712TIP3    H177627   1.277   6.704   3.896  1.7562  0.1339  0.8988
18712TIP3    H277628   1.320   6.587   3.811 -0.4847 -0.0632 -0.0513
18713TIP3   OH277629   0.539   3.434  15.376 -0.1850  0.0033 -0.3450
18713TIP3    H177630   0.613   3.461  15.321  0.3226 -1.5646 -0.5053
18713TIP3    H277631   0.580   3.392  15.452 -0.9073  0.7551  0.4813
18714TIP3   OH277632   3.137   2.447   6.223  0.5245 -0.5315  0.3056
18714TIP3    H177633   3.113   2.453   6.316  1.1778  1.0423  0.4081
18714TIP3    H277634   3.207   2.511   6.213  1.6196 -1.8630 -0.9380
18715TIP3   OH277635   1.401   6.073   4.060  0.4197  0.0526 -0.0088
18715TIP3    H177636   1.491   6.060   4.031  0.0982 -0.3542 -0.8804
18715TIP3    H277637   1.348   6.054   3.982 -0.5165 -1.4227  0.9236
18716TIP3   OH277638   0.067   0.519   0.252  0.0200  0.0754 -0.1200
18716TIP3    H177639   0.059   0.424   0.245 -1.3568  0.1412  0.3751
18716TIP3    H277640   0.093   0.534   0.343 -0.9012  0.2219  0.1282
18717TIP3   OH277641   5.130   3.083   3.786 -0.1833 -0.2856 -0.0428
18717TIP3    H177642   5.070   3.145   3.745  0.0171 -0.8196 -1.1826
18717TIP3    H277643   5.127   3.104   3.879 -1.7651  0.0230 -0.1397
18718TIP3   OH277644   3.539   3.247   3.217  0.2433  0.1946 -0.0656
18718TIP3    H177645   3.622   3.238   3.264  0.2598  0.5157 -0.0299
18718TIP3    H277646   3.474   3.208   3.276  0.3411  0.1046 -0.0159
18719TIP3   OH277647   6.546   1.904   2.912 -0.7161 -0.0267 -0.6815
18719TIP3    H177648   6.628   1.897   2.863  1.4368 -0.8165  2.7496
18719TIP3    H277649   6.549   1.832   2.975 -2.3085  2.0200  1.9321
18720TIP3   OH277650   3.030   2.845  12.994  0.3259 -0.1363  0.2104
18720TIP3    H177651   3.006   2.869  13.084  0.4640  3.4304 -0.5610
18720TIP3    H277652   2.949   2.810  12.957 -0.4955  0.8557  0.9910
18721TIP3   OH277653   1.843   4.972   4.612  0.7010  0.5589 -0.4638
18721TIP3    H177654   1.832   5.066   4.599  0.6006  0.8258  1.3383
18721TIP3    H277655   1.754   4.938   4.624  0.8698  0.7057  1.5709
18722TIP3   OH277656   5.532   4.462   3.190 -0.0987 -0.0017  0.3248
18722TIP3    H177657   5.510   4.394   3.126 -1.3405 -0.7044  1.4318
18722TIP3    H277658   5.448   4.483   3.232  0.2001  2.3937 -0.1139
18723TIP3   OH277659   6.179   5.831   0.891  0.6050  0.2072  0.1161
18723TIP3    H177660   6.116   5.886   0.937  0.7763  0.4045  0.1134
18723TIP3    H277661   6.229   5.891   0.836  2.7002  0.4682  2.1774
18724TIP3   OH277662   6.069   3.409   3.921  0.4218  0.4462  0.3844
18724TIP3    H177663   6.001   3.390   3.985  0.3876 -0.0843  0.1982
18724TIP3    H277664   6.033   3.379   3.838  1.7566 -2.0916  0.6114
18725TIP3   OH277665   3.409   2.939  12.395 -0.2696 -0.0096 -0.7916
18725TIP3    H177666   3.371   3.021  12.427  1.5719  0.8327 -0.6188
18725TIP3    H277667   3.334   2.883  12.376 -1.5512  1.4236 -0.1346
18726TIP3   OH277668   6.583   1.326  14.185 -0.0678  0.0119  0.5015
18726TIP3    H177669   6.601   1.333  14.278  1.8130  0.3494  0.1586
18726TIP3    H277670   6.611   1.237  14.162  1.9624  0.7712 -0.1790
18727TIP3   OH277671   6.608   2.292   2.706 -0.4588 -0.4597  0.1768
18727TIP3    H177672   6.650   2.245   2.778  2.5636  2.1070  0.3283
18727TIP3    H277673   6.653   2.260   2.628 -0.2784  0.2084  0.0026
18728TIP3   OH277674   4.028   5.801  15.960  0.0603 -0.0685 -0.0813
18728TIP3    H177675   4.081   5.854  15.901  0.3373 -1.7558 -1.4255
18728TIP3    H277676   4.088   5.734  15.992 -0.5606 -0.2773  0.6921
18729TIP3   OH277677   3.438   3.987  15.957 -1.2040  0.3320 -0.0231
18729TIP3    H177678   3.399   4.056  15.903 -1.2557  0.9672  0.8000
18729TIP3    H277679   3.497   3.940  15.898  0.3953  2.3653 -0.1508
18730TIP3   OH277680   3.977   0.307   1.059  0.3784 -0.0999 -0.1180
18730TIP3    H177681   4.067   0.336   1.078 -0.4764  1.7977  1.3189
18730TIP3    H277682   3.941   0.376   1.003 -1.2302  1.0661  2.1656
18731TIP3   OH277683   0.381   1.011  12.813  0.0702  0.4232 -0.3990
18731TIP3    H177684   0.403   0.970  12.729 -0.3976  1.9188 -1.3105
18731TIP3    H277685   0.466   1.030  12.853  0.2897 -1.6480  0.1969
18732TIP3   OH277686   5.179   0.466  15.113 -0.3713 -0.4261  0.5472
18732TIP3    H177687   5.264   0.430  15.086 -0.3743 -0.7086  0.8963
18732TIP3    H277688   5.194   0.500  15.201 -0.7434 -0.9410  0.8168
18733TIP3   OH277689   0.222   4.830   1.338 -0.0547 -0.3437  0.6947
18733TIP3    H177690   0.239   4.741   1.368  0.0136 -0.2530  0.9260
18733TIP3    H277691   0.264   4.886   1.403  2.9347 -0.1643 -1.2333
18734TIP3   OH277692   6.815   2.218  12.692 -0.3881  0.1530  0.4445
18734TIP3    H177693   6.793   2.170  12.772 -3.8269 -0.9372 -0.9683
18734TIP3    H277694   6.881   2.281  12.719 -0.8634 -0.6635  3.9524
18735TIP3   OH277695   1.886   1.246  12.179  0.5630  0.0360 -0.2637
18735TIP3    H177696   1.840   1.205  12.106 -1.5702  1.4109  0.1990
18735TIP3    H277697   1.892   1.176  12.245 -2.1532  0.0776  0.1625
18736TIP3   OH277698   1.949   2.464  16.722  0.4409 -0.6545  0.3568
18736TIP3    H177699   1.937   2.536  16.784  1.2741 -0.9511  0.8779
18736TIP3    H277700   2.003   2.400  16.769  2.3268 -0.2651 -1.1292
18737TIP3   OH277701   2.596   6.534  11.487  0.1687 -0.3877 -0.2958
18737TIP3    H177702   2.545   6.603  11.446 -2.5672 -2.1454 -0.1070
18737TIP3    H277703   2.637   6.488  11.414  0.7722  0.4804 -0.5193
18738TIP3   OH277704   5.081   4.951   0.239  0.5583 -0.0491  0.1470
18738TIP3    H177705   5.008   5.000   0.202  1.0042 -1.4498 -2.8628
18738TIP3    H277706   5.157   5.007   0.224  0.8435 -0.8740 -1.9657
18739TIP3   OH277707   0.084   6.456  15.125 -0.2188 -0.0116  0.0962
18739TIP3    H177708   0.085   6.486  15.216  2.3689  2.3183 -0.5702
18739TIP3    H277709   0.088   6.361  15.131 -1.0225  0.0278  2.3834
18740TIP3   OH277710   4.121   2.238  13.383 -0.2443  0.2472 -0.3238
18740TIP3    H177711   4.080   2.198  13.460  2.6603 -0.9142  0.7376
18740TIP3    H277712   4.158   2.320  13.416  4.1691 -1.8623  0.6978
18741TIP3   OH277713   5.818   2.622  15.116 -0.2925 -0.4674 -0.7397
18741TIP3    H177714   5.850   2.654  15.031 -1.9877 -0.1061 -1.2840
18741TIP3    H277715   5.744   2.566  15.094  0.6644 -2.2766  0.4084
18742TIP3   OH277716   4.481   6.613   1.159 -0.2538 -0.0887 -0.0725
18742TIP3    H177717   4.500   6.634   1.068 -1.2162 -0.7557 -0.4370
18742TIP3    H277718   4.554   6.651   1.208 -0.1828  1.0421 -1.0246
18743TIP3   OH277719   6.498   5.085  14.528 -0.2603  0.6329 -0.0239
18743TIP3    H177720   6.518   5.175  14.552  0.8574  0.9744 -1.9709
18743TIP3    H277721   6.563   5.064  14.460  1.4185 -2.6142  2.3256
18744TIP3   OH277722   4.406   6.730  12.897 -0.8018  0.0233 -0.4812
18744TIP3    H177723   4.392   6.667  12.966 -1.4353  0.4158 -0.2409
18744TIP3    H277724   4.473   6.691  12.841  1.1088  0.5119  1.3516
18745TIP3   OH277725   5.785   0.655   0.352  0.5327  0.0729  0.1442
18745TIP3    H177726   5.841   0.674   0.277 -0.2518 -0.7798 -0.6930
18745TIP3    H277727   5.697   0.679   0.322  0.4266  1.3455  1.4115
18746TIP3   OH277728   2.936   3.732   2.283 -0.2135  0.0897 -0.1713
18746TIP3    H177729   2.883   3.757   2.208 -1.5903 -3.0614 -0.4082
18746TIP3    H277730   2.873   3.709   2.351  0.9424 -0.0590  0.8953
18747TIP3   OH277731   1.552   6.128   0.275  0.0313  0.8492 -0.5453
18747TIP3    H177732   1.541   6.219   0.247 -0.6453  0.8512 -0.3055
18747TIP3    H277733   1.569   6.080   0.194  0.5317  1.2037 -0.6579
18748TIP3   OH277734   6.141   6.513   6.234  0.3117  0.1181  0.3927
18748TIP3    H177735   6.227   6.551   6.246 -0.4880  1.8012  1.0898
18748TIP3    H277736   6.133   6.498   6.140  1.3795 -0.1612  0.3420
18749TIP3   OH277737   5.716   1.507   5.702  0.1337  0.1217  0.2030
18749TIP3    H177738   5.685   1.491   5.791 -0.7368  0.4665 -0.0239
18749TIP3    H277739   5.713   1.602   5.691 -3.1421  0.0137 -1.2790
18750TIP3   OH277740   0.165   2.369   0.954  0.1576 -0.3870 -0.0545
18750TIP3    H177741   0.165   2.287   0.905  1.4238 -0.4162 -0.0275
18750TIP3    H277742   0.193   2.435   0.892 -0.4481 -0.0370  0.0369
18751TIP3   OH277743   1.158   3.063  11.426 -0.0030  0.6181  0.1782
18751TIP3    H177744   1.170   3.150  11.388 -0.5227 -0.7322 -3.4938
18751TIP3    H277745   1.183   3.003  11.356 -1.0798 -2.2277  2.0461
18752TIP3   OH277746   1.987   1.082  17.035  0.3530 -0.2017  0.3161
18752TIP3    H177747   2.016   1.076  16.944  3.0007 -0.4929  1.1207
18752TIP3    H277748   1.936   1.164  17.037 -1.5408 -1.2047 -1.8033
18753TIP3   OH277749   5.871   4.188  16.354  0.0065 -0.6430  0.2870
18753TIP3    H177750   5.811   4.145  16.415 -0.1305 -0.9478 -0.0538
18753TIP3    H277751   5.957   4.150  16.374 -0.2052 -1.5024 -0.3871
18754TIP3   OH277752   6.019   6.729   3.229  0.5820  0.0329  0.2402
18754TIP3    H177753   6.086   6.742   3.161  0.3337 -0.7324 -0.1590
18754TIP3    H277754   6.068   6.734   3.311  0.9255  0.7210  0.0019
18755TIP3   OH277755   2.252   2.283   3.654  0.7924 -0.2344  0.2702
18755TIP3    H177756   2.257   2.376   3.677 -1.7907  0.4215 -1.3516
18755TIP3    H277757   2.325   2.270   3.593  1.0311  0.8101  0.2993
18756TIP3   OH277758   6.612   6.449   1.322  0.3312  0.1224 -0.1430
18756TIP3    H177759   6.652   6.534   1.304 -0.0967  0.3533 -0.0128
18756TIP3    H277760   6.682   6.398   1.363  1.1171 -0.1799 -1.7660
18757TIP3   OH277761   0.279   5.782  15.179  0.1845 -0.4248  0.3217
18757TIP3    H177762   0.343   5.788  15.108 -1.8906  0.5206 -1.5925
18757TIP3    H277763   0.202   5.744  15.138 -0.9646 -0.2317  2.2038
18758TIP3   OH277764   2.376   0.605  16.864  0.0507  0.2389 -0.4336
18758TIP3    H177765   2.368   0.671  16.796 -0.2646 -0.2842 -0.9030
18758TIP3    H277766   2.385   0.656  16.945 -0.7090  0.8577 -0.7247
18759TIP3   OH277767   2.106   3.227  12.943  0.1708  0.4687 -0.0558
18759TIP3    H177768   2.190   3.270  12.955  0.2440 -0.0794  1.6362
18759TIP3    H277769   2.074   3.210  13.032 -0.5490 -1.6128 -0.6461
18760TIP3   OH277770   3.905   5.217   2.036 -0.4173 -0.4059 -0.3339
18760TIP3    H177771   3.984   5.229   1.983  0.2412 -2.5996  0.0641
18760TIP3    H277772   3.898   5.298   2.086  1.1195  0.1638 -0.9624
18761TIP3   OH277773   0.353   1.533  14.337  0.0261  0.6461 -0.1899
18761TIP3    H177774   0.279   1.512  14.279  1.6037  3.3916 -3.5615
18761TIP3    H277775   0.322   1.606  14.390 -0.3490  0.3707 -0.0250
18762TIP3   OH277776   4.256   1.124   1.537  0.1439 -0.3550 -0.3764
18762TIP3    H177777   4.310   1.102   1.461 -0.8955  0.1473 -1.2949
18762TIP3    H277778   4.292   1.207   1.569 -1.1180  0.9816 -2.1199
18763TIP3   OH277779   4.794   1.397  14.415 -0.1775  0.2700  0.2631
18763TIP3    H177780   4.760   1.317  14.455 -0.9886  0.3953 -0.1446
18763TIP3    H277781   4.784   1.382  14.321  0.3928  0.5392  0.1598
18764TIP3   OH277782   1.709   0.334  13.411 -0.2123 -0.1973  0.5021
18764TIP3    H177783   1.622   0.296  13.414 -1.0262  1.5307  0.2726
18764TIP3    H277784   1.712   0.382  13.328  1.1310 -0.6052  0.2883
18765TIP3   OH277785   0.416   4.106  13.243  0.0958  0.1444  0.2385
18765TIP3    H177786   0.494   4.081  13.293  0.8112  1.7360  0.0188
18765TIP3    H277787   0.376   4.024  13.217  1.8540 -0.7417  0.1533
18766TIP3   OH277788   2.011   6.606  11.214  0.4263  0.0104  0.2653
18766TIP3    H177789   1.970   6.540  11.158  2.3139 -0.6380 -0.4161
18766TIP3    H277790   1.977   6.587  11.302 -0.4686 -0.7045 -0.2222
18767TIP3   OH277791   0.292   5.886   6.963 -0.0584  0.1925  0.0055
18767TIP3    H177792   0.292   5.815   6.898 -0.2178  0.4733 -0.3053
18767TIP3    H277793   0.383   5.892   6.991 -0.2237 -0.8737  0.8604
18768TIP3   OH277794   3.875   4.418   6.141  0.4077  0.1907  0.3344
18768TIP3    H177795   3.815   4.493   6.145  0.8015  0.5298 -0.0247
18768TIP3    H277796   3.901   4.404   6.232 -1.3018 -0.8640  0.7135
18769TIP3   OH277797   1.440   5.353   0.366  0.3322 -0.1101 -0.0225
18769TIP3    H177798   1.488   5.424   0.408  0.1657  0.0818 -0.1571
18769TIP3    H277799   1.418   5.386   0.279  1.8319 -0.9796 -0.7880
18770TIP3   OH277800   1.318   0.677  12.926 -0.1592  0.4960 -0.5352
18770TIP3    H177801   1.320   0.656  12.833 -4.5183  0.2636 -0.7888
18770TIP3    H277802   1.253   0.617  12.964  1.6015  0.4172  2.7527
18771TIP3   OH277803   4.566   5.828  14.676 -0.0121 -0.6819  0.4571
18771TIP3    H177804   4.626   5.788  14.612  1.3374  0.5225  0.9032
18771TIP3    H277805   4.617   5.830  14.757 -0.6514  0.4209  0.8454
18772TIP3   OH277806   4.310   4.752   0.250 -0.1439 -0.0467  0.0376
18772TIP3    H177807   4.226   4.709   0.235  0.2659 -0.6081 -0.6614
18772TIP3    H277808   4.372   4.704   0.195  0.8405 -0.3207  1.3332
18773TIP3   OH277809   0.855   1.414   2.866 -0.1965 -0.0106 -0.4171
18773TIP3    H177810   0.910   1.469   2.921  0.1976  0.7246 -1.5095
18773TIP3    H277811   0.910   1.338   2.844 -0.2708 -0.1850 -0.0003
18774TIP3   OH277812   4.327   5.491   6.081 -0.3897  0.5631  0.3494
18774TIP3    H177813   4.239   5.523   6.060 -0.1754  1.3072  0.5553
18774TIP3    H277814   4.311   5.413   6.135 -0.9237  0.4382  0.0221
18775TIP3   OH277815   1.828   2.773   3.181 -0.0956 -0.1479  0.1703
18775TIP3    H177816   1.879   2.693   3.181  1.9840  1.1054  0.2272
18775TIP3    H277817   1.861   2.823   3.256 -2.3177  0.2085  0.9894
18776TIP3   OH277818   6.203   6.627   1.608  0.4949  0.5250 -0.1958
18776TIP3    H177819   6.196   6.540   1.647 -2.1513  0.0657 -1.4398
18776TIP3    H277820   6.256   6.615   1.530  0.8013  0.1940  0.0615
18777TIP3   OH277821   2.019   3.486  15.129 -0.4527  0.0481 -0.5642
18777TIP3    H177822   2.034   3.506  15.037  2.3912 -1.8812 -0.6466
18777TIP3    H277823   2.106   3.486  15.169 -1.1255 -2.9840  1.2284
18778TIP3   OH277824   4.876   4.303  13.829  0.1796 -0.7209  0.2871
18778TIP3    H177825   4.819   4.292  13.753  0.9009 -0.1513 -0.3530
18778TIP3    H277826   4.869   4.220  13.876 -0.7059 -0.8789 -0.0981
18779TIP3   OH277827   6.084   6.195  12.055 -0.2278 -0.2430 -0.6312
18779TIP3    H177828   6.166   6.231  12.021 -0.8807  0.1400 -1.8513
18779TIP3    H277829   6.056   6.257  12.122  1.4992 -1.4306  1.3347
18780TIP3   OH277830   5.226   2.154  15.021 -0.0566  0.0902  0.5205
18780TIP3    H177831   5.131   2.163  15.030 -0.1037 -0.2439  0.3838
18780TIP3    H277832   5.239   2.065  14.986  0.3625 -0.2105  1.4038
18781TIP3   OH277833   4.830   2.774  16.870  0.5953 -0.2407  0.1377
18781TIP3    H177834   4.852   2.691  16.826 -0.5370  0.0646 -1.0328
18781TIP3    H277835   4.859   2.842  16.810 -0.1583  0.1952  0.2573
18782TIP3   OH277836   0.393   2.007  11.087  0.0004  0.5655  0.1989
18782TIP3    H177837   0.466   1.948  11.105 -0.3503 -0.8275 -2.4458
18782TIP3    H277838   0.327   1.952  11.046 -2.2611  1.9597  1.7490
18783TIP3   OH277839   4.714   2.647   1.275 -0.6711  0.5871 -0.3716
18783TIP3    H177840   4.626   2.640   1.238 -1.9848  2.3626  2.1311
18783TIP3    H277841   4.710   2.595   1.355  0.1580  1.7426  0.4404
18784TIP3   OH277842   6.272   1.403   3.165  0.3992 -0.0175  0.2911
18784TIP3    H177843   6.201   1.388   3.227 -0.7173  0.3529 -0.8593
18784TIP3    H277844   6.324   1.323   3.169 -1.1389 -1.0947 -0.1973
18785TIP3   OH277845   5.781   1.564  10.457 -0.3853  0.2794 -0.3129
18785TIP3    H177846   5.809   1.637  10.400 -2.1694  0.4777 -1.0052
18785TIP3    H277847   5.686   1.560  10.445 -0.2404 -3.1039 -1.4544
18786TIP3   OH277848   0.787   6.263   5.943  0.1341 -1.0368  0.4054
18786TIP3    H177849   0.755   6.339   5.991  0.0870 -2.0086  1.9814
18786TIP3    H277850   0.855   6.225   5.999  2.8191 -0.1414 -1.9746
18787TIP3   OH277851   0.693   3.766   1.861  0.7788 -0.3178 -0.2183
18787TIP3    H177852   0.643   3.710   1.920  0.8863  0.3985  0.5745
18787TIP3    H277853   0.746   3.706   1.810  2.3629 -0.9170  1.9538
18788TIP3   OH277854   5.359   6.603  12.291 -0.8279 -0.1298 -0.4390
18788TIP3    H177855   5.283   6.656  12.267 -1.1748 -0.6510 -0.4926
18788TIP3    H277856   5.323   6.520  12.322 -0.3012 -0.2212 -0.0384
18789TIP3   OH277857   4.678   1.938  12.346  0.2489 -0.0071 -0.5313
18789TIP3    H177858   4.735   1.968  12.417  0.2141  0.5730 -0.7400
18789TIP3    H277859   4.680   2.010  12.283 -0.7826  0.0589 -0.5000
18790TIP3   OH277860   2.044   4.618   0.928 -0.2728 -0.3491  0.1727
18790TIP3    H177861   1.969   4.649   0.979  0.1986  0.1721  0.5547
18790TIP3    H277862   2.071   4.537   0.972 -0.6645 -0.5969 -0.0283
18791TIP3   OH277863   2.801   6.702   0.333  0.8648  0.7990  0.2406
18791TIP3    H177864   2.731   6.731   0.392  0.1780 -1.0603  0.4288
18791TIP3    H277865   2.757   6.643   0.271  1.8385  1.5929 -1.2462
18792TIP3   OH277866   2.884   0.674   5.924 -0.2370  0.2015 -0.3855
18792TIP3    H177867   2.855   0.604   5.866 -0.1393 -0.9011  0.8679
18792TIP3    H277868   2.817   0.678   5.993  0.4857  0.3788  0.3211
18793TIP3   OH277869   1.133   0.312   1.879 -0.0152  0.5644 -0.1518
18793TIP3    H177870   1.040   0.325   1.898  0.1139  1.0128  0.2173
18793TIP3    H277871   1.159   0.390   1.831  0.1326  0.3605 -0.4053
18794TIP3   OH277872   4.392   3.961  15.862 -0.4989  0.8113 -0.0238
18794TIP3    H177873   4.386   4.055  15.878 -0.5945  0.8342 -0.1879
18794TIP3    H277874   4.483   3.947  15.837 -0.7251  1.0282 -1.0219
18795TIP3   OH277875   5.548   3.010  15.753 -0.6430 -0.3105  0.0161
18795TIP3    H177876   5.482   3.057  15.804 -0.8296 -1.4475  0.8532
18795TIP3    H277877   5.609   3.078  15.725 -2.7379  0.9911 -1.7713
18796TIP3   OH277878   0.661   0.672  15.539  0.2547  0.1814 -0.3186
18796TIP3    H177879   0.711   0.594  15.561  0.7725 -0.5114 -3.4409
18796TIP3    H277880   0.573   0.655  15.571  1.2301  0.1851  2.6864
18797TIP3   OH277881   6.556   2.817   2.601 -0.6979  0.2209 -0.6470
18797TIP3    H177882   6.580   2.826   2.508  1.0007 -1.2123 -0.4022
18797TIP3    H277883   6.579   2.727   2.623 -2.9198 -0.0804  0.6953
18798TIP3   OH277884   3.766   0.535   3.230  0.0941 -0.0514  0.5400
18798TIP3    H177885   3.769   0.470   3.161 -0.1492  0.8790 -0.3691
18798TIP3    H277886   3.779   0.485   3.311 -2.0544 -1.5302  0.0740
18799TIP3   OH277887   4.121   2.134  17.069  0.3990 -0.2285  0.2841
18799TIP3    H177888   4.205   2.145  17.024  0.5915  0.8152  0.8737
18799TIP3    H277889   4.067   2.206  17.038 -0.2284 -0.7979  0.0408
18800TIP3   OH277890   3.392   6.772  12.882  0.3575 -0.1883  0.2214
18800TIP3    H177891   3.467   6.782  12.824 -0.4827  2.1141 -0.6065
18800TIP3    H277892   3.430   6.772  12.970  1.4964 -1.7521 -0.2380
18801TIP3   OH277893   4.432   3.338  11.594  0.0531 -0.1504 -0.2119
18801TIP3    H177894   4.385   3.345  11.512  0.7761  0.8220 -0.5670
18801TIP3    H277895   4.381   3.391  11.656  0.1301  0.0763 -0.3399
18802TIP3   OH277896   1.080   1.658   5.454 -0.6978 -0.0566 -0.4947
18802TIP3    H177897   1.068   1.596   5.525 -1.7983  0.2243 -0.4182
18802TIP3    H277898   1.052   1.611   5.375  0.3599 -0.3122 -0.7303
18803TIP3   OH277899   5.784   6.359  13.625 -0.2023 -0.9235 -0.0894
18803TIP3    H177900   5.712   6.420  13.644  0.0061 -0.8352  0.4387
18803TIP3    H277901   5.748   6.273  13.647  0.0566 -0.8166  0.8078
18804TIP3   OH277902   4.953   2.744  12.222 -0.4916  0.4600 -0.1437
18804TIP3    H177903   4.925   2.680  12.156  0.3222 -0.4832  0.3850
18804TIP3    H277904   4.908   2.824  12.198 -3.5988 -0.9185  0.6435
18805TIP3   OH277905   5.525   2.624  13.580  0.2831 -0.0225 -0.8474
18805TIP3    H177906   5.482   2.682  13.643  0.8590 -0.1813 -0.2864
18805TIP3    H277907   5.571   2.560  13.635  0.9712 -0.0395 -1.4265
18806TIP3   OH277908   1.705   1.358   3.441 -0.2421 -0.3229  0.0562
18806TIP3    H177909   1.650   1.387   3.513 -1.5554 -4.6218  1.1241
18806TIP3    H277910   1.653   1.375   3.362 -0.4348  1.0449  0.4619
18807TIP3   OH277911   3.671   0.803  10.916 -0.0122  0.0166  0.1898
18807TIP3    H177912   3.740   0.748  10.953 -0.6011 -0.7951  0.1159
18807TIP3    H277913   3.621   0.744  10.860 -0.2659  0.7878 -0.4239
18808TIP3   OH277914   3.686   6.819   0.401  0.2961  0.1769 -0.0260
18808TIP3    H177915   3.741   6.831   0.479  0.6561  1.8296 -0.4929
18808TIP3    H277916   3.612   6.767   0.432  1.7342 -1.5022  0.7939
18809TIP3   OH277917   1.934   2.191  16.470  0.6516  0.1442 -0.1906
18809TIP3    H177918   1.862   2.252  16.454 -0.2309 -1.0080 -0.7912
18809TIP3    H277919   1.952   2.153  16.384  0.8912 -0.7384  0.2399
18810TIP3   OH277920   2.979   5.797   5.685 -0.2994  0.2039 -0.0031
18810TIP3    H177921   3.036   5.805   5.608 -0.0630 -1.3060 -0.0171
18810TIP3    H277922   2.916   5.728   5.661 -0.0372 -0.5028  1.2573
18811TIP3   OH277923   0.202   1.232   0.825  0.4688 -0.4088  0.0945
18811TIP3    H177924   0.242   1.299   0.880  1.8371 -1.3091  0.2456
18811TIP3    H277925   0.253   1.153   0.843 -0.1518 -1.1326 -1.1992
18812TIP3   OH277926   3.753   3.865  11.503  0.4021  0.2612  0.2944
18812TIP3    H177927   3.845   3.880  11.479  0.9412  0.2235  2.1074
18812TIP3    H277928   3.755   3.780  11.547 -0.1972  0.9636  1.7298
18813TIP3   OH277929   5.549   3.114  13.251  0.3851 -0.3305 -0.6910
18813TIP3    H177930   5.623   3.172  13.235 -1.5990  2.6293  0.1630
18813TIP3    H277931   5.514   3.096  13.164 -0.6708  2.2667 -0.8928
18814TIP3   OH277932   6.717   1.746  10.921 -0.3239 -0.3814 -0.0859
18814TIP3    H177933   6.688   1.773  10.834  0.3877  0.3144 -0.1192
18814TIP3    H277934   6.637   1.727  10.968 -0.7006 -3.0368 -1.5829
18815TIP3   OH277935   0.337   4.379  13.348  0.3302  0.0783 -0.0529
18815TIP3    H177936   0.329   4.293  13.389  2.0440 -0.5166 -0.8808
18815TIP3    H277937   0.330   4.362  13.254 -0.0509  0.9534 -0.1916
18816TIP3   OH277938   3.018   1.296   0.235 -0.1487 -0.4183  0.1721
18816TIP3    H177939   2.989   1.206   0.246 -3.5431  0.7753  2.8621
18816TIP3    H277940   2.959   1.332   0.168  0.0993  0.2135  0.2862
18817TIP3   OH277941   5.876   4.820  11.133  0.3686 -0.2381  0.3713
18817TIP3    H177942   5.871   4.900  11.185  3.7105 -0.1467  0.8113
18817TIP3    H277943   5.911   4.849  11.048 -0.0910 -1.0256 -0.1005
18818TIP3   OH277944   5.357   0.719  12.468  0.0508 -0.3553 -0.4551
18818TIP3    H177945   5.341   0.649  12.405  0.3952 -0.3341 -0.5681
18818TIP3    H277946   5.340   0.799  12.419  2.2674 -0.2426 -1.1464
18819TIP3   OH277947   1.558   6.386  15.322 -0.2303  0.4011  0.3483
18819TIP3    H177948   1.608   6.368  15.242 -2.1150  0.9544 -1.0158
18819TIP3    H277949   1.563   6.305  15.373 -0.5658 -0.6220 -1.1989
18820TIP3   OH277950   6.275   4.634  12.733  0.5750  0.4717  0.2228
18820TIP3    H177951   6.306   4.724  12.744 -0.3019  0.8880 -0.5064
18820TIP3    H277952   6.191   4.643  12.688  0.6986 -0.7392 -0.3072
18821TIP3   OH277953   6.064   2.391   0.497 -0.6064 -0.4343  0.3741
18821TIP3    H177954   6.007   2.468   0.499 -0.2313 -0.1508  0.2561
18821TIP3    H277955   6.054   2.352   0.584 -0.1195  0.2520  0.7529
18822TIP3   OH277956   2.887   0.062   4.028 -0.3226 -0.3518  0.4915
18822TIP3    H177957   2.883   0.157   4.025 -0.2457 -0.1882  3.1679
18822TIP3    H277958   2.934   0.037   3.949  2.8670  2.0924  1.4204
18823TIP3   OH277959   2.009   4.134   5.363 -0.4962  0.0700  0.0110
18823TIP3    H177960   1.983   4.077   5.436 -1.0242  1.2702  0.7734
18823TIP3    H277961   2.097   4.164   5.386 -0.5370  0.2031 -0.0089
18824TIP3   OH277962   2.635   6.656   4.699  0.6325 -0.3027  0.6424
18824TIP3    H177963   2.618   6.717   4.628  0.1163  0.0692  1.0779
18824TIP3    H277964   2.679   6.582   4.657  0.5635  0.0250 -0.0168
18825TIP3   OH277965   3.156   0.590   0.634  0.0171 -0.3667 -0.0078
18825TIP3    H177966   3.111   0.582   0.550 -1.0715  0.1797  0.5138
18825TIP3    H277967   3.142   0.506   0.677  0.6589 -0.6843 -0.3924
18826TIP3   OH277968   6.419   5.795   4.345  0.0545 -0.2313 -0.1347
18826TIP3    H177969   6.398   5.873   4.396  0.0739  0.5996 -1.3595
18826TIP3    H277970   6.434   5.727   4.411  3.1306  1.4927  1.1527
18827TIP3   OH277971   4.223   3.255  16.780 -0.9805  0.3024 -0.5405
18827TIP3    H177972   4.139   3.294  16.755 -2.3764 -0.5993  2.2420
18827TIP3    H277973   4.234   3.182  16.720 -1.5072  1.2221 -1.7886
18828TIP3   OH277974   6.423   1.854   0.473 -0.2938 -0.0816 -0.5340
18828TIP3    H177975   6.466   1.849   0.387  0.5814 -3.1279 -0.0450
18828TIP3    H277976   6.484   1.904   0.527  1.9908 -2.8293 -0.3331
18829TIP3   OH277977   3.844   5.848   1.317  0.3999  0.5500 -0.0426
18829TIP3    H177978   3.833   5.941   1.296 -1.2302 -0.1076 -2.4219
18829TIP3    H277979   3.934   5.828   1.293  0.4855  1.3034 -0.3636
18830TIP3   OH277980   2.085   0.669   2.977  0.6265 -0.4543  0.0322
18830TIP3    H177981   2.075   0.583   2.937  0.2624 -0.4025  0.0124
18830TIP3    H277982   2.026   0.726   2.929  0.3145 -0.3516  0.5233
18831TIP3   OH277983   2.828   3.108   4.240  0.0007 -0.6919 -0.1044
18831TIP3    H177984   2.812   3.041   4.306 -1.0311 -2.0818 -1.6759
18831TIP3    H277985   2.908   3.079   4.195 -0.3815 -0.8325 -0.7113
18832TIP3   OH277986   2.000   2.782   2.389 -0.0099  0.1888  0.7818
18832TIP3    H177987   2.092   2.801   2.408  0.4534 -0.8042 -0.3442
18832TIP3    H277988   2.003   2.713   2.322 -1.5759 -0.0940  0.9645
18833TIP3   OH277989   2.801   1.143  16.338  0.3486 -0.0349  0.2364
18833TIP3    H177990   2.802   1.157  16.432  0.0825 -1.2965  0.4406
18833TIP3    H277991   2.816   1.049  16.327  1.1806  0.2069 -1.0097
18834TIP3   OH277992   0.966   5.430   2.117 -0.1972  0.3293 -0.4913
18834TIP3    H177993   0.879   5.417   2.080 -0.3463  2.1612 -0.8600
18834TIP3    H277994   1.004   5.502   2.066  0.4658  1.4098  1.4176
18835TIP3   OH277995   4.483   1.725  11.515 -0.1217 -0.2776 -0.2428
18835TIP3    H177996   4.548   1.662  11.483 -0.3310  0.7480 -2.8763
18835TIP3    H277997   4.398   1.684  11.495 -0.2551  0.5602 -1.5109
18836TIP3   OH277998   3.153   6.839   5.731 -0.2785 -0.0222 -0.2950
18836TIP3    H177999   3.239   6.877   5.749 -0.8965  1.5566 -0.5401
18836TIP3    H278000   3.148   6.762   5.789  1.2386 -0.0860 -0.2101
18837TIP3   OH278001   0.520   2.779  13.995  0.0513 -0.3229 -0.0550
18837TIP3    H178002   0.589   2.713  13.993  0.8188  0.4629 -1.4552
18837TIP3    H278003   0.540   2.833  14.071 -0.1540 -1.2321  0.6626
18838TIP3   OH278004   4.298   1.090  12.678  0.0245  0.2138  0.1062
18838TIP3    H178005   4.346   1.008  12.663  0.9625  0.9597 -1.0544
18838TIP3    H278006   4.319   1.112  12.769  0.0257 -0.6590  0.3345
18839TIP3   OH278007   4.825   1.257  14.783 -0.3577  0.2575 -0.0347
18839TIP3    H178008   4.880   1.314  14.729 -0.1193  0.1391  0.0813
18839TIP3    H278009   4.780   1.200  14.721  1.0299 -0.8842 -0.0424
18840TIP3   OH278010   5.337   4.216  12.885  0.0565  0.5882  0.1260
18840TIP3    H178011   5.393   4.151  12.842  1.3740  0.5564  1.8185
18840TIP3    H278012   5.284   4.165  12.946  1.0862  1.0667  1.4524
18841TIP3   OH278013   4.297   1.649   3.481 -0.1940  0.6086  0.7785
18841TIP3    H178014   4.334   1.564   3.508  0.1015  0.7639  0.8603
18841TIP3    H278015   4.280   1.639   3.388  0.8390  0.8195  0.5548
18842TIP3   OH278016   4.779   3.355  10.763 -0.2036  0.0319  0.3678
18842TIP3    H178017   4.802   3.263  10.753  0.3590  0.1827  0.2400
18842TIP3    H278018   4.752   3.383  10.675  0.3136  0.1710  0.2511
18843TIP3   OH278019   3.520   0.334   5.893  0.5410  0.0682 -0.5622
18843TIP3    H178020   3.548   0.284   5.969 -0.6041  0.0618 -0.1186
18843TIP3    H278021   3.486   0.416   5.929  1.1507  0.6012 -1.1752
18844TIP3   OH278022   3.576   1.630  11.975  0.2969 -0.3932 -0.3393
18844TIP3    H178023   3.505   1.585  12.021  0.9447 -0.9839  0.1089
18844TIP3    H278024   3.651   1.623  12.035  0.4816  1.0810 -0.3686
18845TIP3   OH278025   6.042   5.925  15.189  0.3177  0.1070  0.4360
18845TIP3    H178026   6.036   5.984  15.113  0.5573  0.4063  0.6479
18845TIP3    H278027   5.954   5.888  15.197 -0.1606  1.2983  0.9759
18846TIP3   OH278028   6.012   2.478   0.193  0.1352 -0.1370 -0.7631
18846TIP3    H178029   5.918   2.493   0.191  0.3516  1.8869  1.0415
18846TIP3    H278030   6.024   2.408   0.258 -0.0712  0.4169 -0.1147
18847TIP3   OH278031   5.185   1.216   3.093 -1.2604 -0.4150 -0.3426
18847TIP3    H178032   5.248   1.277   3.132  0.4606 -1.7276 -0.9304
18847TIP3    H278033   5.101   1.261   3.099  0.0350  2.3839 -1.5073
18848TIP3   OH278034   2.243   6.788   2.642  0.9834 -0.4689  0.5694
18848TIP3    H178035   2.239   6.866   2.586 -3.6778 -2.1093 -1.9657
18848TIP3    H278036   2.313   6.734   2.604  1.1836  0.5609 -0.5693
18849TIP3   OH278037   0.968   4.623  12.618  0.0107 -0.6144 -0.4071
18849TIP3    H178038   0.969   4.548  12.678 -0.6738  0.3383  0.8472
18849TIP3    H278039   0.912   4.687  12.662  1.7126  1.1902 -0.7698
18850TIP3   OH278040   6.305   4.817  14.261  0.3862  0.2816  0.0577
18850TIP3    H178041   6.234   4.760  14.291  1.1048  0.1527  1.6126
18850TIP3    H278042   6.372   4.757  14.230  0.8157  0.3152  0.9253
18851TIP3   OH278043   0.460   3.740  11.091 -0.6283 -0.9451 -0.5733
18851TIP3    H178044   0.488   3.666  11.144  1.1016  1.0496  1.5218
18851TIP3    H278045   0.365   3.744  11.104 -0.5184 -1.7479  0.7087
18852TIP3   OH278046   2.658   4.302  13.977 -0.7644  0.4753 -0.3062
18852TIP3    H178047   2.710   4.245  13.922  0.0207  0.7164  0.1747
18852TIP3    H278048   2.697   4.389  13.967 -2.5834  1.1701 -1.8421
18853TIP3   OH278049   2.917   6.325  13.970 -0.0878 -0.0581 -0.6349
18853TIP3    H178050   2.992   6.323  14.029  0.1206  0.0132 -0.8906
18853TIP3    H278051   2.878   6.238  13.975  0.4608 -0.3342 -1.0638
18854TIP3   OH278052   3.001   4.582  12.891 -0.2269 -0.0701 -0.2044
18854TIP3    H178053   2.958   4.603  12.974 -1.3578 -1.3101 -0.4338
18854TIP3    H278054   2.936   4.529  12.843  1.5379 -2.0378 -0.5879
18855TIP3   OH278055   3.505   1.783   3.732  0.2987  0.0712  0.2993
18855TIP3    H178056   3.560   1.842   3.783  0.9741 -0.3817  0.1025
18855TIP3    H278057   3.562   1.709   3.710 -0.1320  0.0091 -0.6666
18856TIP3   OH278058   2.583   0.919   4.930  0.0451  0.2249  0.1807
18856TIP3    H178059   2.564   0.918   4.837 -0.5053 -0.1062  0.2959
18856TIP3    H278060   2.661   0.865   4.940  0.6496  1.0129 -0.2034
18857TIP3   OH278061   3.617   6.157  16.153 -0.2825 -0.0774 -0.2943
18857TIP3    H178062   3.662   6.152  16.068 -0.9595  0.8839 -0.7187
18857TIP3    H278063   3.525   6.140  16.133 -0.3342 -0.6495  0.3757
18858TIP3   OH278064   4.279   3.599   5.148  0.2679  0.0390  0.4693
18858TIP3    H178065   4.273   3.653   5.227  2.0055 -1.2447  1.5456
18858TIP3    H278066   4.188   3.576   5.128 -0.3147  1.5159  1.2580
18859TIP3   OH278067   0.972   1.293   2.389 -0.0400  0.1679  0.2663
18859TIP3    H178068   0.930   1.207   2.398  0.0256 -0.0693 -1.3814
18859TIP3    H278069   0.987   1.303   2.295  3.5345  0.2667  0.7075
18860TIP3   OH278070   3.153   3.932  14.987  0.3421  0.6888  0.5389
18860TIP3    H178071   3.132   3.908  14.897 -0.0102  0.0514  0.7814
18860TIP3    H278072   3.179   4.024  14.983 -1.4122  1.1864  0.0413
18861TIP3   OH278073   2.870   6.569   1.210 -0.7657 -0.1515 -0.6758
18861TIP3    H178074   2.840   6.546   1.298  1.6165  0.1982  0.3117
18861TIP3    H278075   2.833   6.656   1.193 -0.3998  0.2356  0.4409
18862TIP3   OH278076   1.970   3.435  12.160  0.0211 -0.5912 -1.0474
18862TIP3    H178077   1.929   3.368  12.215 -3.6957  2.4566  0.2984
18862TIP3    H278078   1.906   3.453  12.092  0.3463  2.2756 -0.7084
18863TIP3   OH278079   4.304   2.192  15.011  0.1666  0.2799 -0.3837
18863TIP3    H178080   4.241   2.199  14.939 -0.8575  0.2565  0.4787
18863TIP3    H278081   4.273   2.117  15.062  1.0441  0.1186 -0.0773
18864TIP3   OH278082   6.062   6.037   0.472 -0.2256  0.0828 -0.0749
18864TIP3    H178083   6.093   6.101   0.408 -0.2484 -0.1969 -0.3710
18864TIP3    H278084   5.980   6.072   0.504  0.3020  0.7461  0.5891
18865TIP3   OH278085   0.630   5.736  11.838  0.6033 -0.0960  0.3007
18865TIP3    H178086   0.584   5.771  11.914 -0.5706  0.1455 -0.4971
18865TIP3    H278087   0.722   5.734  11.865  0.5802  2.4359  0.8091
18866TIP3   OH278088   4.643   4.899   5.401  0.0453  0.4726  0.2888
18866TIP3    H178089   4.586   4.836   5.357  0.6112  0.5062 -0.5286
18866TIP3    H278090   4.586   4.970   5.427 -1.0462 -1.2917  3.2147
18867TIP3   OH278091   6.508   6.087  16.083 -0.7246  0.1530  0.2811
18867TIP3    H178092   6.583   6.111  16.030 -1.1817  2.7430  0.6454
18867TIP3    H278093   6.472   6.008  16.042  0.7970  0.2345 -1.2868
18868TIP3   OH278094   4.859   2.745  12.594  0.4071 -0.1969  0.1278
18868TIP3    H178095   4.804   2.669  12.577  0.2246 -0.1124  0.3297
18868TIP3    H278096   4.943   2.724  12.553 -0.3001  0.3948 -1.7285
18869TIP3   OH278097   4.484   4.391  11.449  0.0900  0.3334  0.6550
18869TIP3    H178098   4.504   4.447  11.374 -1.2873  0.8387  0.6386
18869TIP3    H278099   4.395   4.359  11.433  0.1958 -0.4528  1.5331
18870TIP3   OH278100   0.406   0.840  17.005 -0.7229  0.3968  0.9977
18870TIP3    H178101   0.408   0.892  16.925 -1.2092  2.0733  2.0320
18870TIP3    H278102   0.362   0.759  16.980  0.0768  0.4399 -0.6617
18871TIP3   OH278103   5.007   0.353   0.593 -0.4350 -0.1521 -0.7456
18871TIP3    H178104   4.957   0.399   0.525 -1.1649  1.3641  0.7493
18871TIP3    H278105   4.961   0.372   0.674  1.5829 -0.1592  0.4734
18872TIP3   OH278106   0.718   5.681   0.989  0.1319 -0.0194  0.2733
18872TIP3    H178107   0.671   5.748   1.038  1.1419  1.4459 -0.6954
18872TIP3    H278108   0.655   5.650   0.924  0.0755  0.9830 -0.1607
18873TIP3   OH278109   1.808   5.899  14.697  0.0162 -0.4001  0.8565
18873TIP3    H178110   1.719   5.917  14.727 -0.3465  0.6009 -0.6712
18873TIP3    H278111   1.861   5.967  14.737 -0.1030 -0.3449  0.9226
18874TIP3   OH278112   5.888   5.745   1.873 -0.2659  0.0976  0.1541
18874TIP3    H178113   5.863   5.656   1.897 -2.9490  0.0634 -2.2183
18874TIP3    H278114   5.897   5.743   1.778  1.9061  1.9049  0.2241
18875TIP3   OH278115   3.666   3.144   2.628 -0.2728  0.3021  0.6669
18875TIP3    H178116   3.728   3.080   2.594 -1.0507  0.9026 -2.1810
18875TIP3    H278117   3.681   3.145   2.722  3.3157 -0.2953  0.2421
18876TIP3   OH278118   4.469   1.673  13.758 -0.0291  0.2009  0.0140
18876TIP3    H178119   4.531   1.726  13.709  1.5263 -0.7413  0.8973
18876TIP3    H278120   4.515   1.591  13.777 -1.7812 -0.8314  0.1049
18877TIP3   OH278121   3.489   1.589   2.454 -0.2469 -0.1525 -0.7239
18877TIP3    H178122   3.551   1.557   2.389  0.7643  0.6270 -0.1734
18877TIP3    H278123   3.457   1.510   2.498  0.7202 -0.5396 -0.6983
18878TIP3   OH278124   2.613   0.249   1.881  0.4966  0.1355 -0.2808
18878TIP3    H178125   2.651   0.335   1.897 -1.0716  0.9176 -0.5920
18878TIP3    H278126   2.557   0.262   1.805 -2.4466 -0.2850  1.6749
18879TIP3   OH278127   0.283   1.941  13.567  0.0285  0.1458  0.0359
18879TIP3    H178128   0.365   1.892  13.568  0.0321  0.1398  1.6946
18879TIP3    H278129   0.249   1.933  13.656 -0.9443  1.5461 -0.1788
18880TIP3   OH278130   4.473   0.813   6.352  0.0519  0.7787 -0.3167
18880TIP3    H178131   4.433   0.728   6.331 -1.2374  0.8953  1.3866
18880TIP3    H278132   4.409   0.878   6.325  0.5043  1.1550 -0.5040
18881TIP3   OH278133   1.476   2.302  14.833 -0.1940 -0.0736  0.4023
18881TIP3    H178134   1.561   2.263  14.856 -0.2923  0.5214  1.9011
18881TIP3    H278135   1.472   2.382  14.885 -2.3468 -0.8769  1.6177
18882TIP3   OH278136   0.361   2.655   0.496 -0.0485  0.3949  0.5207
18882TIP3    H178137   0.362   2.635   0.403  1.2003 -2.1971  1.0110
18882TIP3    H278138   0.438   2.710   0.510 -1.5636  2.9089 -0.2677
18883TIP3   OH278139   4.361   2.512   0.256 -0.0407  0.3682 -0.0215
18883TIP3    H178140   4.321   2.510   0.170 -0.9364 -0.1916  0.3903
18883TIP3    H278141   4.396   2.600   0.265 -0.0154  0.4543 -0.9198
18884TIP3   OH278142   1.811   1.161   4.366 -0.6360  0.2493  0.2150
18884TIP3    H178143   1.836   1.252   4.381 -0.9724  0.6255 -1.2688
18884TIP3    H278144   1.753   1.140   4.439 -0.9297  1.3805  0.3394
18885TIP3   OH278145   3.401   5.581  13.339  0.3031 -0.3932  0.0442
18885TIP3    H178146   3.420   5.495  13.377  2.4014 -0.5760 -1.2388
18885TIP3    H278147   3.349   5.562  13.261 -0.2376 -0.3713  0.3898
18886TIP3   OH278148   4.702   2.460  13.325  0.1507 -0.2106 -0.0516
18886TIP3    H178149   4.728   2.502  13.243 -0.3731 -1.0163 -0.6417
18886TIP3    H278150   4.709   2.366  13.307  1.1788 -0.4050  1.2049
18887TIP3   OH278151   0.249   1.615  17.120  0.4256 -0.0290  0.3812
18887TIP3    H178152   0.185   1.684  17.102  0.1641  0.5207  3.0415
18887TIP3    H278153   0.331   1.648  17.082 -0.2393  0.5387 -0.6140
18888TIP3   OH278154   3.123   6.120  12.863  0.5692  0.2539 -0.1811
18888TIP3    H178155   3.151   6.049  12.805  0.8512  0.7503 -0.6488
18888TIP3    H278156   3.030   6.101  12.880  1.1028 -1.3547  1.3239
18889TIP3   OH278157   0.423   4.540   1.095  0.1473 -0.3108 -0.5423
18889TIP3    H178158   0.395   4.581   1.177  0.9746  1.4733 -1.0884
18889TIP3    H278159   0.342   4.517   1.051 -0.4406  1.5691 -0.5520
18890TIP3   OH278160   5.104   6.807   1.507  0.0063  0.0249 -0.0824
18890TIP3    H178161   5.176   6.869   1.496 -0.7241  1.0323  0.6609
18890TIP3    H278162   5.029   6.860   1.534 -1.0468 -0.9914 -0.8710
18891TIP3   OH278163   1.308   2.924   0.077  0.2366 -0.2865  0.3475
18891TIP3    H178164   1.312   2.829   0.092  0.4234 -0.9217 -2.8787
18891TIP3    H278165   1.399   2.953   0.088  0.7619 -1.0892 -1.4356
18892TIP3   OH278166   1.779   6.625   2.178 -0.0963 -0.7352 -0.8079
18892TIP3    H178167   1.850   6.621   2.115 -0.2900  0.6666 -1.1630
18892TIP3    H278168   1.819   6.602   2.262  0.4423 -1.3845 -1.2398
18893TIP3   OH278169   5.071   6.125   4.194 -0.1896  0.2266  0.3991
18893TIP3    H178170   5.043   6.123   4.102 -0.2976  2.1258  0.3562
18893TIP3    H278171   5.090   6.034   4.215  0.2480 -0.1985 -1.6375
18894TIP3   OH278172   5.921   4.917  15.531 -0.7303 -0.1183  0.3736
18894TIP3    H178173   5.890   4.827  15.536  0.1872 -0.7180 -2.5595
18894TIP3    H278174   5.842   4.969  15.514 -1.2011 -0.4064  1.6328
18895TIP3   OH278175   5.793   6.403  16.078  0.2561 -0.5252  0.4153
18895TIP3    H178176   5.868   6.406  16.018  1.2458 -0.5148  1.6245
18895TIP3    H278177   5.747   6.322  16.054  0.7302 -0.6066 -0.2519
18896TIP3   OH278178   2.381   0.724   5.489 -0.3590  0.4838  0.4314
18896TIP3    H178179   2.369   0.629   5.490 -0.7514  0.5248  1.5314
18896TIP3    H278180   2.308   0.757   5.437 -0.2719  0.1866  0.1194
18897TIP3   OH278181   2.505   4.837   1.330  0.6179 -0.0937  0.5076
18897TIP3    H178182   2.501   4.838   1.234 -0.0218 -3.7774  0.3404
18897TIP3    H278183   2.426   4.885   1.357  1.2432  1.7291 -0.7273
18898TIP3   OH278184   3.531   5.126  13.143 -0.0840 -0.0512 -0.3285
18898TIP3    H178185   3.579   5.204  13.116 -0.4084 -0.7066 -3.1746
18898TIP3    H278186   3.448   5.158  13.177  0.1301  0.8695 -0.6619
18899TIP3   OH278187   0.261   5.337  15.101 -0.1192 -0.6650 -0.9527
18899TIP3    H178188   0.217   5.422  15.106  1.4628  0.1300  0.5656
18899TIP3    H278189   0.256   5.313  15.008 -3.0823 -0.3359 -0.9507
18900TIP3   OH278190   1.130   2.849  14.539 -0.7783  0.4346 -0.2842
18900TIP3    H178191   1.225   2.852  14.551 -1.0087  1.8515  1.5880
18900TIP3    H278192   1.095   2.907  14.606 -3.1224 -1.8443  0.6660
18901TIP3   OH278193   1.816   4.060  12.420  0.0115  0.0744 -0.4095
18901TIP3    H178194   1.898   4.044  12.373  0.6832  0.8566  0.4724
18901TIP3    H278195   1.791   4.149  12.394  0.5564  0.6425  0.9071
18902TIP3   OH278196   5.881   6.621   5.740 -0.1070  0.0008 -0.3598
18902TIP3    H178197   5.834   6.701   5.719 -0.0474  0.2883  0.5421
18902TIP3    H278198   5.831   6.551   5.699 -1.4637  0.2731  0.7670
18903TIP3   OH278199   6.373   5.380  16.197 -0.0078 -0.4329 -0.0463
18903TIP3    H178200   6.345   5.355  16.285 -0.0259 -0.7494 -0.1402
18903TIP3    H278201   6.467   5.395  16.206  0.0983 -1.0240 -0.0870
18904TIP3   OH278202   6.236   3.269   0.452  1.1066 -0.5863 -0.6112
18904TIP3    H178203   6.236   3.363   0.465  0.5253 -0.5138 -1.0789
18904TIP3    H278204   6.224   3.257   0.358 -1.0432 -1.1093 -0.3323
18905TIP3   OH278205   5.743   6.377   3.538 -0.5597 -0.1381  0.4357
18905TIP3    H178206   5.792   6.412   3.464  0.2803  0.2231  1.1333
18905TIP3    H278207   5.651   6.380   3.510 -0.1231 -2.2415 -1.4752
18906TIP3   OH278208   5.652   6.118   2.043  0.1601  0.0651 -0.2005
18906TIP3    H178209   5.739   6.083   2.025 -0.7080 -1.5443 -1.5808
18906TIP3    H278210   5.631   6.088   2.132  1.1788  0.8919  0.3379
18907TIP3   OH278211   2.880   1.125   5.624 -0.7317 -0.4861  0.3426
18907TIP3    H178212   2.900   1.033   5.643 -0.7203 -1.3946 -3.3794
18907TIP3    H278213   2.785   1.130   5.630 -1.2677 -2.0684 -3.6489
18908TIP3   OH278214   6.139   5.925  16.227  0.1174  0.5387  0.6330
18908TIP3    H178215   6.099   5.976  16.157  1.9002 -1.8799 -2.3860
18908TIP3    H278216   6.072   5.863  16.253 -0.3302  1.0128  0.6356
18909TIP3   OH278217   3.410   6.206   1.639 -0.2200  0.0132 -0.6821
18909TIP3    H178218   3.485   6.157   1.670 -1.0975 -1.1968 -0.4288
18909TIP3    H278219   3.356   6.142   1.594 -1.9223  0.4875  0.5774
18910TIP3   OH278220   5.264   5.687  12.079 -0.1758  0.1381 -0.0411
18910TIP3    H178221   5.279   5.716  11.989  0.9604 -0.4878 -0.0690
18910TIP3    H278222   5.344   5.710  12.125  0.1226 -1.4826  0.3048
18911TIP3   OH278223   2.390   0.859   1.077 -0.8600 -0.2674 -0.0577
18911TIP3    H178224   2.476   0.900   1.064 -1.6551  1.1962 -0.9565
18911TIP3    H278225   2.353   0.853   0.989 -1.5774 -1.1287  0.2949
18912TIP3   OH278226   2.367   0.660   0.131  0.5779 -0.2575 -0.1112
18912TIP3    H178227   2.280   0.660   0.170  0.2495  3.6889 -0.4769
18912TIP3    H278228   2.410   0.583   0.170 -2.4770 -1.4180  1.3075
18913TIP3   OH278229   4.881   2.274  14.519  0.2721  0.2594 -0.3700
18913TIP3    H178230   4.955   2.214  14.510 -0.8858 -1.4525  0.8155
18913TIP3    H278231   4.892   2.337  14.448  2.3476 -0.4894 -0.7728
18914TIP3   OH278232   4.431   5.070  12.086  0.4538  0.0412  0.0223
18914TIP3    H178233   4.457   5.152  12.043 -1.3778  0.6678  0.0125
18914TIP3    H278234   4.434   5.005  12.016  3.0875 -0.2014  0.2910
18915TIP3   OH278235   5.448   0.552  12.883 -0.1198 -0.0499 -0.1996
18915TIP3    H178236   5.409   0.630  12.843 -0.3469 -0.2868 -0.4462
18915TIP3    H278237   5.489   0.584  12.963 -0.4325  0.2790 -0.1673
18916TIP3   OH278238   3.156   0.026   4.538  0.1306 -0.0898 -0.2662
18916TIP3    H178239   3.140   0.116   4.511  0.9838  0.0342 -0.4035
18916TIP3    H278240   3.142  -0.026   4.459 -0.7326 -0.1270 -0.0946
18917TIP3   OH278241   0.774   4.091  15.695  0.0284  0.2588  0.1163
18917TIP3    H178242   0.761   4.182  15.721  0.2779 -0.0858  1.5495
18917TIP3    H278243   0.702   4.072  15.634 -0.3293  1.2521  0.2231
18918TIP3   OH278244   2.915   1.512   2.989 -0.5373 -0.0422 -0.3936
18918TIP3    H178245   2.849   1.519   2.919 -1.6652 -0.6746  0.5596
18918TIP3    H278246   2.868   1.537   3.068  0.7877  0.8996  0.1279
18919TIP3   OH278247   4.534   3.375  12.472 -0.1539 -1.2427 -0.3603
18919TIP3    H178248   4.461   3.436  12.481  1.0553  0.0186  2.0688
18919TIP3    H278249   4.495   3.295  12.437 -2.7550 -0.6752  0.9820
18920TIP3   OH278250   5.466   6.608  16.044 -0.3374 -0.1243  0.1195
18920TIP3    H178251   5.507   6.684  16.003 -1.7855  0.7125  0.1244
18920TIP3    H278252   5.417   6.644  16.118 -0.4907 -1.1534  0.5348
18921TIP3   OH278253   4.459   0.349   2.831 -0.1161 -0.4897 -0.0341
18921TIP3    H178254   4.509   0.267   2.824  0.7129  0.0845 -1.1531
18921TIP3    H278255   4.485   0.399   2.754 -0.0347  1.1563  1.0185
18922TIP3   OH278256   2.572   6.618   0.182 -0.6919  0.0380 -0.5612
18922TIP3    H178257   2.601   6.530   0.160  1.3103  0.4793  0.0038
18922TIP3    H278258   2.478   6.619   0.165 -0.9585 -2.4938  0.4190
18923TIP3   OH278259   2.955   2.466  12.756  0.5003  0.2508 -0.2920
18923TIP3    H178260   2.969   2.371  12.757  0.3494  0.2334  0.1543
18923TIP3    H278261   2.878   2.478  12.701  0.3309  0.0890 -0.0913
18924TIP3   OH278262   0.723   3.086  15.204 -1.0245 -0.0193  0.7269
18924TIP3    H178263   0.778   3.025  15.154  0.2746 -0.4020  2.5310
18924TIP3    H278264   0.638   3.042  15.210 -1.4397  0.3224 -1.6112
18925TIP3   OH278265   1.881   1.562   4.823 -0.0653  0.3716  0.7419
18925TIP3    H178266   1.966   1.602   4.841 -0.5577  1.3343  0.9889
18925TIP3    H278267   1.901   1.471   4.802  0.9111  0.2732  2.0176
18926TIP3   OH278268   2.267   3.734  11.877  0.0707 -0.2008 -0.1261
18926TIP3    H178269   2.247   3.728  11.784  2.6075 -1.3964 -0.6818
18926TIP3    H278270   2.244   3.648  11.912  0.1342 -0.1156  0.1294
18927TIP3   OH278271   3.241   4.839   5.862 -0.2426 -0.2734 -0.0909
18927TIP3    H178272   3.278   4.910   5.810  1.6109 -0.3415  1.0415
18927TIP3    H278273   3.163   4.878   5.903  0.4236  0.9601  0.0680
18928TIP3   OH278274   2.682   2.773  14.589 -0.3745 -0.1375  0.0130
18928TIP3    H178275   2.670   2.810  14.501  3.0420  2.4436  0.3864
18928TIP3    H278276   2.704   2.681  14.573  0.7701  0.4073 -1.9584
18929TIP3   OH278277   3.511   6.065  16.860  0.3274 -0.3283 -0.0204
18929TIP3    H178278   3.504   6.124  16.935 -0.6662 -1.1912  0.5831
18929TIP3    H278279   3.553   5.987  16.894 -0.1070 -0.7183 -0.3631
18930TIP3   OH278280   5.080   0.987  16.790  0.2448  0.0068  0.0258
18930TIP3    H178281   5.084   1.036  16.708  0.5626  0.7639  0.4775
18930TIP3    H278282   5.040   0.903  16.767 -0.8460  0.6991 -0.6534
18931TIP3   OH278283   6.020   2.746  14.215  0.0332 -0.0661  0.3357
18931TIP3    H178284   6.070   2.783  14.288 -1.9921  0.9102  1.2971
18931TIP3    H278285   6.076   2.759  14.139  0.5973  2.4930  1.0967
18932TIP3   OH278286   2.089   3.773  14.012  0.1273 -0.1136 -0.0517
18932TIP3    H178287   2.045   3.764  14.097  0.5532 -1.0159  0.0949
18932TIP3    H278288   2.123   3.863  14.012  1.0979 -0.4358  1.2415
18933TIP3   OH278289   2.016   1.376   4.334 -0.5415  0.1567  0.2516
18933TIP3    H178290   1.932   1.421   4.344 -0.3348  0.5447  0.2563
18933TIP3    H278291   2.058   1.419   4.260 -0.6877 -0.5736 -0.2680
18934TIP3   OH278292   2.645   2.363  14.132  0.2365  0.3463  0.8904
18934TIP3    H178293   2.612   2.309  14.060  1.1728 -0.5936  1.1494
18934TIP3    H278294   2.727   2.400  14.098 -0.2896  1.4687  0.7901
18935TIP3   OH278295   4.321   2.493   3.669  0.0761  0.3061  0.8286
18935TIP3    H178296   4.328   2.537   3.584 -0.4886  0.6423  0.9515
18935TIP3    H278297   4.263   2.418   3.652  0.5650 -0.0632  0.7534
18936TIP3   OH278298   2.973   6.647  14.063 -0.5631  0.9209  0.3028
18936TIP3    H178299   2.995   6.597  14.142  2.4714  0.1227 -0.8875
18936TIP3    H278300   2.940   6.730  14.096 -0.5949  0.1391  2.3954
18937TIP3   OH278301   4.187   2.116  11.853 -0.1690 -0.0408 -0.1942
18937TIP3    H178302   4.202   2.196  11.801  0.0075  0.1235  0.1046
18937TIP3    H278303   4.274   2.079  11.866 -0.2504 -0.2803 -0.3259
18938TIP3   OH278304   6.654   6.136  12.732  0.2150  0.4559  0.2006
18938TIP3    H178305   6.598   6.173  12.800 -0.0735 -0.1848  0.3242
18938TIP3    H278306   6.595   6.119  12.658 -0.2035 -1.9740  0.9854
18939TIP3   OH278307   5.393   4.874   2.351  0.4359 -0.6414 -0.2750
18939TIP3    H178308   5.447   4.947   2.384  0.9126 -1.2363  0.2841
18939TIP3    H278309   5.424   4.860   2.262 -1.3529  1.4579 -1.3343
18940TIP3   OH278310   0.477   5.303   5.944  0.1185 -0.2616 -0.1108
18940TIP3    H178311   0.451   5.231   5.887 -1.5991  0.0285  0.2428
18940TIP3    H278312   0.396   5.354   5.957  0.9926  0.9863  0.7003
18941TIP3   OH278313   4.273   4.977   3.011 -0.3231 -0.4403  0.8512
18941TIP3    H178314   4.357   4.949   2.974  0.2828  0.1241  1.7487
18941TIP3    H278315   4.216   4.989   2.935  0.8245  0.4705  0.0969
18942TIP3   OH278316   1.337   2.161  10.611  0.1775  0.0089 -0.1769
18942TIP3    H178317   1.399   2.224  10.574 -0.4842  1.3734  0.9384
18942TIP3    H278318   1.382   2.125  10.688  0.2038 -0.2247 -0.2990
18943TIP3   OH278319   3.718   0.886  15.550  0.2907  0.0732  0.1747
18943TIP3    H178320   3.781   0.880  15.478 -0.0518  0.2356 -0.1433
18943TIP3    H278321   3.640   0.926  15.510  0.2063  0.4516  0.7037
18944TIP3   OH278322   0.906   3.710  15.110  0.1258  1.0561 -0.4129
18944TIP3    H178323   0.952   3.737  15.190 -0.3098  0.8202 -0.0787
18944TIP3    H278324   0.867   3.790  15.077 -1.1811  0.8661  0.5865
18945TIP3   OH278325   6.181   0.462  11.495 -0.0736 -0.4151  0.7354
18945TIP3    H178326   6.147   0.479  11.407  0.7757  0.3501  0.5337
18945TIP3    H278327   6.166   0.369  11.509 -2.8823 -0.0269  0.9502
18946TIP3   OH278328   0.974   1.644  17.171 -0.3461  0.0472  0.1693
18946TIP3    H178329   1.054   1.597  17.145 -0.1797 -0.5727  1.7221
18946TIP3    H278330   0.957   1.703  17.097 -0.2257 -1.9782 -1.6036
18947TIP3   OH278331   4.475   2.747   0.356  0.4854 -0.4367 -0.3039
18947TIP3    H178332   4.477   2.818   0.292 -1.1065  2.5965  2.6868
18947TIP3    H278333   4.525   2.780   0.430 -1.2108 -1.9396  1.6413
18948TIP3   OH278334   4.959   5.257   5.482  0.4091 -0.0480 -0.4245
18948TIP3    H178335   5.015   5.319   5.527  0.3010 -0.9361  1.0025
18948TIP3    H278336   4.877   5.258   5.532 -0.5518  0.5687 -1.9398
18949TIP3   OH278337   1.412   1.559   4.855 -0.5788  0.4571  0.3398
18949TIP3    H178338   1.354   1.594   4.923  0.2166  0.5832  0.9887
18949TIP3    H278339   1.492   1.612   4.864 -0.4880  0.5254 -0.7588
18950TIP3   OH278340   0.692   2.325   4.546  0.7545 -0.5145  0.5628
18950TIP3    H178341   0.683   2.293   4.636  0.2391  2.8783  1.8857
18950TIP3    H278342   0.786   2.339   4.536  0.7090  0.1341  0.9997
18951TIP3   OH278343   2.917   2.013   2.975  0.2551 -0.1334 -0.1181
18951TIP3    H178344   2.873   2.093   2.946  1.4437  1.5952  2.4986
18951TIP3    H278345   2.845   1.952   2.992 -0.8468  1.0836 -0.2114
18952TIP3   OH278346   2.805   2.244   0.118  0.6030 -0.5606 -0.4301
18952TIP3    H178347   2.709   2.250   0.111  0.6779 -0.0072 -1.0865
18952TIP3    H278348   2.837   2.295   0.044  1.5017  3.4187  2.4017
18953TIP3   OH278349   0.955   4.721  15.984 -0.0570  0.6863 -0.4321
18953TIP3    H178350   1.033   4.668  16.002 -1.3060 -1.1845 -0.3497
18953TIP3    H278351   0.888   4.658  15.958 -2.0580  2.0596  1.1276
18954TIP3   OH278352   1.740   1.349  14.779 -0.4896 -0.2434 -0.0495
18954TIP3    H178353   1.645   1.336  14.776 -0.4053 -1.0372  0.5431
18954TIP3    H278354   1.767   1.345  14.687 -1.0362  0.0458 -0.2274
18955TIP3   OH278355   6.291   3.190  15.439 -0.3940 -0.0556  0.2425
18955TIP3    H178356   6.254   3.155  15.520 -1.4662  0.2476 -0.0908
18955TIP3    H278357   6.218   3.187  15.376 -0.0834  1.2798 -0.2248
18956TIP3   OH278358   0.103   5.058  11.669  0.0943  0.2766 -0.2334
18956TIP3    H178359   0.018   5.024  11.641  0.7029 -1.0629 -0.5373
18956TIP3    H278360   0.100   5.054  11.764  0.4805 -1.5758 -0.2627
18957TIP3   OH278361   3.886   6.178  12.147  0.0732 -0.2977 -0.3527
18957TIP3    H178362   3.968   6.133  12.168  1.4014  1.7481 -0.8498
18957TIP3    H278363   3.818   6.120  12.181  1.7127 -1.9484  0.3227
18958TIP3   OH278364   6.008   5.984  11.879  0.3300 -0.5081  0.4274
18958TIP3    H178365   6.031   6.058  11.936 -1.1352  0.1944  0.1501
18958TIP3    H278366   6.091   5.955  11.842  1.3612 -1.0438  2.9627
18959TIP3   OH278367   2.211   4.627  13.054 -0.5276 -0.5202 -0.0423
18959TIP3    H178368   2.233   4.602  13.144  0.5142 -0.6528 -0.3278
18959TIP3    H278369   2.173   4.548  13.016  0.0757 -0.8123 -0.0526
18960TIP3   OH278370   4.273   0.207  16.309 -0.0758 -0.2157 -0.1494
18960TIP3    H178371   4.228   0.244  16.233  1.4300  0.0860 -0.9272
18960TIP3    H278372   4.288   0.282  16.366 -1.3561 -0.4696  0.5544
18961TIP3   OH278373   3.724   1.318   4.128 -0.2594 -0.4422 -0.4249
18961TIP3    H178374   3.808   1.284   4.099 -0.5491  0.2023 -2.1630
18961TIP3    H278375   3.694   1.256   4.194  0.8979 -1.4760 -0.8376
18962TIP3   OH278376   2.574   1.969  15.834  0.2191 -0.2226 -0.0441
18962TIP3    H178377   2.627   1.927  15.767 -0.8460 -1.8965  0.1129
18962TIP3    H278378   2.535   1.897  15.884 -0.1877  0.9644  1.4512
18963TIP3   OH278379   5.495   1.322   4.414 -0.1425 -0.7808  0.1229
18963TIP3    H178380   5.425   1.379   4.444 -0.8788 -3.0002  2.9688
18963TIP3    H278381   5.571   1.380   4.406 -1.1350  0.8138  1.6607
18964TIP3   OH278382   6.308   3.232  10.618  0.8030  0.2112 -0.1053
18964TIP3    H178383   6.254   3.244  10.540 -0.4071 -0.2753  0.6199
18964TIP3    H278384   6.360   3.153  10.600 -2.1278 -2.1820  0.9037
18965TIP3   OH278385   5.280   2.864   3.713 -0.3899 -0.7306  0.1510
18965TIP3    H178386   5.225   2.936   3.743 -0.0976 -0.7486  0.7470
18965TIP3    H278387   5.368   2.887   3.743 -0.3188 -1.4078  0.4824
18966TIP3   OH278388   4.807   1.891   5.559 -0.0055 -0.9623 -0.2752
18966TIP3    H178389   4.856   1.914   5.480 -1.0113 -1.7421 -1.1547
18966TIP3    H278390   4.854   1.935   5.630  0.8489 -0.1459 -1.3141
18967TIP3   OH278391   2.398   6.063   2.265  0.5427 -0.6567  0.1674
18967TIP3    H178392   2.315   6.039   2.225 -0.1947 -1.9126  2.2696
18967TIP3    H278393   2.407   6.157   2.248 -1.5777 -0.3850  0.3001
18968TIP3   OH278394   4.343   6.523   5.279 -0.6484  0.0037  0.4238
18968TIP3    H178395   4.290   6.520   5.199  2.1515 -2.5781 -1.5912
18968TIP3    H278396   4.396   6.602   5.269  0.0922 -0.5934 -0.6788
18969TIP3   OH278397   2.148   2.775  12.350  0.2915 -0.5189  0.2775
18969TIP3    H178398   2.209   2.820  12.409  0.1774 -1.4178  1.1153
18969TIP3    H278399   2.091   2.844  12.317  1.8186  0.3647 -0.6166
18970TIP3   OH278400   2.816   5.413  12.535 -0.8192  0.0715  0.0823
18970TIP3    H178401   2.768   5.355  12.595 -0.3209  0.0421  0.4594
18970TIP3    H278402   2.773   5.400  12.450  0.3749 -2.2038 -0.2424
18971TIP3   OH278403   4.737   5.228  14.352 -0.4408 -0.0746 -0.8906
18971TIP3    H178404   4.647   5.200  14.336 -1.1611  2.7036 -2.2934
18971TIP3    H278405   4.790   5.166  14.301 -1.4143 -2.0749  0.3715
18972TIP3   OH278406   4.303   4.737  12.046  0.2870  0.0079  0.3597
18972TIP3    H178407   4.363   4.663  12.034  0.8189  0.5464 -0.4326
18972TIP3    H278408   4.323   4.770  12.133 -0.5988 -1.3256  1.1093
18973TIP3   OH278409   0.793   4.341   1.848  0.6533  0.2042 -0.3666
18973TIP3    H178410   0.781   4.250   1.875  1.8628 -0.2563 -1.2774
18973TIP3    H278411   0.870   4.370   1.896  0.3385  0.7148 -0.1678
18974TIP3   OH278412   0.186   3.671  16.665  0.4893  0.9476  0.3782
18974TIP3    H178413   0.238   3.650  16.587 -2.0848 -1.2120 -0.9105
18974TIP3    H278414   0.225   3.618  16.735  0.4051 -0.2183 -0.4280
18975TIP3   OH278415   5.611   0.279  16.487 -0.2800 -0.0408  0.4553
18975TIP3    H178416   5.576   0.303  16.573 -1.8071 -0.2844 -0.0715
18975TIP3    H278417   5.557   0.206  16.458  0.9063 -0.6653 -0.2668
18976TIP3   OH278418   3.905   3.185  10.555 -0.6141  0.3793  0.2941
18976TIP3    H178419   3.955   3.260  10.525 -1.4371  1.2795  1.0974
18976TIP3    H278420   3.830   3.181  10.496  0.1676 -0.7306 -0.6666
18977TIP3   OH278421   6.468   4.372   4.588 -0.1146  0.4296 -0.1322
18977TIP3    H178422   6.528   4.297   4.589  0.0528  0.5553  1.5355
18977TIP3    H278423   6.381   4.332   4.588 -0.0273  0.2180  0.9005
18978TIP3   OH278424   4.189   0.428   0.908  0.7219 -0.3924  0.0160
18978TIP3    H178425   4.217   0.407   0.818  2.1045 -1.3004  0.6157
18978TIP3    H278426   4.100   0.460   0.899  0.7623 -0.6757 -1.6652
18979TIP3   OH278427   1.286   3.197   4.046 -0.0975 -0.0622 -0.0857
18979TIP3    H178428   1.308   3.181   4.138  0.9595  0.1222 -0.2968
18979TIP3    H278429   1.347   3.142   3.997  1.0124  1.6837 -0.7289
18980TIP3   OH278430   3.335   0.853  11.671  0.1737 -0.0828  0.9024
18980TIP3    H178431   3.373   0.901  11.745 -1.0281  2.4120  0.0220
18980TIP3    H278432   3.242   0.848  11.692  0.2789 -2.2606  1.0227
18981TIP3   OH278433   3.013   0.239   3.570 -0.9432 -0.2046 -0.5140
18981TIP3    H178434   3.085   0.274   3.623 -0.5316 -0.8716 -0.6130
18981TIP3    H278435   2.963   0.316   3.543 -0.0856  0.3064 -0.6927
18982TIP3   OH278436   5.898   5.398   4.912 -0.5325  0.1194  0.0463
18982TIP3    H178437   5.991   5.395   4.934 -0.9918 -0.6256  2.1294
18982TIP3    H278438   5.890   5.472   4.851  1.6083 -0.7074 -1.3415
18983TIP3   OH278439   1.118   5.099   0.386  0.1961 -0.6012  0.3721
18983TIP3    H178440   1.200   5.103   0.337 -0.2762  0.1205 -0.3907
18983TIP3    H278441   1.121   5.015   0.431 -0.0357 -2.0419 -2.1293
18984TIP3   OH278442   1.751   5.934   1.278 -0.1010  0.1089 -0.4799
18984TIP3    H178443   1.832   5.916   1.325 -0.8006 -1.3110  0.2440
18984TIP3    H278444   1.735   6.028   1.292  2.5863  0.9894 -2.6069
18985TIP3   OH278445   2.395   1.467  11.799 -0.0521 -0.3135  0.0521
18985TIP3    H178446   2.320   1.504  11.846 -2.3157 -2.4263 -1.6777
18985TIP3    H278447   2.442   1.416  11.866  1.0948  2.5194  1.6017
18986TIP3   OH278448   5.533   1.226  11.500  0.6950 -0.1019 -0.7573
18986TIP3    H178449   5.460   1.180  11.457  1.2858 -0.4411 -1.4116
18986TIP3    H278450   5.495   1.260  11.581 -0.1630 -0.3786 -1.0306
18987TIP3   OH278451   2.083   0.109  12.443  0.0195  0.1923  1.0590
18987TIP3    H178452   2.108   0.192  12.482  0.0246  1.0590 -0.6880
18987TIP3    H278453   2.074   0.128  12.349 -0.2025 -1.7180  0.6449
18988TIP3   OH278454   5.836   6.397  14.023 -0.1108 -0.1837 -0.0167
18988TIP3    H178455   5.869   6.461  13.960  0.9953 -1.4288 -0.7687
18988TIP3    H278456   5.743   6.387  14.002 -0.2236  0.9159 -0.0887
18989TIP3   OH278457   1.155   6.309   3.983 -0.5203 -0.4960  0.2937
18989TIP3    H178458   1.144   6.358   4.065 -0.5995 -0.7047  0.4099
18989TIP3    H278459   1.123   6.368   3.915  2.4649  0.9479  0.0126
18990TIP3   OH278460   4.784   1.483   3.402 -0.0185  0.4689 -0.5914
18990TIP3    H178461   4.764   1.573   3.429  1.6260  0.7999 -0.3365
18990TIP3    H278462   4.775   1.484   3.307 -1.0662  0.6064 -0.4982
18991TIP3   OH278463   2.018   1.388   3.368 -0.2206 -0.5393  0.0761
18991TIP3    H178464   2.027   1.381   3.273  0.7956 -1.3561  0.2130
18991TIP3    H278465   1.924   1.379   3.384 -0.1759 -2.8966 -0.6851
18992TIP3   OH278466   1.659   1.756  10.604 -0.1367  0.2883 -0.1659
18992TIP3    H178467   1.663   1.716  10.691  0.2423 -0.1330 -0.3700
18992TIP3    H278468   1.603   1.697  10.554  0.3520  0.0609 -0.4447
18993TIP3   OH278469   1.757   3.607   5.476 -0.7622 -0.0621  0.5769
18993TIP3    H178470   1.750   3.546   5.550  0.4366 -0.3730  0.4581
18993TIP3    H278471   1.738   3.554   5.399  0.0324 -0.2504  0.4964
18994TIP3   OH278472   5.924   4.395  14.610  0.0868 -0.8103 -0.4116
18994TIP3    H178473   5.852   4.369  14.552 -0.4451 -0.7195  0.1878
18994TIP3    H278474   5.896   4.479  14.646  0.1279 -1.1448  0.4272
18995TIP3   OH278475   1.944   6.803  13.514 -0.1822  0.0701  0.0684
18995TIP3    H178476   1.900   6.839  13.437 -0.4546  0.3247  0.3374
18995TIP3    H278477   2.027   6.768  13.482 -0.6408 -0.5390 -0.4751
18996TIP3   OH278478   5.568   1.793   2.829 -0.0316 -0.2563  0.3194
18996TIP3    H178479   5.570   1.870   2.886  1.3737 -0.1087  0.1011
18996TIP3    H278480   5.584   1.720   2.889 -2.4539 -0.5715  0.7191
18997TIP3   OH278481   6.813   3.892  17.156  0.0931  0.4232 -0.0598
18997TIP3    H178482   6.852   3.977  17.136  1.6081 -0.3791 -0.6840
18997TIP3    H278483   6.863   3.861  17.232  0.6092 -0.5764 -0.7981
18998TIP3   OH278484   3.569   3.856   5.819 -0.0592  0.2820  0.8791
18998TIP3    H178485   3.519   3.850   5.738 -0.0837  2.6121  0.6764
18998TIP3    H278486   3.566   3.767   5.855 -1.4928 -0.4041 -0.7901
18999TIP3   OH278487   3.147   2.396   3.246  0.6052  0.2874  0.2609
18999TIP3    H178488   3.194   2.476   3.268 -1.4245  1.5806  0.1980
18999TIP3    H278489   3.154   2.342   3.324 -0.7692  1.9622  1.6261
19000TIP3   OH278490   6.416   1.062   4.236 -0.2808  0.6415 -0.0940
19000TIP3    H178491   6.373   0.980   4.210  0.4851  0.1547  0.1290
19000TIP3    H278492   6.416   1.060   4.331  2.7885 -0.8325  0.0180
19001TIP3   OH278493   0.950   3.994  13.598 -0.3843 -0.0846  0.1404
19001TIP3    H178494   0.927   3.967  13.508  0.6360  0.0854 -0.1808
19001TIP3    H278495   0.871   4.037  13.630 -0.6642  0.1326 -0.7906
19002TIP3   OH278496   4.641   1.685  15.046 -0.4125  0.2995 -0.3396
19002TIP3    H178497   4.556   1.683  15.001  0.5625 -0.6604 -2.2815
19002TIP3    H278498   4.690   1.612  15.007  1.6317  1.4212  0.0135
19003TIP3   OH278499   6.315   6.061  14.132 -0.0451 -0.3117 -0.2759
19003TIP3    H178500   6.361   6.006  14.195  0.0371  0.9003  0.7731
19003TIP3    H278501   6.232   6.015  14.116 -0.1968 -0.5010  0.9584
19004TIP3   OH278502   0.430   3.076   3.604 -0.3563  0.1666 -0.6689
19004TIP3    H178503   0.385   3.087   3.688  1.2233 -0.1845  0.2750
19004TIP3    H278504   0.395   2.995   3.568 -2.4306  1.2708 -1.3157
19005TIP3   OH278505   1.709   6.275   5.381  0.3422 -0.0689  0.1279
19005TIP3    H178506   1.722   6.249   5.290 -2.4676  0.0926 -0.4193
19005TIP3    H278507   1.744   6.203   5.433 -1.6854 -2.1590 -1.2217
19006TIP3   OH278508   5.120   6.224  14.597 -0.6637 -0.0064 -0.5772
19006TIP3    H178509   5.140   6.314  14.624 -2.3504  1.1505 -2.8077
19006TIP3    H278510   5.025   6.223  14.586 -0.5304 -1.6616 -1.9582
19007TIP3   OH278511   4.264   2.020  12.813  0.5850 -0.1785 -0.7954
19007TIP3    H178512   4.334   2.003  12.875  1.3786 -0.7890 -1.8323
19007TIP3    H278513   4.252   2.115  12.816  0.4358 -0.2159  0.4422
19008TIP3   OH278514   4.360   4.353   6.010  0.2956 -0.1013  0.0508
19008TIP3    H178515   4.329   4.268   6.042  0.6588 -0.3312 -0.1998
19008TIP3    H278516   4.385   4.400   6.090 -2.4096  0.8239  0.4606
19009TIP3   OH278517   4.420   3.529   2.030 -0.0126  0.2880  0.2166
19009TIP3    H178518   4.477   3.543   2.106  0.4142  0.4578 -0.1313
19009TIP3    H278519   4.415   3.434   2.022  0.5541  0.2717  0.0082
19010TIP3   OH278520   4.677   5.570  16.043  0.2267 -0.2793  0.4861
19010TIP3    H178521   4.724   5.547  16.123 -1.5031 -2.2245  1.0534
19010TIP3    H278522   4.607   5.628  16.073 -0.5747 -1.2098  0.4713
19011TIP3   OH278523   1.448   6.191  16.516  0.0884 -0.0223 -0.2768
19011TIP3    H178524   1.521   6.239  16.557  1.2405 -1.8747 -0.0705
19011TIP3    H278525   1.395   6.260  16.475  0.5061  1.6255  1.7796
19012TIP3   OH278526   3.972   3.081  12.152 -0.2178  0.7384 -0.1055
19012TIP3    H178527   3.987   3.022  12.078 -0.0962  0.3166  0.2490
19012TIP3    H278528   3.978   3.024  12.229 -0.9213  1.0628  0.1958
19013TIP3   OH278529   4.926   5.608  12.819  0.5847 -0.3359 -0.4210
19013TIP3    H178530   4.956   5.696  12.841  0.5464 -0.3856 -0.1721
19013TIP3    H278531   5.004   5.563  12.786  0.5405 -0.1138 -0.8449
19014TIP3   OH278532   6.293   5.724  14.426 -0.3963 -0.6642  0.0533
19014TIP3    H178533   6.285   5.678  14.342  0.4610  0.6057 -0.7468
19014TIP3    H278534   6.335   5.807  14.405 -1.4682  0.3017  1.5466
19015TIP3   OH278535   4.365   1.362   1.671 -0.8485  0.0612  0.1467
19015TIP3    H178536   4.373   1.329   1.761 -0.3885  0.0682  0.1107
19015TIP3    H278537   4.290   1.421   1.674 -2.4824 -1.9019 -0.0626
19016TIP3   OH278538   3.470   6.511   5.733  0.6283 -0.2999 -0.7114
19016TIP3    H178539   3.470   6.549   5.820  0.4407 -1.1434 -0.3274
19016TIP3    H278540   3.488   6.584   5.674  1.8398  0.0942  0.1165
19017TIP3   OH278541   2.025   6.059   1.177  0.1614 -0.0097 -0.7905
19017TIP3    H178542   2.036   5.994   1.246  1.0450  0.2128 -0.7158
19017TIP3    H278543   2.106   6.055   1.126  0.5668  1.5538 -0.3254
19018TIP3   OH278544   6.306   1.637  12.406 -0.1549  0.0539 -0.4117
19018TIP3    H178545   6.388   1.635  12.454  0.8499  1.6114 -1.9655
19018TIP3    H278546   6.331   1.633  12.314 -1.7718  0.9640 -0.9490
19019TIP3   OH278547   5.573   1.260  12.563  0.3572 -0.3160  0.5505
19019TIP3    H178548   5.653   1.236  12.517  0.4263  0.0385  0.4834
19019TIP3    H278549   5.595   1.255  12.656  0.0512 -1.6146  0.5736
19020TIP3   OH278550   2.522   2.901   1.884  0.1359 -0.0115 -0.2196
19020TIP3    H178551   2.587   2.955   1.929 -0.2264  0.0925  0.1817
19020TIP3    H278552   2.562   2.883   1.798  0.2924  0.8345 -0.3355
19021TIP3   OH278553   3.346   4.131  15.721  0.0477  0.4422 -0.7625
19021TIP3    H178554   3.393   4.208  15.691  1.6068 -0.6877 -1.3855
19021TIP3    H278555   3.329   4.081  15.641 -0.2521 -0.2126 -0.2956
19022TIP3   OH278556   5.697   1.412  16.746  0.5028  0.3108  0.0611
19022TIP3    H178557   5.711   1.345  16.813  0.9213  0.1617 -0.1710
19022TIP3    H278558   5.620   1.461  16.776 -2.0708 -2.4521 -1.4593
19023TIP3   OH278559   0.293   6.048  12.860 -0.0387 -0.0349  0.5729
19023TIP3    H178560   0.199   6.067  12.862 -0.0116  0.1438  0.1590
19023TIP3    H278561   0.333   6.115  12.915  0.1065  1.4331 -1.2338
19024TIP3   OH278562   0.590   4.564   0.551 -0.0197 -0.2548  0.3569
19024TIP3    H178563   0.551   4.477   0.556  0.6105 -0.4911  1.5425
19024TIP3    H278564   0.578   4.590   0.460 -1.6772 -0.8853  0.3641
19025TIP3   OH278565   4.973   3.350   3.920 -0.0846  0.0074 -0.3007
19025TIP3    H178566   4.891   3.302   3.910 -0.4668  0.6247 -0.1467
19025TIP3    H278567   4.997   3.375   3.831 -0.4706  0.4964 -0.2709
19026TIP3   OH278568   5.569   6.006  15.103 -0.0940  0.2022 -0.7822
19026TIP3    H178569   5.521   6.076  15.148 -1.1118 -1.3244  0.6406
19026TIP3    H278570   5.508   5.974  15.037 -0.3589 -0.5198 -0.2057
19027TIP3   OH278571   6.755   0.020  14.781  0.1233 -0.3042 -0.4039
19027TIP3    H178572   6.714  -0.063  14.758  1.0036 -0.6591 -0.7299
19027TIP3    H278573   6.830   0.028  14.722  1.3458 -0.3404  1.0711
19028TIP3   OH278574   1.957   1.258  14.909  0.3298  0.2792 -0.1617
19028TIP3    H178575   1.968   1.205  14.830 -0.3516 -0.5931  0.3089
19028TIP3    H278576   1.886   1.319  14.887 -1.3825 -1.4056  0.4657
19029TIP3   OH278577   4.632   0.534   0.733 -0.1834  0.6032 -0.0047
19029TIP3    H178578   4.576   0.456   0.730  1.0104 -0.2809 -2.5975
19029TIP3    H278579   4.578   0.603   0.695  0.4209 -0.3004 -2.7225
19030TIP3   OH278580   1.422   6.583   5.681  0.1342 -0.0536 -0.0539
19030TIP3    H178581   1.439   6.540   5.764  0.4271 -3.7085 -1.8121
19030TIP3    H278582   1.508   6.595   5.641  0.0042  1.6983  0.1246
19031TIP3   OH278583   6.703   5.174   4.765  0.1466  0.2233 -0.1205
19031TIP3    H178584   6.637   5.160   4.697 -0.0375  1.3863 -0.2155
19031TIP3    H278585   6.684   5.263   4.798  0.8116  0.0406  0.8013
19032TIP3   OH278586   0.434   5.304  14.605 -0.2799 -0.4423  0.2029
19032TIP3    H178587   0.502   5.263  14.658 -0.1329 -0.5480 -0.0629
19032TIP3    H278588   0.478   5.325  14.522 -0.8086 -1.4067 -0.3412
19033TIP3   OH278589   0.033   5.662  12.683 -0.2350  0.4541 -0.0631
19033TIP3    H178590   0.033   5.569  12.661  1.0526  0.1708  0.9964
19033TIP3    H278591   0.072   5.705  12.606 -0.3270  0.0583 -0.3338
19034TIP3   OH278592   2.298   3.377  11.049  0.0994  0.1984  0.2650
19034TIP3    H178593   2.253   3.461  11.057 -0.5254 -0.0202 -0.8779
19034TIP3    H278594   2.369   3.393  10.987  0.4813  0.0759  0.6627
19035TIP3   OH278595   2.668   2.594   2.252 -0.5015  0.1625  0.1725
19035TIP3    H178596   2.662   2.543   2.171 -0.0038 -1.3943  1.0551
19035TIP3    H278597   2.724   2.668   2.230  0.4626 -0.7765 -0.6846
19036TIP3   OH278598   3.830   3.204  15.021  0.3562 -0.5093 -0.5248
19036TIP3    H178599   3.909   3.250  15.049 -1.0560  0.9182  1.3942
19036TIP3    H278600   3.861   3.118  14.992  2.5345 -0.2672  0.8563
19037TIP3   OH278601   6.533   6.219  11.541 -0.1735 -0.3843 -0.3194
19037TIP3    H178602   6.514   6.289  11.604  1.6360 -1.4436  1.5152
19037TIP3    H278603   6.566   6.264  11.464  0.3990  0.8229  0.6075
19038TIP3   OH278604   2.455   6.584   5.077  0.3196  0.4058  0.2363
19038TIP3    H178605   2.431   6.491   5.069  3.4246 -0.5204  0.1524
19038TIP3    H278606   2.493   6.591   5.164  0.9469  1.3731 -0.1035
19039TIP3   OH278607   4.557   0.200   3.881 -0.1872 -0.3003 -0.1014
19039TIP3    H178608   4.519   0.134   3.824 -1.1168  0.7681 -0.7630
19039TIP3    H278609   4.499   0.276   3.872  0.6677  0.5023  0.8769
19040TIP3   OH278610   0.844   6.475   4.027  0.1480 -0.1123 -0.2712
19040TIP3    H178611   0.840   6.470   4.122 -2.3866 -2.3805 -0.3746
19040TIP3    H278612   0.769   6.424   3.997  0.2195  1.4183 -3.5056
19041TIP3   OH278613   5.795   5.366   4.455  0.2765 -0.5082  0.0830
19041TIP3    H178614   5.875   5.350   4.506  0.0764 -1.6886  0.0535
19041TIP3    H278615   5.812   5.325   4.371  0.1280  0.3681 -0.3797
19042TIP3   OH278616   1.598   0.814   4.699  0.1027  0.2053  0.1901
19042TIP3    H178617   1.546   0.886   4.735 -0.3737  0.2768 -0.6085
19042TIP3    H278618   1.568   0.736   4.745 -0.9219  0.2066 -0.4415
19043TIP3   OH278619   6.200   2.632  16.184 -0.3383 -0.6963  0.0201
19043TIP3    H178620   6.224   2.572  16.254  0.9157  2.0836  2.1653
19043TIP3    H278621   6.233   2.591  16.104  2.9149 -1.6534  1.6981
19044TIP3   OH278622   1.190   4.709  14.115 -0.5668  0.1919 -0.3138
19044TIP3    H178623   1.112   4.763  14.108 -0.3451  0.6652  0.6652
19044TIP3    H278624   1.189   4.655  14.036 -2.0206 -0.0132 -0.1773
19045TIP3   OH278625   2.444   3.394  16.637 -0.1371  0.3556  0.1083
19045TIP3    H178626   2.379   3.432  16.578 -0.1815  1.3038  0.7518
19045TIP3    H278627   2.528   3.421  16.601 -0.1133 -0.3060 -0.3446
19046TIP3   OH278628   4.748   4.811   2.666  0.6286 -0.1993  0.0963
19046TIP3    H178629   4.680   4.744   2.658 -1.1185  1.3940  0.8379
19046TIP3    H278630   4.771   4.811   2.758  2.2918 -1.2912 -0.2870
19047TIP3   OH278631   6.684   0.838   6.246  0.1417  0.7261 -0.1428
19047TIP3    H178632   6.654   0.748   6.234  0.6284  0.7024 -1.2255
19047TIP3    H278633   6.616   0.878   6.301 -0.3940 -0.1190 -0.1686
19048TIP3   OH278634   3.771   3.979  15.837  0.1286  0.4270  0.3904
19048TIP3    H178635   3.741   4.062  15.802  0.4036  0.1294 -0.5937
19048TIP3    H278636   3.710   3.914  15.802 -0.5967  0.2827  1.8324
19049TIP3   OH278637   3.636   5.717   6.156  0.0034 -0.3264 -0.4789
19049TIP3    H178638   3.633   5.796   6.102 -0.0682 -0.7546 -1.1189
19049TIP3    H278639   3.567   5.729   6.221  1.7465  1.3405  1.1684
19050TIP3   OH278640   4.361   5.080  14.056  0.8366  0.1019 -0.9659
19050TIP3    H178641   4.361   5.064  13.962  0.3066  0.4782 -1.0281
19050TIP3    H278642   4.318   5.164  14.067 -0.3107 -0.5464 -0.2890
19051TIP3   OH278643   0.688   0.456  14.847  0.0732  0.0015  0.0362
19051TIP3    H178644   0.712   0.474  14.938  0.0786  2.5402 -0.3969
19051TIP3    H278645   0.751   0.389  14.819  2.0183  1.2963  1.0623
19052TIP3   OH278646   3.793   4.933  13.150 -0.2281 -0.5720  0.6138
19052TIP3    H178647   3.725   4.996  13.127 -1.5978 -1.3739  2.2421
19052TIP3    H278648   3.826   4.901  13.066 -0.8492  0.8784 -0.2159
19053TIP3   OH278649   1.559   4.726  16.196 -0.3798 -0.1572  0.3294
19053TIP3    H178650   1.626   4.681  16.144 -1.5149 -0.0918 -1.2919
19053TIP3    H278651   1.496   4.657  16.218 -0.7571  0.1257  0.1535
19054TIP3   OH278652   3.898   0.649  11.002 -0.0053 -0.2834 -0.4732
19054TIP3    H178653   3.888   0.561  10.966  1.6334  0.1551 -2.0966
19054TIP3    H278654   3.954   0.696  10.940 -0.5179  1.8150  0.5290
19055TIP3   OH278655   4.036   6.062  10.587 -0.0520 -0.4443 -0.9067
19055TIP3    H178656   4.131   6.063  10.596 -0.1754  0.6960  0.5882
19055TIP3    H278657   4.015   6.141  10.538 -0.2687 -0.3205 -0.6204
19056TIP3   OH278658   4.119   6.538  17.057 -0.3419 -0.3318 -0.0223
19056TIP3    H178659   4.060   6.612  17.039 -1.5012 -0.7008  2.0194
19056TIP3    H278660   4.066   6.476  17.107  1.2062 -1.6361  0.0736
19057TIP3   OH278661   1.266   3.574   5.751 -0.1897  0.2966  0.2338
19057TIP3    H178662   1.351   3.618   5.749  1.5999 -2.8470  0.7358
19057TIP3    H278663   1.280   3.497   5.806 -2.8807 -1.2708 -1.0702
19058TIP3   OH278664   3.179   6.362  14.599 -0.4732  0.1248  0.0979
19058TIP3    H178665   3.189   6.441  14.651 -0.5415  0.1172  0.1237
19058TIP3    H278666   3.258   6.358  14.545 -1.1768  1.0776 -1.0571
19059TIP3   OH278667   5.777   6.160  12.946  0.1026  0.2369 -0.8264
19059TIP3    H178668   5.720   6.217  12.997 -0.4579 -2.7871  2.2990
19059TIP3    H278669   5.864   6.171  12.984  0.2255 -0.1059 -0.9969
19060TIP3   OH278670   3.232   5.324  16.528 -0.7961 -0.0514 -0.5512
19060TIP3    H178671   3.300   5.315  16.594 -0.8892  1.0355 -0.2993
19060TIP3    H278672   3.226   5.237  16.488  1.4196  0.0430 -1.2407
19061TIP3   OH278673   1.485   6.063  10.953 -0.0467  0.4395 -0.3752
19061TIP3    H178674   1.514   6.069  10.862 -1.2457 -0.9750 -0.9082
19061TIP3    H278675   1.410   6.123  10.959  0.0248  0.5238 -0.3264
19062TIP3   OH278676   4.476   4.720   2.670 -0.0597  0.6651  0.2752
19062TIP3    H178677   4.465   4.628   2.694  2.4436  0.0603 -0.5551
19062TIP3    H278678   4.389   4.749   2.644 -0.7928 -1.6556 -0.0833
19063TIP3   OH278679   2.384   3.098  12.951 -0.2342 -0.3398  0.2501
19063TIP3    H178680   2.350   3.106  13.040  2.2495  0.5674  1.1995
19063TIP3    H278681   2.404   3.005  12.941  1.4907 -0.1417  1.5013
19064TIP3   OH278682   2.329   1.428  15.949 -0.1794 -0.4208 -0.0670
19064TIP3    H178683   2.239   1.405  15.927  0.7538 -2.2096 -2.4969
19064TIP3    H278684   2.369   1.347  15.980  0.5568  0.4208  1.3016
19065TIP3   OH278685   2.606   1.366   0.087 -0.4522  0.5974  0.3120
19065TIP3    H178686   2.679   1.400   0.035 -2.0728  0.9968 -1.8553
19065TIP3    H278687   2.536   1.430   0.075 -3.2204 -2.5876 -2.8859
19066TIP3   OH278688   2.632   2.893  14.358  0.0981 -0.0020 -0.3952
19066TIP3    H178689   2.558   2.952  14.344  0.6053  0.4923 -1.0289
19066TIP3    H278690   2.668   2.878  14.271  0.2827 -0.8545 -0.1800
19067TIP3   OH278691   4.780   3.188  11.465 -0.2572  1.0325  0.3558
19067TIP3    H178692   4.709   3.248  11.487  0.4499  1.8292  0.5094
19067TIP3    H278693   4.832   3.235  11.399  0.8072  0.9721  1.1255
19068TIP3   OH278694   4.178   2.576  11.420  0.4601  0.0161  0.0910
19068TIP3    H178695   4.096   2.608  11.459  0.2267 -0.9781  0.4473
19068TIP3    H278696   4.149   2.508  11.359  1.0656 -0.8181  0.7250
19069TIP3   OH278697   4.886   0.470  15.096  0.5208 -0.2665 -0.5268
19069TIP3    H178698   4.868   0.515  15.179  3.7866 -1.6642  1.0798
19069TIP3    H278699   4.980   0.479  15.083  0.9951 -4.5289 -1.3500
19070TIP3   OH278700   0.950   4.411   1.404  0.5793 -1.1448  0.4177
19070TIP3    H178701   1.021   4.396   1.466  0.2997  1.2457  1.4286
19070TIP3    H278702   0.879   4.355   1.435  0.7768 -0.7194  1.7015
19071TIP3   OH278703   6.744   4.470  16.157 -0.3618  0.1966 -0.3584
19071TIP3    H178704   6.817   4.407  16.157 -0.6676 -0.1656 -0.5932
19071TIP3    H278705   6.721   4.480  16.064 -1.8419 -1.1582 -0.1819
19072TIP3   OH278706   6.573   6.385  13.312 -0.3288  0.7857  0.3620
19072TIP3    H178707   6.499   6.430  13.272 -0.2606  1.8948  1.4216
19072TIP3    H278708   6.543   6.363  13.400  0.7221  1.6372  0.9600
19073TIP3   OH278709   3.102   4.393   1.729  0.1915  0.4644  0.0798
19073TIP3    H178710   3.185   4.349   1.709 -0.7912 -1.7145  0.5626
19073TIP3    H278711   3.086   4.374   1.821 -0.6147  1.3075  0.1309
19074TIP3   OH278712   4.347   5.483   5.266 -0.2651 -0.0185  0.4194
19074TIP3    H178713   4.276   5.421   5.285  0.5226 -0.9904  0.2223
19074TIP3    H278714   4.347   5.490   5.171  1.8660 -2.4347  0.1421
19075TIP3   OH278715   6.746   4.316   0.193  0.4504 -0.1085  0.7222
19075TIP3    H178716   6.813   4.293   0.129  0.2770 -0.0527  0.5199
19075TIP3    H278717   6.699   4.389   0.153 -0.0256 -0.4447  0.6655
19076TIP3   OH278718   2.751   3.425   1.872 -0.0470 -0.1296 -0.3640
19076TIP3    H178719   2.842   3.454   1.857 -0.4029  0.7687 -0.8865
19076TIP3    H278720   2.749   3.402   1.965  0.9986 -1.2246 -0.5901
19077TIP3   OH278721   0.954   3.138   4.555 -0.4250  0.2090 -0.2499
19077TIP3    H178722   1.009   3.084   4.499 -0.0858 -0.2880  0.5470
19077TIP3    H278723   0.952   3.223   4.511 -0.9507 -0.4274 -1.5095
19078TIP3   OH278724   2.415   5.233   2.829  0.0974  0.2411  0.8826
19078TIP3    H178725   2.337   5.283   2.805  0.8806  1.8333  1.4705
19078TIP3    H278726   2.387   5.178   2.902 -1.6038 -2.6641 -1.7590
19079TIP3   OH278727   3.595   0.633   0.276  0.0990 -0.3815 -0.2655
19079TIP3    H178728   3.559   0.708   0.322  0.2731  0.8932 -2.0995
19079TIP3    H278729   3.643   0.584   0.343  0.1396  1.2236  0.9280
19080TIP3   OH278730   5.242   0.669  13.538 -0.1527 -0.1577  0.4156
19080TIP3    H178731   5.224   0.730  13.466  2.2945 -0.4029 -0.4935
19080TIP3    H278732   5.196   0.589  13.514  0.4689 -0.1688 -0.8042
19081TIP3   OH278733   5.407   0.239   1.991  0.1844  0.1451  0.2923
19081TIP3    H178734   5.342   0.223   2.059  0.7634  0.4099  0.9070
19081TIP3    H278735   5.461   0.311   2.024  2.5750 -1.8545  1.0839
19082TIP3   OH278736   0.683   3.766   4.650  0.1154 -0.3658 -0.0153
19082TIP3    H178737   0.718   3.693   4.598  1.3488  0.1084  0.1148
19082TIP3    H278738   0.739   3.769   4.727 -0.1446  0.5106  0.1442
19083TIP3   OH278739   1.948   6.536  14.860  0.2843  0.5251  0.6159
19083TIP3    H178740   1.982   6.461  14.910 -0.6727 -0.5727 -0.3346
19083TIP3    H278741   1.938   6.605  14.926  2.5668  0.3301  1.2620
19084TIP3   OH278742   5.816   2.501  15.671  0.1855  0.4285 -0.4987
19084TIP3    H178743   5.864   2.489  15.589  0.2971 -0.8851 -0.2614
19084TIP3    H278744   5.752   2.569  15.652  0.5377  0.4872 -1.5266
19085TIP3   OH278745   0.846   4.524   5.371 -0.5046  0.6199 -0.1161
19085TIP3    H178746   0.931   4.518   5.414 -1.4222  0.3571  1.7451
19085TIP3    H278747   0.805   4.602   5.409 -1.0351  0.8625 -1.1469
19086TIP3   OH278748   2.803   6.128  14.357  0.1272  0.1260 -0.5302
19086TIP3    H178749   2.751   6.205  14.336  0.5969  0.9033  0.9932
19086TIP3    H278750   2.881   6.162  14.401 -0.6549 -1.2682  2.1679
19087TIP3   OH278751   4.506   1.202   4.604 -0.5690  0.1742  0.2074
19087TIP3    H178752   4.485   1.265   4.534  0.0525 -0.4192 -0.5354
19087TIP3    H278753   4.585   1.239   4.645  0.0506 -0.3188 -0.5099
19088TIP3   OH278754   4.160   5.874  11.692 -0.5814 -0.1052  0.1673
19088TIP3    H178755   4.118   5.790  11.708 -1.3298  0.0756 -0.7664
19088TIP3    H278756   4.143   5.925  11.771 -2.6940  0.1762 -0.4107
19089TIP3   OH278757   1.102   1.237   4.013 -0.2983  0.0436 -0.7731
19089TIP3    H178758   1.148   1.320   4.015  2.6500 -1.4614  1.6476
19089TIP3    H278759   1.049   1.236   4.093  0.1359 -0.5896 -0.4795
19090TIP3   OH278760   0.673   0.439   1.087  0.2457 -0.5125  0.4999
19090TIP3    H178761   0.728   0.395   1.152 -1.3326  1.6290  3.5087
19090TIP3    H278762   0.594   0.385   1.083  0.1862 -0.4344  0.6345
19091TIP3   OH278763   6.065   1.760  13.314  0.4605  0.0146  0.0157
19091TIP3    H178764   6.148   1.727  13.348  0.0611 -1.3470 -0.2871
19091TIP3    H278765   6.083   1.779  13.222  0.8824  1.3927  0.3520
19092TIP3   OH278766   2.662   0.731   5.560 -0.5200 -0.2871 -0.2089
19092TIP3    H178767   2.731   0.779   5.514 -0.8165  0.4460  0.0779
19092TIP3    H278768   2.583   0.750   5.510 -0.8203  0.4000  0.4936
19093TIP3   OH278769   4.722   4.116   4.733 -0.9129 -0.1555  0.6433
19093TIP3    H178770   4.784   4.144   4.800 -1.4322  0.4447  0.8831
19093TIP3    H278771   4.757   4.033   4.701  0.2315  0.3652  0.4809
19094TIP3   OH278772   6.119   1.456  12.304 -0.2721 -0.3496  0.6440
19094TIP3    H178773   6.173   1.510  12.362  1.9983 -1.0139 -0.7037
19094TIP3    H278774   6.128   1.497  12.217  0.0493 -1.8239 -0.0589
19095TIP3   OH278775   0.637   2.481  16.691  0.2150  0.2405  0.4807
19095TIP3    H178776   0.728   2.505  16.710  0.3740 -0.6105  0.8287
19095TIP3    H278777   0.644   2.412  16.624 -0.1302 -0.4674  1.1620
19096TIP3   OH278778   5.543   0.272  12.146 -0.0381  0.0371  0.6655
19096TIP3    H178779   5.549   0.243  12.237  1.4148  0.3655  0.7088
19096TIP3    H278780   5.576   0.362  12.148 -0.1397  0.0970 -0.1598
19097TIP3   OH278781   1.834   3.783   0.964 -0.2901 -0.1642  0.3487
19097TIP3    H178782   1.815   3.855   0.904  0.5483  0.2139  0.5234
19097TIP3    H278783   1.852   3.708   0.908  0.9204  0.2970  0.1091
19098TIP3   OH278784   1.115   6.647  12.098  0.5235  0.8398  0.0693
19098TIP3    H178785   1.112   6.743  12.097 -1.8239  0.8161  0.3093
19098TIP3    H278786   1.102   6.624  12.190  1.5619  0.2652  0.0878
19099TIP3   OH278787   2.140   3.856  11.049  0.0064  0.1079 -0.5353
19099TIP3    H178788   2.235   3.870  11.052 -0.1095  0.7421  0.6498
19099TIP3    H278789   2.108   3.922  10.989  0.3936 -0.6893 -1.6589
19100TIP3   OH278790   3.969   4.857   0.963 -0.2537 -0.6334 -0.4660
19100TIP3    H178791   3.970   4.953   0.958 -2.3040 -0.5517 -0.4421
19100TIP3    H278792   3.937   4.838   1.051 -1.1375 -1.2880 -0.9129
19101TIP3   OH278793   2.580   4.993  12.453  0.6130 -0.1315  0.0688
19101TIP3    H178794   2.586   4.910  12.499  0.6849 -1.3240 -1.9571
19101TIP3    H278795   2.492   5.025  12.470  1.1244  0.2428  2.2121
19102TIP3   OH278796   4.709   3.223   1.523  0.2480 -0.5684  0.4741
19102TIP3    H178797   4.748   3.187   1.443 -0.7064 -0.7152  0.0581
19102TIP3    H278798   4.742   3.168   1.593  0.9640 -0.5465  0.1643
19103TIP3   OH278799   3.715   4.744  16.357 -0.1109  0.5235 -0.3331
19103TIP3    H178800   3.656   4.722  16.428 -0.1776  1.0008 -0.2402
19103TIP3    H278801   3.669   4.811  16.306  1.2171  2.5619  0.9934
19104TIP3   OH278802   5.292   6.252   3.916 -0.2079  0.0541  0.3477
19104TIP3    H178803   5.203   6.273   3.943 -0.4819  1.0595 -1.2079
19104TIP3    H278804   5.282   6.183   3.850  0.2132 -0.3065  0.6559
19105TIP3   OH278805   0.583   6.602   4.198  0.6613  0.7167  0.4422
19105TIP3    H178806   0.656   6.607   4.259  0.9616 -0.6335  0.2180
19105TIP3    H278807   0.562   6.509   4.192 -1.6492  1.1153  1.1469
19106TIP3   OH278808   2.366   1.927   2.017 -0.5005 -0.4417  0.6185
19106TIP3    H178809   2.299   1.991   2.040 -0.2505  0.2247 -0.4729
19106TIP3    H278810   2.376   1.874   2.097 -0.6809  0.8815  1.5621
19107TIP3   OH278811   6.452   4.221   1.538 -0.2205  0.1551 -0.3877
19107TIP3    H178812   6.409   4.300   1.570 -0.2445 -0.1041  0.2337
19107TIP3    H278813   6.430   4.217   1.445  2.4313  2.6508 -1.2643
19108TIP3   OH278814   0.374   2.664  13.610 -0.0751  0.6595 -0.0236
19108TIP3    H178815   0.307   2.716  13.567  0.5307  1.7475  0.3080
19108TIP3    H278816   0.426   2.728  13.660  0.7231 -0.2500  0.3438
19109TIP3   OH278817   6.497   5.498  13.578 -0.3882 -0.4922 -0.2733
19109TIP3    H178818   6.497   5.431  13.510  2.5950 -2.5923  1.5551
19109TIP3    H278819   6.533   5.576  13.535 -0.1855 -1.2384 -1.5006
19110TIP3   OH278820   3.438   2.234   0.247 -0.3080 -0.5713 -0.2891
19110TIP3    H178821   3.409   2.297   0.181 -0.1893 -0.5482 -0.3199
19110TIP3    H278822   3.469   2.288   0.319  0.0568 -0.5927 -0.4306
19111TIP3   OH278823   3.647   0.613  12.285  0.1927  0.7475 -0.4696
19111TIP3    H178824   3.686   0.525  12.280 -3.3258 -1.1666  1.3968
19111TIP3    H278825   3.707   0.663  12.339  1.5601 -0.9996 -0.2829
19112TIP3   OH278826   3.072   0.902  11.736  0.2762  0.1146 -0.3147
19112TIP3    H178827   3.041   0.988  11.765  3.2410  1.0868  0.3401
19112TIP3    H278828   3.068   0.847  11.814 -0.2726  0.0594 -0.3782
19113TIP3   OH278829   5.791   6.559  11.628 -0.5469  0.5242  0.0102
19113TIP3    H178830   5.791   6.520  11.716  1.4031  0.6285  0.0996
19113TIP3    H278831   5.852   6.504  11.578 -2.2933 -0.0920 -1.5845
19114TIP3   OH278832   3.489   3.638  14.094 -0.1327  0.5233 -0.2740
19114TIP3    H178833   3.568   3.590  14.069  0.3797  1.5603 -0.6934
19114TIP3    H278834   3.508   3.673  14.181 -0.3638  0.2910 -0.1266
19115TIP3   OH278835   2.932   2.491   4.271 -0.3211 -0.1603 -0.4956
19115TIP3    H178836   2.852   2.542   4.260  0.2225  0.5523 -1.2045
19115TIP3    H278837   2.901   2.400   4.277 -1.1871  0.1148 -0.6299
19116TIP3   OH278838   0.063   1.275   1.952 -0.0221  0.3077 -0.0746
19116TIP3    H178839   0.012   1.212   1.901  0.8679 -1.0603  0.6654
19116TIP3    H278840   0.084   1.344   1.889  2.6126 -2.1803 -2.2213
19117TIP3   OH278841   6.557   0.602   0.863  0.1648  0.0770 -0.3210
19117TIP3    H178842   6.549   0.571   0.772 -1.1038 -0.2984 -0.1118
19117TIP3    H278843   6.466   0.619   0.890  0.3709 -1.2335  1.3539
19118TIP3   OH278844   1.473   1.467   1.153  0.2269  0.6500 -0.1187
19118TIP3    H178845   1.450   1.377   1.176  2.4726  0.3090  1.1274
19118TIP3    H278846   1.453   1.473   1.060  0.7790 -1.4326 -0.4328
19119TIP3   OH278847   6.561   4.232  14.337  0.4073  0.0434  0.0440
19119TIP3    H178848   6.547   4.242  14.431  0.2177  3.1550 -0.2100
19119TIP3    H278849   6.601   4.314  14.310  0.3977 -0.7367 -2.6351
19120TIP3   OH278850   0.896   0.209   5.274  0.1607 -0.5416  0.2735
19120TIP3    H178851   0.959   0.205   5.201 -1.0119 -0.1407 -0.7925
19120TIP3    H278852   0.838   0.281   5.251 -0.1202 -0.2914  1.7198
19121TIP3   OH278853   1.161   1.764  16.160 -0.1242 -0.2877 -0.2788
19121TIP3    H178854   1.221   1.702  16.202 -1.6543 -1.4410  0.2860
19121TIP3    H278855   1.075   1.741  16.194 -0.7129  2.5466  0.4213
19122TIP3   OH278856   2.338   1.375   0.892  0.2227 -0.3016 -0.0028
19122TIP3    H178857   2.363   1.341   0.806  1.7063 -0.3243  0.4053
19122TIP3    H278858   2.349   1.301   0.951  2.3226  0.4661  0.6928
19123TIP3   OH278859   3.853   2.163   3.468  0.5712 -0.2476 -0.0493
19123TIP3    H178860   3.867   2.162   3.373 -2.7261 -1.6296 -0.6422
19123TIP3    H278861   3.864   2.072   3.494 -0.5046 -0.2148  0.5429
19124TIP3   OH278862   4.553   2.479   2.258 -0.1660 -0.1475  0.4975
19124TIP3    H178863   4.459   2.488   2.244  0.1979  0.6926 -1.8988
19124TIP3    H278864   4.573   2.389   2.233  0.0600  0.5864 -2.4298
19125TIP3   OH278865   3.916   2.583   3.020  0.4353 -0.4104 -0.0470
19125TIP3    H178866   3.876   2.515   2.965 -0.4713  1.1627 -1.3975
19125TIP3    H278867   3.853   2.597   3.091 -0.6987  0.9018 -1.2691
19126TIP3   OH278868   3.972   4.383  16.958  0.2563  0.2270 -0.1341
19126TIP3    H178869   4.049   4.373  17.015 -0.1463 -1.9315  0.1401
19126TIP3    H278870   3.927   4.299  16.966 -1.0379  0.7167 -1.8997
19127TIP3   OH278871   2.525   5.203   5.156 -0.2419 -0.1720 -0.1091
19127TIP3    H178872   2.573   5.142   5.211  1.0187  1.6046  0.8585
19127TIP3    H278873   2.579   5.211   5.077 -1.2849 -1.5647 -1.0118
19128TIP3   OH278874   4.132   6.010  11.478  0.2155 -0.0206 -0.4078
19128TIP3    H178875   4.105   5.939  11.420  3.8322 -1.0936 -1.0430
19128TIP3    H278876   4.133   5.971  11.565  0.9574 -0.4115 -0.5790
19129TIP3   OH278877   6.633   3.262  13.688 -0.5433 -0.1304 -0.2403
19129TIP3    H178878   6.703   3.316  13.652  0.5899 -0.3297  1.5509
19129TIP3    H278879   6.577   3.323  13.735 -1.0450 -0.1060 -0.8582
19130TIP3   OH278880   5.115   2.059   0.410  0.5773  0.1301  0.0381
19130TIP3    H178881   5.020   2.066   0.421  0.7194 -0.0116  1.6209
19130TIP3    H278882   5.146   2.018   0.491  2.0036  0.2416 -0.4147
19131TIP3   OH278883   4.576   6.678   0.456  0.0401 -0.5037 -0.6373
19131TIP3    H178884   4.519   6.739   0.409 -0.1278  0.3619  0.6568
19131TIP3    H278885   4.541   6.674   0.544  3.8829  2.9123  1.4083
19132TIP3   OH278886   5.062   4.771   2.890 -0.0445 -0.6774 -0.3634
19132TIP3    H178887   5.132   4.828   2.921 -2.0097  0.9754  1.2552
19132TIP3    H278888   5.088   4.684   2.920  1.9803 -0.3814 -1.0560
19133TIP3   OH278889   4.881   3.538   2.461  0.3043 -0.2443  0.0096
19133TIP3    H178890   4.870   3.627   2.429  0.5127 -0.3004 -0.2207
19133TIP3    H278891   4.805   3.523   2.517 -0.6388 -0.5099 -1.2938
19134TIP3   OH278892   4.329   1.208  11.281  0.1502 -0.3100 -0.4945
19134TIP3    H178893   4.397   1.248  11.227 -0.8656  1.3622 -0.5805
19134TIP3    H278894   4.342   1.246  11.368 -1.0165  0.4613 -0.6467
19135TIP3   OH278895   4.874   2.644  13.705  0.3482 -0.4354 -0.0267
19135TIP3    H178896   4.864   2.724  13.756  0.0740  0.5914 -1.6264
19135TIP3    H278897   4.949   2.662  13.647  1.9239 -2.3078  1.3041
19136TIP3   OH278898   0.056   4.359   5.066 -0.4854 -0.4766 -0.4381
19136TIP3    H178899   0.012   4.366   5.151  0.3063 -1.1765  0.0477
19136TIP3    H278900   0.016   4.428   5.013 -1.1502 -0.1682  0.4310
19137TIP3   OH278901   6.802   1.605  16.501  0.2409  0.2097  0.2783
19137TIP3    H178902   6.818   1.524  16.551 -0.0907 -0.2291 -0.3154
19137TIP3    H278903   6.739   1.579  16.433 -0.6106  1.1869  0.6679
19138TIP3   OH278904   1.275   0.878   0.058 -0.1975 -0.5853  0.2156
19138TIP3    H178905   1.255   0.942  -0.010  1.2101 -0.7676 -0.3962
19138TIP3    H278906   1.227   0.799   0.031  0.9707 -0.9016 -1.0258
19139TIP3   OH278907   6.365   4.188   6.371 -0.0667 -0.1287 -0.1797
19139TIP3    H178908   6.422   4.255   6.335  1.2568 -1.8269 -1.4250
19139TIP3    H278909   6.420   4.139   6.431 -1.0214 -0.0909  0.7530
19140TIP3   OH278910   2.387   2.732   5.354 -0.2832  0.3612 -0.3759
19140TIP3    H178911   2.481   2.717   5.345 -0.6725 -1.5763 -1.8273
19140TIP3    H278912   2.357   2.751   5.266 -0.9982  3.2706  0.3677
19141TIP3   OH278913   3.739   1.148  11.939  0.2034 -0.1625 -0.0496
19141TIP3    H178914   3.692   1.109  12.012 -0.0216  0.5833  0.2131
19141TIP3    H278915   3.680   1.216  11.906  0.3479 -0.4185 -0.8585
19142TIP3   OH278916   6.752   6.261   0.611  0.4892  0.2146  0.5668
19142TIP3    H178917   6.702   6.208   0.549  1.4247  0.0458 -0.0530
19142TIP3    H278918   6.796   6.327   0.557  2.2198 -0.6332  0.8966
19143TIP3   OH278919   5.223   2.661   0.280  0.1575  0.1301  0.0978
19143TIP3    H178920   5.227   2.581   0.333 -0.1714 -1.4369 -2.0777
19143TIP3    H278921   5.301   2.710   0.304  1.4255 -1.8024  0.1119
19144TIP3   OH278922   1.907   2.658  14.533 -0.2567 -0.3227  0.5422
19144TIP3    H178923   1.827   2.616  14.501  0.0060 -0.6174  0.2636
19144TIP3    H278924   1.913   2.739  14.482 -1.0881  0.3725  1.5064
19145TIP3   OH278925   0.887   4.426   2.637  0.4685 -0.0626  0.0319
19145TIP3    H178926   0.829   4.398   2.566  0.5827  0.0181 -0.0930
19145TIP3    H278927   0.972   4.438   2.595  0.9106 -1.5046  0.4605
19146TIP3   OH278928   1.195   1.546  17.059  0.2792 -1.0297 -0.5106
19146TIP3    H178929   1.268   1.582  17.009 -0.3923 -0.6641 -1.2451
19146TIP3    H278930   1.158   1.478  17.003  0.0929 -1.2509 -0.1247
19147TIP3   OH278931   4.868   5.194   1.372 -0.0983  0.1578 -0.8546
19147TIP3    H178932   4.787   5.206   1.422  0.6224 -0.6569  0.5695
19147TIP3    H278933   4.891   5.282   1.343 -1.5022  0.3976 -1.3151
19148TIP3   OH278934   4.255   2.501   0.718  0.7676 -0.2631 -0.3441
19148TIP3    H178935   4.309   2.541   0.786 -0.8355  1.5606 -0.0797
19148TIP3    H278936   4.181   2.463   0.764 -1.7058  3.2112 -1.0802
19149TIP3   OH278937   5.179   4.670  11.376  0.6706 -0.0580 -0.0496
19149TIP3    H178938   5.114   4.692  11.442  0.6010 -1.7924  0.5086
19149TIP3    H278939   5.236   4.748  11.372  0.5490  0.1952  1.8915
19150TIP3   OH278940   3.939   1.649  11.144 -0.3565 -0.2946  0.4354
19150TIP3    H178941   3.968   1.713  11.208  0.3106 -1.6068  1.5084
19150TIP3    H278942   3.860   1.611  11.183 -0.1909 -0.8043  0.2784
19151TIP3   OH278943   1.387   0.530  14.635  0.1504 -0.4442 -0.0469
19151TIP3    H178944   1.414   0.445  14.600  0.5776 -1.1127  1.8268
19151TIP3    H278945   1.302   0.513  14.676 -0.2998  0.3099 -0.6306
19152TIP3   OH278946   4.366   4.783  16.950  0.2289 -0.0928 -0.4334
19152TIP3    H178947   4.322   4.867  16.941 -0.2479 -0.3352 -0.4241
19152TIP3    H278948   4.459   4.802  16.938  0.4925  0.9297  2.3671
19153TIP3   OH278949   1.590   2.305   1.679  0.0473 -0.4582 -0.1329
19153TIP3    H178950   1.663   2.243   1.679  0.2068 -0.3171 -1.8564
19153TIP3    H278951   1.632   2.391   1.667 -0.3778 -0.3534 -0.9062
19154TIP3   OH278952   6.054   4.086  16.534 -0.0300 -0.6689 -0.4218
19154TIP3    H178953   6.065   4.025  16.607  1.1918 -0.1947 -0.1882
19154TIP3    H278954   6.133   4.139  16.535  0.5485 -1.3491 -2.7564
19155TIP3   OH278955   3.153   4.167   3.126 -0.5711  0.6014  0.2930
19155TIP3    H178956   3.063   4.163   3.095 -0.5051 -0.0414  0.1785
19155TIP3    H278957   3.162   4.094   3.187 -0.0089  0.3945 -0.0229
19156TIP3   OH278958   0.337   4.438  13.698  0.2839 -0.2138  0.3674
19156TIP3    H178959   0.363   4.528  13.680  1.5836 -0.1598  2.1870
19156TIP3    H278960   0.418   4.395  13.727 -0.7584 -1.2895  1.8483
19157TIP3   OH278961   5.238   4.962  13.229  0.5048  0.1702  0.4977
19157TIP3    H178962   5.269   4.950  13.139 -0.4209 -1.2147  0.3266
19157TIP3    H278963   5.302   5.021  13.269  0.0001  2.2414 -1.5475
19158TIP3   OH278964   2.342   0.826  15.768 -0.9147  0.0990 -0.0468
19158TIP3    H178965   2.308   0.771  15.698 -1.2606 -0.6132  0.6682
19158TIP3    H278966   2.344   0.769  15.845 -1.7154  1.2044  0.8276
19159TIP3   OH278967   0.256   1.119  14.252  0.0831 -0.5699 -0.4616
19159TIP3    H178968   0.290   1.047  14.304  0.9891  0.2517  0.1180
19159TIP3    H278969   0.179   1.150  14.301  1.8461  1.2351  1.3309
19160TIP3   OH278970   2.842   0.242   5.210 -0.4162  0.0640 -0.0783
19160TIP3    H178971   2.823   0.200   5.294  1.0998 -1.2161 -0.3331
19160TIP3    H278972   2.870   0.331   5.234  1.5375 -0.7699  0.9470
19161TIP3   OH278973   3.859   3.136  10.811 -0.6673  0.3401  0.1493
19161TIP3    H178974   3.808   3.055  10.813  0.0547 -0.1119  1.2363
19161TIP3    H278975   3.895   3.140  10.722 -1.5720  0.0211 -0.2346
19162TIP3   OH278976   1.571   4.074   3.340  0.4388  0.1586  0.0861
19162TIP3    H178977   1.635   4.144   3.352  1.5456 -0.9171  0.7350
19162TIP3    H278978   1.603   4.025   3.264 -0.4725  0.4932 -0.5278
19163TIP3   OH278979   1.985   6.290   3.670 -0.2974  0.5176 -0.3950
19163TIP3    H178980   1.944   6.208   3.699 -3.0761  1.8043 -0.4033
19163TIP3    H278981   1.956   6.355   3.733  0.5926  1.8042 -1.2727
19164TIP3   OH278982   0.775   6.090   0.676 -0.1552 -0.0222  0.9401
19164TIP3    H178983   0.703   6.144   0.709 -0.4191  0.0146  0.3197
19164TIP3    H278984   0.779   6.110   0.582  0.5037 -0.2112  0.9241
19165TIP3   OH278985   5.397   2.183  13.087 -0.0422  0.0590 -0.3012
19165TIP3    H178986   5.453   2.237  13.033 -0.5978  0.7964 -0.1515
19165TIP3    H278987   5.313   2.230  13.091 -0.4227 -0.6244  0.1213
19166TIP3   OH278988   3.814   2.887   5.382  0.7187  0.2671 -0.2669
19166TIP3    H178989   3.871   2.932   5.319  0.6319 -0.7697 -1.1321
19166TIP3    H278990   3.744   2.851   5.328  0.5424 -0.4954  0.4523
19167TIP3   OH278991   3.295   6.268   6.456 -0.3393  0.1048  0.2202
19167TIP3    H178992   3.338   6.317   6.526 -1.1276  0.0379  0.7489
19167TIP3    H278993   3.268   6.335   6.393 -0.7862  0.2799  0.6018
19168TIP3   OH278994   6.717   5.807   2.824 -1.0070 -0.3049  0.1698
19168TIP3    H178995   6.732   5.855   2.743 -1.0563 -0.5973 -0.0134
19168TIP3    H278996   6.787   5.836   2.882 -0.0803 -1.1955 -0.4716
19169TIP3   OH278997   2.223   2.190   5.938 -0.2557  0.1963 -0.2445
19169TIP3    H178998   2.208   2.256   5.870 -1.3317  0.5467  0.3205
19169TIP3    H278999   2.136   2.167   5.969  0.1737 -0.6882  0.3373
19170TIP3   OH279000   4.972   5.723  14.870 -0.1813 -0.3254  0.1858
19170TIP3    H179001   5.007   5.768  14.794 -1.3437  1.4709  0.6487
19170TIP3    H279002   4.949   5.636  14.838  0.2199  0.0731 -1.2690
19171TIP3   OH279003   0.715   5.504  14.495  0.0212  0.3117 -0.3339
19171TIP3    H179004   0.780   5.470  14.558  0.9204  1.8867 -0.3709
19171TIP3    H279005   0.766   5.520  14.415 -0.9988 -1.1250 -1.3409
19172TIP3   OH279006   0.030   3.476  12.142  0.4461 -0.1208  0.9466
19172TIP3    H179007   0.079   3.531  12.082 -1.6901 -0.3912 -1.1953
19172TIP3    H279008   0.096   3.439  12.201  2.4244  1.4138 -0.1973
19173TIP3   OH279009   1.302   0.538   0.767  0.0598  0.2619  0.3247
19173TIP3    H179010   1.264   0.451   0.757  1.3517 -0.3734  0.7951
19173TIP3    H279011   1.370   0.528   0.834  0.7315  1.4571 -0.1402
19174TIP3   OH279012   4.543   6.604  11.167  0.5119  0.5074  0.2117
19174TIP3    H179013   4.461   6.576  11.209  0.4638  1.6369  0.8932
19174TIP3    H279014   4.542   6.699  11.174  1.5658  0.5696 -0.3986
19175TIP3   OH279015   4.060   5.828  12.738  0.4278 -0.2979  0.5544
19175TIP3    H179016   4.117   5.751  12.735 -0.0667 -0.7496  1.9791
19175TIP3    H279017   3.973   5.793  12.757  0.2236  0.6158  1.3801
19176TIP3   OH279018   1.840   0.910   4.632  0.2507  0.6594  0.0407
19176TIP3    H179019   1.754   0.867   4.639  0.4801 -0.2179 -1.8534
19176TIP3    H279020   1.830   0.991   4.682 -1.5687  0.4133  0.1589
19177TIP3   OH279021   5.277   1.588   5.061  0.2723 -1.0092  0.5232
19177TIP3    H179022   5.290   1.682   5.071  1.0602 -1.1150  0.5044
19177TIP3    H279023   5.192   1.580   5.017 -1.6510 -0.4275  3.7734
19178TIP3   OH279024   0.127   5.495   2.435 -0.2384 -0.2269  0.7318
19178TIP3    H179025   0.127   5.427   2.367  0.5219 -1.3002  1.7716
19178TIP3    H279026   0.149   5.449   2.515 -1.4580  0.9569  1.8021
19179TIP3   OH279027   6.808   0.223  12.157  0.3058 -0.2549  0.5687
19179TIP3    H179028   6.797   0.297  12.217 -3.6937 -0.4581  0.3694
19179TIP3    H279029   6.763   0.150  12.201  1.0182 -1.5712 -0.8127
19180TIP3   OH279030   6.143   0.261  13.390  0.2593  0.1700 -0.1016
19180TIP3    H179031   6.220   0.318  13.391  0.3819  0.0372  1.5820
19180TIP3    H279032   6.169   0.184  13.442 -0.0750 -1.2117 -1.8901
19181TIP3   OH279033   4.347   2.885   4.997 -0.2303 -0.1493  0.1626
19181TIP3    H179034   4.276   2.944   4.972  0.0088 -0.3644 -1.0897
19181TIP3    H279035   4.320   2.851   5.083 -0.4182  1.6684  0.8753
19182TIP3   OH279036   6.402   5.118  15.708 -0.6395 -0.2615 -0.6126
19182TIP3    H179037   6.313   5.111  15.674 -0.8605  1.0136 -0.3596
19182TIP3    H279038   6.408   5.208  15.741  0.2382 -0.8003  0.7975
19183TIP3   OH279039   6.672   4.981   6.944 -0.0494 -0.1169 -0.5068
19183TIP3    H179040   6.628   4.912   6.994 -0.7323 -0.3970 -1.4648
19183TIP3    H279041   6.609   5.004   6.876  0.7579  0.4464 -1.0663
19184TIP3   OH279042   1.989   5.276  14.069  0.4189  0.0466 -0.3562
19184TIP3    H179043   1.958   5.239  13.986 -0.9359  1.6200 -0.5973
19184TIP3    H279044   2.046   5.208  14.105 -0.5482 -1.5142 -1.6077
19185TIP3   OH279045   2.987   6.795   3.772 -0.0904 -0.1225  0.2410
19185TIP3    H179046   3.040   6.742   3.712 -0.0660 -1.4838  1.4179
19185TIP3    H279047   2.917   6.830   3.716  0.0024 -1.2536 -0.6270
19186TIP3   OH279048   0.713   3.517  15.181 -0.1245 -0.4372 -0.8016
19186TIP3    H179049   0.771   3.447  15.152 -0.2873 -0.7857 -0.2836
19186TIP3    H279050   0.747   3.595  15.137  0.8026 -0.6191 -0.4393
19187TIP3   OH279051   6.460   6.232   2.869 -0.1955  0.1562 -0.3209
19187TIP3    H179052   6.415   6.150   2.848  1.2785 -0.8582  0.2834
19187TIP3    H279053   6.393   6.286   2.911 -1.6137 -0.0694 -2.1761
19188TIP3   OH279054   3.864   1.328  16.809 -0.5128 -0.0970  0.5611
19188TIP3    H179055   3.910   1.250  16.779 -3.7678 -1.2885 -1.9431
19188TIP3    H279056   3.910   1.401  16.768 -0.3619 -1.1446 -1.1923
19189TIP3   OH279057   5.253   3.000  14.893 -1.0586 -0.1490 -0.1643
19189TIP3    H179058   5.189   2.955  14.948 -0.2281 -1.0183  0.1363
19189TIP3    H279059   5.206   3.074  14.856 -1.8480  0.0484  1.1532
19190TIP3   OH279060   5.369   2.708  16.862  0.4093 -0.3123  0.4021
19190TIP3    H179061   5.423   2.678  16.789  0.2795 -0.9781  0.5775
19190TIP3    H279062   5.397   2.656  16.937  1.1407  0.9507  1.0458
19191TIP3   OH279063   1.654   4.265   5.707  0.5019 -0.2705 -0.8738
19191TIP3    H179064   1.667   4.298   5.618 -0.7366 -1.0429 -1.3628
19191TIP3    H279065   1.639   4.172   5.697 -0.5340 -0.2340  0.0523
19192TIP3   OH279066   2.686   4.801   2.914  0.1283  0.1169  0.4708
19192TIP3    H179067   2.688   4.875   2.854  1.7970 -2.3621 -2.8937
19192TIP3    H279068   2.772   4.802   2.957  1.5003 -1.4866 -2.0070
19193TIP3   OH279069   3.758   5.074  10.897  0.4965  0.6339 -0.1132
19193TIP3    H179070   3.699   5.117  10.959  1.0897 -0.1482  1.0413
19193TIP3    H279071   3.788   4.996  10.943  1.0883  0.1058 -1.3428
19194TIP3   OH279072   5.915   4.351   0.781 -0.4987 -0.1543  0.6438
19194TIP3    H179073   5.976   4.401   0.727 -0.2276  0.1711  1.2347
19194TIP3    H279074   5.828   4.380   0.752 -0.3772 -0.5404 -0.1284
19195TIP3   OH279075   1.244   3.361   5.450  0.0946  0.0302 -0.1714
19195TIP3    H179076   1.179   3.425   5.478 -0.2943 -1.2327  1.9985
19195TIP3    H279077   1.316   3.370   5.512  1.6094  0.6912 -1.9239
19196TIP3   OH279078   1.973   4.329   0.618 -0.1643  0.0864  0.8169
19196TIP3    H179079   2.050   4.334   0.675 -0.2080 -1.1460  1.0100
19196TIP3    H279080   1.998   4.378   0.540  1.4109 -1.5653  0.2292
19197TIP3   OH279081   2.063   1.377   5.855  0.1556 -0.4789 -0.0684
19197TIP3    H179082   2.018   1.407   5.934  2.3472  2.6843  0.1645
19197TIP3    H279083   2.135   1.323   5.887  2.4445  2.6203  0.5235
19198TIP3   OH279084   1.447   0.275  13.594  0.5246  0.1684 -0.6712
19198TIP3    H179085   1.522   0.216  13.593  1.5720  1.4122  0.5618
19198TIP3    H279086   1.385   0.234  13.655  0.7084 -0.2681 -0.7729
19199TIP3   OH279087   3.767   4.989   6.526  0.0086 -0.1060 -0.7398
19199TIP3    H179088   3.746   4.895   6.521  0.7288 -0.3500  0.3726
19199TIP3    H279089   3.856   4.995   6.491  0.3096  0.0150  0.0239
19200TIP3   OH279090   1.706   5.829  13.946 -0.3878  0.8333 -0.0352
19200TIP3    H179091   1.627   5.776  13.938  0.0698  0.4238 -2.3588
19200TIP3    H279092   1.774   5.767  13.974 -0.4397  0.7798 -0.0271
19201TIP3   OH279093   4.969   0.021   5.782 -0.0173  1.1681 -0.3792
19201TIP3    H179094   4.977  -0.005   5.873 -2.1927 -0.8934 -0.6905
19201TIP3    H279095   4.882   0.060   5.775 -0.2297  0.5259 -1.6923
19202TIP3   OH279096   6.304   1.388   5.395 -0.1740  0.4597  0.3977
19202TIP3    H179097   6.329   1.375   5.304 -0.2645  0.3004  0.3941
19202TIP3    H279098   6.212   1.414   5.390  0.1900  1.8226  0.3626
19203TIP3   OH279099   3.025   2.104   1.923 -0.3495  0.4973  0.5411
19203TIP3    H179100   2.961   2.053   1.972 -0.1086 -0.0643  0.2866
19203TIP3    H279101   3.017   2.192   1.957 -0.2968  0.1469  1.4769
19204TIP3   OH279102   2.957   2.731   0.642  0.7771 -0.1048 -0.5153
19204TIP3    H179103   2.969   2.673   0.567 -0.9000  0.4202 -1.2525
19204TIP3    H279104   2.944   2.818   0.603 -2.2913 -0.1394  0.1549
19205TIP3   OH279105   4.172   4.728  15.405  0.0706  0.1354 -0.0386
19205TIP3    H179106   4.076   4.723  15.397 -0.1758  2.5647  0.5357
19205TIP3    H279107   4.187   4.807  15.458  2.3842 -0.5356  0.4038
19206TIP3   OH279108   1.330   4.002   5.448 -0.4387  0.4764  0.3763
19206TIP3    H179109   1.351   3.984   5.539 -1.8688  2.4033  1.1630
19206TIP3    H279110   1.253   4.059   5.452  1.4193  3.4379 -1.8597
19207TIP3   OH279111   5.925   5.741  16.235  0.1127 -0.0610  0.8674
19207TIP3    H179112   5.833   5.758  16.254  0.3873  2.7690  0.0648
19207TIP3    H279113   5.928   5.726  16.140  0.3088 -1.9982  1.1314
19208TIP3   OH279114   6.238   3.961   5.510  0.1364 -0.7707 -0.2160
19208TIP3    H179115   6.190   3.885   5.478 -0.8214 -0.3824  0.2700
19208TIP3    H279116   6.329   3.931   5.514 -0.0301 -1.4767 -1.2566
19209TIP3   OH279117   0.113   1.013   0.546  0.5711  0.4329 -0.2408
19209TIP3    H179118   0.030   1.027   0.593  2.1493 -0.5070  3.1216
19209TIP3    H279119   0.134   0.921   0.561  3.4989  1.2400  1.5067
19210TIP3   OH279120   1.827   1.215   1.394  0.0614 -0.2952 -0.6710
19210TIP3    H179121   1.829   1.232   1.300  0.6311  0.5569 -0.5194
19210TIP3    H279122   1.809   1.122   1.402 -0.4251 -0.2928 -1.6175
19211TIP3   OH279123   2.884   6.660  14.472 -0.0945 -0.2614  0.2542
19211TIP3    H179124   2.906   6.607  14.549 -0.7085  2.5060  2.5220
19211TIP3    H279125   2.793   6.686  14.487 -0.2566  0.2465 -1.4891
19212TIP3   OH279126   6.648   4.027  15.857 -0.4023 -0.3321 -0.0805
19212TIP3    H179127   6.614   4.037  15.946 -1.5531  0.2972 -0.5635
19212TIP3    H279128   6.644   3.933  15.841  0.1191 -0.4890  0.6294
19213TIP3   OH279129   4.220   3.044   0.559 -0.2005 -1.3273  0.8716
19213TIP3    H179130   4.280   2.969   0.557  2.2690  0.4724  2.4220
19213TIP3    H279131   4.274   3.117   0.590 -2.5826  1.0433 -0.2240
19214TIP3   OH279132   5.965   4.332  12.918 -0.1866 -0.0826 -0.0495
19214TIP3    H179133   5.919   4.262  12.871  0.4769 -2.0624  2.0838
19214TIP3    H279134   6.050   4.339  12.874 -0.8949  0.7155 -1.3905
19215TIP3   OH279135   4.772   6.473   4.348 -0.5320 -0.2714 -0.6410
19215TIP3    H179136   4.857   6.435   4.371 -0.0526  0.5087 -1.0493
19215TIP3    H279137   4.737   6.505   4.431  0.1180  0.4359 -0.6191
19216TIP3   OH279138   0.790   4.787   2.496  0.5604 -0.6741 -0.0746
19216TIP3    H179139   0.710   4.735   2.501  0.6891 -1.0983 -1.7879
19216TIP3    H279140   0.851   4.734   2.444  0.7459  1.0615 -1.7444
19217TIP3   OH279141   0.018   1.321   3.608  0.1699 -0.1216  0.7257
19217TIP3    H179142   0.102   1.338   3.565 -0.1183 -2.0105 -0.6912
19217TIP3    H279143  -0.025   1.407   3.611  1.8103  0.7424  0.8129
19218TIP3   OH279144   0.542   3.314  13.874  0.5066 -0.2803  0.2872
19218TIP3    H179145   0.604   3.353  13.812  0.0273  3.1834  1.7119
19218TIP3    H279146   0.593   3.248  13.921  1.5778 -1.1616 -2.0152
19219TIP3   OH279147   2.021   3.360   0.711  0.4635 -0.0481  0.1867
19219TIP3    H179148   2.030   3.301   0.636  0.4619 -2.4058  1.9310
19219TIP3    H279149   2.103   3.351   0.759  0.1656  0.8005  0.8837
19220TIP3   OH279150   1.956   0.221   3.370 -0.0222 -0.3125  0.5550
19220TIP3    H179151   1.961   0.238   3.276 -0.3534 -1.2947  0.3480
19220TIP3    H279152   1.898   0.289   3.404  0.2064  0.1295  0.0752
19221TIP3   OH279153   2.389   0.796  17.051  0.2005 -0.1630 -0.1264
19221TIP3    H179154   2.399   0.765  17.141 -0.3237  2.0995  0.7919
19221TIP3    H279155   2.463   0.856  17.039  0.2227 -0.3897 -1.2018
19222TIP3   OH279156   5.557   2.892  11.571  0.1482  0.1565 -0.5306
19222TIP3    H179157   5.570   2.908  11.478  1.8013  0.1550 -0.3256
19222TIP3    H279158   5.643   2.905  11.610  0.2188 -2.8496  0.5673
19223TIP3   OH279159   2.111   4.217   1.382  0.1282  0.3244  0.1585
19223TIP3    H179160   2.186   4.232   1.438 -0.4282  1.1985  0.7033
19223TIP3    H279161   2.075   4.305   1.366 -0.1387  0.0291 -0.9911
19224TIP3   OH279162   6.232   4.807   3.475  0.2234 -0.1082  0.7460
19224TIP3    H179163   6.311   4.798   3.529 -0.5919  0.5498  2.0853
19224TIP3    H279164   6.228   4.900   3.453 -0.9997  0.1758  2.0219
19225TIP3   OH279165   4.619   6.751  12.125 -0.1871 -0.0011  0.0016
19225TIP3    H179166   4.623   6.823  12.189  0.1251 -1.0951  1.2528
19225TIP3    H279167   4.529   6.720  12.129 -0.2184  0.0571 -0.2405
19226TIP3   OH279168   2.345   3.044   0.435  0.6513 -0.1312  0.1987
19226TIP3    H179169   2.353   3.125   0.384 -0.5894 -0.4398 -0.5398
19226TIP3    H279170   2.340   3.073   0.526  0.3384  0.6126 -0.0471
19227TIP3   OH279171   3.006   6.167  14.814 -0.3353  0.2610  0.3348
19227TIP3    H179172   3.058   6.139  14.739 -0.0567  0.7718  0.3357
19227TIP3    H279173   3.069   6.170  14.887 -0.4123  0.6512  0.3874
19228TIP3   OH279174   4.358   1.772  13.998  0.2571  0.2294 -0.0034
19228TIP3    H179175   4.436   1.786  13.944 -0.5025 -0.4415 -1.3388
19228TIP3    H279176   4.326   1.686  13.971 -0.6180  0.2465  0.9367
19229TIP3   OH279177   0.638   5.134  16.141  0.5166  0.2840  0.0325
19229TIP3    H179178   0.696   5.087  16.200  1.5180  0.7972 -0.5195
19229TIP3    H279179   0.623   5.075  16.067  0.2230  0.1014  0.2365
19230TIP3   OH279180   0.380   0.909  16.736  0.6114  0.8551  0.2791
19230TIP3    H179181   0.440   0.836  16.749  2.5290  2.5779  1.7423
19230TIP3    H279182   0.435   0.982  16.710 -1.0009  2.2112  0.4746
19231TIP3   OH279183   0.380   3.860   5.636  0.0792  0.3575 -0.3065
19231TIP3    H179184   0.438   3.788   5.662 -1.7100 -0.5785  1.3584
19231TIP3    H279185   0.311   3.819   5.585 -0.5896  0.9950  0.0562
19232TIP3   OH279186   0.064   2.958  14.283  0.1399 -0.2521  0.4137
19232TIP3    H179187   0.056   2.864  14.299  1.6214 -0.3738  0.5637
19232TIP3    H279188   0.151   2.969  14.244 -0.2699  0.9854 -0.2268
19233TIP3   OH279189   3.303   2.870  14.537  0.8764  0.4529  0.4197
19233TIP3    H179190   3.250   2.802  14.579 -1.1950  1.7793  0.0911
19233TIP3    H279191   3.334   2.923  14.610  1.7215 -0.2834  0.6105
19234TIP3   OH279192   3.760   2.676  11.631 -0.1649 -0.2876 -0.1728
19234TIP3    H179193   3.822   2.688  11.559 -1.5091  1.7967 -1.0923
19234TIP3    H279194   3.734   2.584  11.625  0.8977 -0.5400 -1.3892
19235TIP3   OH279195   5.492   3.102   5.297  0.2057  0.0080  0.2828
19235TIP3    H179196   5.471   3.134   5.210  1.3033  0.1725  0.0586
19235TIP3    H279197   5.476   3.008   5.293  0.8247 -0.0781 -0.2849
19236TIP3   OH279198   1.769   6.272   5.096 -0.0951 -0.0486 -0.5178
19236TIP3    H179199   1.817   6.313   5.024  0.4295  0.3908  0.0694
19236TIP3    H279200   1.682   6.254   5.061  0.6664 -1.4356 -1.8103
19237TIP3   OH279201   6.722   5.407  15.829  0.1874 -0.5997  0.3298
19237TIP3    H179202   6.682   5.474  15.773  0.2475 -0.0006  0.9838
19237TIP3    H279203   6.651   5.348  15.852 -0.1893  0.0819  0.9442
19238TIP3   OH279204   6.386   6.545   2.293 -0.5674 -0.1615  0.6104
19238TIP3    H179205   6.402   6.597   2.215  3.0028 -0.7635  0.7791
19238TIP3    H279206   6.377   6.455   2.261 -0.5049 -0.2325  0.7900
19239TIP3   OH279207   3.745   2.791  16.884 -0.1669  0.4849  0.2485
19239TIP3    H179208   3.655   2.821  16.877  0.8692  3.5999 -2.2219
19239TIP3    H279209   3.780   2.834  16.962 -0.7255 -0.6978  1.1878
19240TIP3   OH279210   6.065   5.786   1.334 -0.7927 -0.0486 -0.3693
19240TIP3    H179211   6.024   5.753   1.253 -1.0631  0.4776 -0.4482
19240TIP3    H279212   6.157   5.760   1.326 -0.9139 -0.4036 -0.6350
19241TIP3   OH279213   1.520   1.188   1.191 -0.3883  0.0023 -0.1770
19241TIP3    H179214   1.494   1.168   1.101  0.2693  2.2193 -0.9105
19241TIP3    H279215   1.614   1.203   1.186 -0.1010 -1.1316  1.1630
19242TIP3   OH279216   5.904   2.474  14.587  0.0026  0.2732 -0.6990
19242TIP3    H179217   5.910   2.563  14.551  2.0851  0.7627  0.6749
19242TIP3    H279218   5.954   2.478  14.669 -0.2435 -2.0619 -0.3758
19243TIP3   OH279219   0.214   4.528   5.458 -0.2275  0.0435 -0.6360
19243TIP3    H179220   0.162   4.496   5.384 -1.1734 -0.0443  0.0576
19243TIP3    H279221   0.160   4.595   5.498  0.5243  0.4913 -0.3491
19244TIP3   OH279222   2.078   0.306  15.193  0.3095 -0.3442 -0.4666
19244TIP3    H179223   1.991   0.333  15.165  0.1993 -0.4484 -0.2212
19244TIP3    H279224   2.076   0.211  15.194  0.8040 -0.3809 -1.6570
19245TIP3   OH279225   2.775   6.101   5.128  0.4787 -0.1628 -0.3504
19245TIP3    H179226   2.731   6.118   5.211  1.6837  1.2314  0.0398
19245TIP3    H279227   2.837   6.031   5.148  0.5859 -0.0070 -0.1327
19246TIP3   OH279228   2.316   1.629  11.582 -0.0113  0.3119  0.4006
19246TIP3    H179229   2.245   1.567  11.598  0.9756 -1.4283 -1.4918
19246TIP3    H279230   2.385   1.602  11.642  0.4610 -0.5818 -0.5018
19247TIP3   OH279231   6.185   2.659  15.660  0.7048 -0.4211 -0.0270
19247TIP3    H179232   6.137   2.673  15.742  0.8396 -1.0755  0.1688
19247TIP3    H279233   6.276   2.644  15.687  0.7590 -0.6017 -0.2990
19248TIP3   OH279234   0.047   1.941   3.156 -0.2992 -0.2985  0.3130
19248TIP3    H179235   0.078   1.938   3.065  0.3056 -2.1708  0.5268
19248TIP3    H279236  -0.017   1.870   3.161  1.2095 -1.6593  1.8072
19249TIP3   OH279237   5.184   0.250  12.765  0.0633 -0.1687 -1.4396
19249TIP3    H179238   5.090   0.265  12.779  0.0853 -0.5915 -0.7981
19249TIP3    H279239   5.203   0.294  12.682 -0.4013  1.1864 -0.8597
19250TIP3   OH279240   3.212   5.879   2.771  0.0080 -0.8354  0.2442
19250TIP3    H179241   3.268   5.953   2.749  0.2099 -1.3263 -1.0176
19250TIP3    H279242   3.146   5.915   2.830  0.3214  0.2576 -0.0497
19251TIP3   OH279243   2.005   3.425   5.832 -0.5869 -0.2254 -0.0851
19251TIP3    H179244   2.049   3.509   5.825 -0.2692 -0.2116  1.7885
19251TIP3    H279245   2.035   3.376   5.755 -0.6527  1.2837 -1.1061
19252TIP3   OH279246   3.454   0.037  12.437 -0.0106  0.6925  0.5404
19252TIP3    H179247   3.367   0.064  12.466 -1.2572 -2.1931 -0.1670
19252TIP3    H279248   3.496   0.002  12.516  0.2695  1.4519  0.7373
19253TIP3   OH279249   4.834   2.848  13.914  0.7898 -0.1339 -0.5477
19253TIP3    H179250   4.751   2.872  13.956  0.6710  0.4542 -1.0958
19253TIP3    H279251   4.895   2.918  13.939  1.0779 -0.4748 -0.2861
19254TIP3   OH279252   6.479   0.593   5.987  0.0408  0.1810 -0.4298
19254TIP3    H179253   6.412   0.570   6.052 -0.5018  0.2618 -0.9557
19254TIP3    H279254   6.537   0.516   5.985 -1.4242 -0.9421 -1.7394
19255TIP3   OH279255   3.523   0.059   4.909  0.4503 -0.2099  0.3136
19255TIP3    H179256   3.496   0.078   4.820  0.0034  1.1295  0.7149
19255TIP3    H279257   3.473  -0.019   4.934 -0.4924  0.2483 -0.1214
19256TIP3   OH279258   0.933   2.054   1.641 -0.7794 -0.7357  0.6549
19256TIP3    H179259   0.947   2.148   1.652 -0.3195 -0.9748  2.3913
19256TIP3    H279260   0.977   2.014   1.716  0.3886 -2.4686 -0.8675
19257TIP3   OH279261   5.770   4.977   4.101  0.4958  0.3576 -0.6764
19257TIP3    H179262   5.800   4.947   4.015 -0.2211 -0.2741 -0.7178
19257TIP3    H279263   5.747   4.897   4.147 -0.8980  0.7876 -0.5761
19258TIP3   OH279264   6.476   5.717  12.538  0.3330 -0.1878 -0.2745
19258TIP3    H179265   6.535   5.746  12.608 -0.6432  1.7970 -0.1939
19258TIP3    H279266   6.390   5.711  12.580 -0.3351  1.3703 -1.3188
19259TIP3   OH279267   2.018   3.834   1.177  0.4088 -1.1237 -0.2687
19259TIP3    H179268   1.976   3.808   1.095  0.9765 -0.8755 -0.6483
19259TIP3    H279269   1.962   3.798   1.246  0.8175 -2.8080 -0.7581
19260TIP3   OH279270   1.914   6.153  14.751 -0.6128  0.0272  0.1208
19260TIP3    H179271   1.973   6.149  14.676 -0.2016 -0.1004  0.4424
19260TIP3    H279272   1.835   6.195  14.718 -0.7238 -0.7030 -0.5635
19261TIP3   OH279273   1.634   1.203   4.656  0.1816  0.8710  0.0270
19261TIP3    H179274   1.541   1.183   4.646  0.4221  0.2708 -1.2919
19261TIP3    H279275   1.667   1.137   4.716  0.1020 -0.0535 -0.9145
19262TIP3   OH279276   2.887   1.562   4.569  0.7292 -0.4598  0.2872
19262TIP3    H179277   2.914   1.648   4.602  0.4744 -0.3550  0.2236
19262TIP3    H279278   2.791   1.562   4.578  0.8272 -1.2314  1.4903
19263TIP3   OH279279   3.743   3.781  10.427  0.4143  0.7742  0.0697
19263TIP3    H179280   3.831   3.753  10.450  0.1278  0.1604  0.4703
19263TIP3    H279281   3.687   3.739  10.493 -0.3613 -0.3233 -1.2355
19264TIP3   OH279282   2.460   0.315   6.041  0.0959  0.1420  0.2928
19264TIP3    H179283   2.393   0.279   6.098  0.4338 -0.6329  0.2089
19264TIP3    H279284   2.463   0.409   6.062  0.1183 -0.1103  1.4320
19265TIP3   OH279285   2.918   6.074  13.156  0.5133  0.2445  0.4014
19265TIP3    H179286   3.001   6.119  13.170  1.4748 -1.4347  0.3220
19265TIP3    H279287   2.934   5.983  13.183 -0.6768 -0.5977 -1.4784
19266TIP3   OH279288   1.966   6.085   3.424 -0.2094 -0.2407  0.3099
19266TIP3    H179289   1.930   6.172   3.438 -0.3536 -0.3850  0.8559
19266TIP3    H279290   1.904   6.042   3.365 -0.1642  0.0042  0.0831
19267TIP3   OH279291   4.108   0.515  16.621 -0.4065 -0.2895 -0.5067
19267TIP3    H179292   4.057   0.569  16.682 -0.4159 -0.6224 -0.2188
19267TIP3    H279293   4.043   0.468  16.569 -0.4019 -1.0748  0.1800
19268TIP3   OH279294   3.418   5.475   5.194  0.6174  0.2305  0.5132
19268TIP3    H179295   3.459   5.560   5.204 -0.5094  0.9834 -0.9139
19268TIP3    H279296   3.350   5.473   5.261 -0.3040  1.0805 -0.3650
19269TIP3   OH279297   3.177   3.993   6.127  0.5664 -0.0916 -0.1104
19269TIP3    H179298   3.086   4.023   6.130  0.0914 -1.4668  3.0858
19269TIP3    H279299   3.194   3.978   6.035 -2.3883  0.4007 -0.8431
19270TIP3   OH279300   6.277   2.240  14.584  0.2865 -0.1417 -0.2052
19270TIP3    H179301   6.257   2.148  14.567 -0.8552 -0.2068  1.2450
19270TIP3    H279302   6.281   2.246  14.679  0.9589  1.1994 -0.3019
19271TIP3   OH279303   0.259   0.025  16.185  0.6811 -0.2480  0.6771
19271TIP3    H179304   0.313   0.104  16.182 -1.6240  1.4364  0.3740
19271TIP3    H279305   0.213   0.030  16.268 -0.5737 -0.4756  0.0261
19272TIP3   OH279306   0.014   2.883   0.021  0.9230 -0.3187  0.1139
19272TIP3    H179307   0.050   2.905   0.107 -1.3215 -0.0467  1.0419
19272TIP3    H279308   0.056   2.945  -0.038  1.4324  0.4651  1.2463
19273TIP3   OH279309   5.438   3.880   1.535  0.3764  0.2398 -0.0564
19273TIP3    H179310   5.424   3.967   1.498  4.6379  1.6815  1.0798
19273TIP3    H279311   5.479   3.830   1.465  0.1289 -0.0548  0.0074
19274TIP3   OH279312   6.302   5.203  16.019 -0.0451  0.5837 -0.5059
19274TIP3    H179313   6.303   5.267  16.090 -1.5301 -0.5806  0.6413
19274TIP3    H279314   6.221   5.222  15.971 -1.7856 -1.7672  1.2539
19275TIP3   OH279315   1.226   5.121  13.958 -0.1990 -0.4090  0.3737
19275TIP3    H179316   1.160   5.162  14.013  1.1669  2.1968  0.2288
19275TIP3    H279317   1.308   5.163  13.984  1.0405 -1.7591 -1.1441
19276TIP3   OH279318   4.909   1.480  14.943  0.2256 -0.0954  0.1079
19276TIP3    H179319   4.975   1.516  14.885  0.2067 -0.5470 -0.1977
19276TIP3    H279320   4.874   1.404  14.897 -0.2586 -0.0722  0.4180
19277TIP3   OH279321   6.459   4.840   1.243  0.1747 -0.4236 -0.0234
19277TIP3    H179322   6.407   4.787   1.182  1.7804 -1.0487 -0.9194
19277TIP3    H279323   6.502   4.775   1.300 -0.6728  0.1201  1.2774
19278TIP3   OH279324   5.833   1.564  13.377 -0.6061  0.0685 -0.0997
19278TIP3    H179325   5.832   1.564  13.473  2.0726 -0.9498 -0.0036
19278TIP3    H279326   5.911   1.614  13.354 -1.2979  0.4321 -1.7991
19279TIP3   OH279327   5.061   5.226  13.473 -0.7475  0.4328 -0.2540
19279TIP3    H179328   5.022   5.141  13.492  0.4984 -0.2509 -0.6666
19279TIP3    H279329   5.083   5.262  13.559 -1.7584  0.6052 -0.0438
19280TIP3   OH279330   1.524   5.889   3.504  0.1934  0.7811 -0.7327
19280TIP3    H179331   1.581   5.856   3.573  0.6618 -0.7436 -1.7999
19280TIP3    H279332   1.446   5.833   3.509  0.0417  0.9514 -1.1413
19281TIP3   OH279333   2.206   3.073  15.849  0.2841 -0.5694 -0.1567
19281TIP3    H179334   2.174   3.079  15.759  0.1509  0.7174 -0.0402
19281TIP3    H279335   2.290   3.119  15.847 -0.5627  1.0902  0.7398
19282TIP3   OH279336   3.804   3.038   3.597  0.1687 -0.4403  0.2699
19282TIP3    H179337   3.719   3.008   3.628 -0.3249  1.0449  0.4077
19282TIP3    H279338   3.833   3.101   3.662  1.1369 -0.5380 -0.0521
19283TIP3   OH279339   1.071   5.845   2.782  0.0611  0.1051 -0.0539
19283TIP3    H179340   0.987   5.888   2.765  0.0251  0.2680  0.5224
19283TIP3    H279341   1.048   5.760   2.818  0.1202 -0.7156 -1.8391
19284TIP3   OH279342   1.858   4.965  13.695 -0.2220 -0.5270 -0.5321
19284TIP3    H179343   1.891   4.988  13.782  2.4623 -1.3917 -1.2189
19284TIP3    H279344   1.854   4.870  13.696  0.1592 -0.5597 -1.4280
19285TIP3   OH279345   1.224   5.740  11.818  0.3401  0.6953 -0.2482
19285TIP3    H179346   1.276   5.670  11.858 -0.4045 -1.8021 -3.1891
19285TIP3    H279347   1.287   5.793  11.770  0.7390  1.0964  0.7012
19286TIP3   OH279348   1.908   0.382   4.176 -0.0437  0.2444 -0.4234
19286TIP3    H179349   1.989   0.378   4.124  0.7926  2.3990  0.5809
19286TIP3    H279350   1.936   0.358   4.264 -1.0084 -1.2387 -0.4883
19287TIP3   OH279351   2.154   5.189  15.589 -0.3862 -0.1273  0.9234
19287TIP3    H179352   2.123   5.252  15.654 -0.4142  1.4779 -0.5743
19287TIP3    H279353   2.090   5.193  15.518  1.4764  0.9113 -0.8177
19288TIP3   OH279354   0.092   4.131   1.695  0.0884  0.1250  0.1507
19288TIP3    H179355   0.009   4.117   1.651  0.3202  1.3308 -0.7058
19288TIP3    H279356   0.131   4.207   1.652  1.9234 -0.7632  0.1010
19289TIP3   OH279357   2.307   5.747   2.357  0.1703 -0.0511  0.6439
19289TIP3    H179358   2.296   5.665   2.404 -0.1240 -0.0459  0.5889
19289TIP3    H279359   2.347   5.806   2.420  0.7611 -0.3563  0.5572
19290TIP3   OH279360   6.614   3.180  14.686 -0.7762  0.4380  0.6702
19290TIP3    H179361   6.699   3.190  14.728 -0.8303 -0.1854  0.9401
19290TIP3    H279362   6.559   3.139  14.753 -0.9076 -0.4080  0.0632
19291TIP3   OH279363   3.590   3.312  15.164  0.3147 -0.4187  0.0517
19291TIP3    H179364   3.664   3.269  15.120  0.7829 -0.4437  0.8456
19291TIP3    H279365   3.517   3.250  15.154  0.1227  0.0044 -1.5364
19292TIP3   OH279366   0.448   1.308   2.846 -0.2449  0.1662  0.1879
19292TIP3    H179367   0.494   1.224   2.849  1.3784  0.9963 -0.2326
19292TIP3    H279368   0.485   1.358   2.919  0.9346  1.5209 -1.2743
19293TIP3   OH279369   6.201   4.250  13.565  0.3316 -0.0780  0.0608
19293TIP3    H179370   6.189   4.293  13.480  0.2519  0.0501  0.1357
19293TIP3    H279371   6.243   4.317  13.619  0.2220 -0.0992  0.1726
19294TIP3   OH279372   5.489   1.399  16.491  0.2928 -0.1998  0.0125
19294TIP3    H179373   5.475   1.408  16.585 -1.1500 -0.4711 -0.1544
19294TIP3    H279374   5.431   1.465  16.452 -0.0690 -0.9485 -0.7339
19295TIP3   OH279375   0.188   6.633   2.226  0.8810  0.4010 -0.0344
19295TIP3    H179376   0.180   6.711   2.171 -0.7018  0.4461  0.2132
19295TIP3    H279377   0.172   6.560   2.166 -0.5282  0.4350  0.2675
19296TIP3   OH279378   3.924   5.156  12.186 -0.1562 -0.6985  0.0639
19296TIP3    H179379   3.980   5.232  12.171 -0.3034 -0.4202  0.8824
19296TIP3    H279380   3.914   5.152  12.281 -1.6434 -0.6557 -0.0746
19297TIP3   OH279381   2.179   2.390   3.335  0.3588 -0.1263  0.5471
19297TIP3    H179382   2.226   2.312   3.307  0.9171  0.3990  0.0089
19297TIP3    H279383   2.112   2.357   3.396  0.2708 -1.0726 -0.0459
19298TIP3   OH279384   0.700   2.095  10.906 -0.2417 -0.1734 -0.0812
19298TIP3    H179385   0.743   2.173  10.942 -0.4549 -0.3888  0.6640
19298TIP3    H279386   0.608   2.120  10.897 -1.1731 -1.4645  3.8406
19299TIP3   OH279387   6.303   0.762  12.535 -0.3012 -0.5953 -0.0026
19299TIP3    H179388   6.321   0.674  12.568  1.2003 -0.8756 -1.4388
19299TIP3    H279389   6.242   0.749  12.463 -1.5370 -0.2325  0.9315
19300TIP3   OH279390   4.626   0.639   3.417  0.0001  0.6132  0.1963
19300TIP3    H179391   4.659   0.619   3.329 -0.7875  0.5243 -0.0822
19300TIP3    H279392   4.704   0.633   3.473  0.6533  1.3905 -0.5998
19301TIP3   OH279393   6.446   1.230  15.914  0.3963  0.0464  0.7206
19301TIP3    H179394   6.450   1.245  16.009 -0.0433 -0.6130  0.8521
19301TIP3    H279395   6.503   1.154  15.900 -0.0082 -0.2256  0.5451
19302TIP3   OH279396   2.450   4.835  15.983 -0.5157  0.2217 -0.4363
19302TIP3    H179397   2.364   4.797  15.999 -0.0946 -1.3739 -1.6863
19302TIP3    H279398   2.436   4.901  15.916 -0.6062 -0.9222 -1.5695
19303TIP3   OH279399   1.365   0.624  12.438 -0.0270 -0.4599 -0.0417
19303TIP3    H179400   1.367   0.539  12.482 -0.5584 -0.3310  0.2486
19303TIP3    H279401   1.335   0.685  12.506 -1.8511 -0.4246 -0.8065
19304TIP3   OH279402   5.939   6.116   0.147 -0.0383  0.7515 -0.1477
19304TIP3    H179403   6.014   6.138   0.202  2.5216 -0.8400 -2.7140
19304TIP3    H279404   5.959   6.156   0.062 -1.3350 -0.9759 -1.3541
19305TIP3   OH279405   0.687   6.540   1.696 -0.7733  0.3999 -0.0199
19305TIP3    H179406   0.715   6.499   1.778 -0.9559  1.7216  0.7202
19305TIP3    H279407   0.757   6.601   1.675  0.3561 -1.4343 -2.0471
19306TIP3   OH279408   4.939   4.888   5.360  0.2424  0.1040  0.3744
19306TIP3    H179409   4.858   4.895   5.409 -0.1403  0.6278 -0.3084
19306TIP3    H279410   5.003   4.856   5.423 -0.2217  0.8051  1.2223
19307TIP3   OH279411   3.437   4.267   3.135  0.3623 -0.3317 -0.0138
19307TIP3    H179412   3.346   4.247   3.111 -0.0648 -1.3448  2.2141
19307TIP3    H279413   3.447   4.360   3.114 -1.7734  0.2832  1.3009
19308TIP3   OH279414   5.887   0.486   0.737  0.6163  0.2203  0.0408
19308TIP3    H179415   5.916   0.487   0.828 -0.5323  0.1232  0.4158
19308TIP3    H279416   5.797   0.455   0.740  1.0350 -1.2837 -1.2837
19309TIP3   OH279417   0.848   3.566  16.210 -0.1037  0.4187  0.1731
19309TIP3    H179418   0.835   3.477  16.241  0.7934  0.4024  0.5224
19309TIP3    H279419   0.760   3.596  16.185 -0.4965 -0.3500  0.6090
19310TIP3   OH279420   4.178   0.904   4.490  0.2747  0.5621  0.1527
19310TIP3    H179421   4.101   0.877   4.439 -0.3315  1.3501  0.6479
19310TIP3    H279422   4.158   0.991   4.521  0.7052  0.1532  1.6482
19311TIP3   OH279423   2.593   0.639  11.924 -0.0958 -0.4526  0.2825
19311TIP3    H179424   2.591   0.573  11.855 -1.6234  0.5065 -0.6570
19311TIP3    H279425   2.664   0.698  11.898 -1.0459  0.2390 -0.8613
19312TIP3   OH279426   1.469   1.506   3.966  0.2785 -0.2028 -0.2772
19312TIP3    H179427   1.501   1.594   3.983 -2.5044  0.5887  1.4110
19312TIP3    H279428   1.540   1.448   3.993  0.7111  1.4427  2.3862
19313TIP3   OH279429   2.194   0.302   1.747 -0.3857 -0.1059 -0.0815
19313TIP3    H179430   2.235   0.364   1.687  0.6073 -0.4440  0.2203
19313TIP3    H279431   2.197   0.346   1.832  0.7957 -0.7481  0.2320
19314TIP3   OH279432   0.280   5.614   3.136 -0.5502 -0.3900 -0.6479
19314TIP3    H179433   0.188   5.637   3.150 -0.2525  0.8110 -0.5576
19314TIP3    H279434   0.325   5.647   3.213 -0.0806 -1.3176 -0.5107
19315TIP3   OH279435   4.012   0.318   1.361 -0.0046 -0.1342  0.3957
19315TIP3    H179436   4.083   0.275   1.314  0.2771  0.4193  0.3118
19315TIP3    H279437   4.056   0.372   1.427 -0.3924 -1.6786  2.0378
19316TIP3   OH279438   4.847   5.977  15.623  0.1746 -0.0150 -0.0947
19316TIP3    H179439   4.825   5.994  15.532 -0.0540 -0.7862 -0.1885
19316TIP3    H279440   4.811   6.052  15.671  0.6726  0.6106 -0.6747
19317TIP3   OH279441   6.395   1.082  13.501  0.5216 -0.7938 -0.1399
19317TIP3    H179442   6.339   1.065  13.576 -0.3190 -0.0285 -0.5783
19317TIP3    H279443   6.373   1.014  13.438  1.7952 -1.9208  0.5828
19318TIP3   OH279444   1.269   5.551   2.487 -0.4595 -0.6263 -0.9366
19318TIP3    H179445   1.194   5.571   2.432  1.2607 -1.0223 -3.6174
19318TIP3    H279446   1.338   5.524   2.426  1.5587 -1.3315  1.4449
19319TIP3   OH279447   6.776   1.935  10.347 -0.0309  0.1158 -0.0089
19319TIP3    H179448   6.854   1.990  10.356  0.0522  0.0224 -0.1646
19319TIP3    H279449   6.794   1.859  10.404 -0.0525  0.1444  0.0361
19320TIP3   OH279450   3.612   4.899  11.803  0.2315 -0.1913 -0.1337
19320TIP3    H179451   3.617   4.895  11.898 -1.1845 -1.5980 -0.0735
19320TIP3    H279452   3.592   4.810  11.776  1.7966 -0.0778 -1.8720
19321TIP3   OH279453   3.017   6.796  15.876  0.3619  0.1927 -0.0413
19321TIP3    H179454   2.966   6.782  15.956  0.3371 -0.2993 -0.1441
19321TIP3    H279455   3.096   6.744  15.889  0.1283 -0.2925 -0.5540
19322TIP3   OH279456   3.909   1.777   3.073  0.1017  0.4965  0.3065
19322TIP3    H179457   3.921   1.747   2.983 -1.1549  1.1000 -0.0931
19322TIP3    H279458   3.928   1.700   3.127 -1.2955 -0.5427 -0.5982
19323TIP3   OH279459   3.770   1.302  12.587 -0.2043 -0.0641  0.5525
19323TIP3    H179460   3.810   1.379  12.627 -2.2348  0.4944  1.6094
19323TIP3    H279461   3.684   1.295  12.627 -0.2164 -2.7352  0.2798
19324TIP3   OH279462   5.953   0.606  16.835  0.0909  0.4439 -0.2463
19324TIP3    H179463   6.046   0.603  16.857  0.2126 -0.2218 -0.8060
19324TIP3    H279464   5.948   0.669  16.763 -0.1246  1.6429  0.7798
19325TIP3   OH279465   1.587   6.529   5.459 -0.1931  0.3788  0.9380
19325TIP3    H179466   1.627   6.563   5.380 -0.8968  0.0773  0.4367
19325TIP3    H279467   1.604   6.435   5.456 -2.7521 -0.1363 -0.4339
19326TIP3   OH279468   5.124   3.341  15.995  0.4570  0.0341 -0.2947
19326TIP3    H179469   5.058   3.330  15.926 -0.8811  2.9572  0.3459
19326TIP3    H279470   5.193   3.393  15.955 -0.3621  1.8139  0.5047
19327TIP3   OH279471   3.103   0.520  12.821  0.0733  0.4365  0.3236
19327TIP3    H179472   3.105   0.424  12.823  1.2610  0.4572  0.9295
19327TIP3    H279473   3.018   0.542  12.859 -0.3716 -0.3674 -0.1535
19328TIP3   OH279474   5.978   6.426   0.802 -0.1130 -0.1376  0.0785
19328TIP3    H179475   5.971   6.335   0.830 -1.8061  0.0349  0.2820
19328TIP3    H279476   6.013   6.420   0.713  3.1156 -0.7802  1.2546
19329TIP3   OH279477   5.543   5.705   0.812 -0.5195 -0.1061 -0.1680
19329TIP3    H179478   5.631   5.697   0.775 -0.1311  0.6448  0.5628
19329TIP3    H279479   5.530   5.625   0.862  0.4941  0.5586  1.2296
19330TIP3   OH279480   0.905   4.115   2.322 -0.9286  0.1496 -0.1476
19330TIP3    H179481   0.913   4.021   2.341 -1.5107  0.1691  0.2113
19330TIP3    H279482   0.883   4.118   2.229  0.3439 -0.0110 -0.4771
19331TIP3   OH279483   1.985   4.651  12.134 -0.2313  0.3993 -0.0581
19331TIP3    H179484   2.063   4.706  12.141 -1.3835  2.0275  0.4335
19331TIP3    H279485   1.913   4.712  12.122 -1.7336 -0.9054  1.7494
19332TIP3   OH279486   1.669   5.487   2.590  0.4961 -0.1635  0.6563
19332TIP3    H179487   1.596   5.538   2.625  0.8244 -0.0878  1.2370
19332TIP3    H279488   1.676   5.515   2.499  1.1698  1.4087  1.1633
19333TIP3   OH279489   2.008   0.055   5.318 -0.0143  0.1731  0.2816
19333TIP3    H179490   1.918   0.027   5.300  0.0469 -1.1477  1.8257
19333TIP3    H279491   2.015   0.140   5.274 -1.5456 -0.3417 -1.0761
19334TIP3   OH279492   2.446   4.078  14.785 -0.3836 -0.0303 -0.1573
19334TIP3    H179493   2.354   4.053  14.779 -1.2547  3.0360 -1.3686
19334TIP3    H279494   2.476   4.083  14.695  0.2885  1.1555  0.1021
19335TIP3   OH279495   2.465   3.847   4.019 -0.2230  0.1644 -0.3044
19335TIP3    H179496   2.465   3.757   4.053 -0.3740  0.1932 -0.2283
19335TIP3    H279497   2.416   3.897   4.084  1.3624  0.6461  0.5922
19336TIP3   OH279498   0.313   5.241  16.500 -0.4346 -0.3207 -0.2366
19336TIP3    H179499   0.282   5.331  16.496  1.1259  0.2990  0.7443
19336TIP3    H279500   0.355   5.226  16.415  0.1333  0.2043 -0.0522
19337TIP3   OH279501   1.098   5.532  14.084  0.0131  0.3268 -0.1095
19337TIP3    H179502   1.179   5.482  14.076 -0.5218 -0.2592 -2.6740
19337TIP3    H279503   1.124   5.622  14.060 -0.1120  0.0865 -1.1972
19338TIP3   OH279504   2.864   5.552  13.075 -0.2116 -0.3393 -0.1191
19338TIP3    H179505   2.918   5.483  13.035  0.2745 -0.2727  0.4048
19338TIP3    H279506   2.854   5.524  13.166  0.0913  0.3330  0.1275
19339TIP3   OH279507   1.300   4.435   2.876  0.3086  0.1509  0.6501
19339TIP3    H179508   1.250   4.446   2.795 -0.6236 -0.9359  1.0487
19339TIP3    H279509   1.331   4.523   2.897 -1.8822  1.0012  0.6244
19340TIP3   OH279510   1.100   1.814  13.746  0.7985  0.2638  0.2000
19340TIP3    H179511   1.117   1.778  13.833  1.2125  0.4539  0.2012
19340TIP3    H279512   1.174   1.873  13.730 -0.0899  1.4784  0.4015
19341TIP3   OH279513   5.137   3.539  11.905 -0.4459 -0.4165  0.3430
19341TIP3    H179514   5.097   3.457  11.933 -2.9106  0.7778  0.5897
19341TIP3    H279515   5.087   3.566  11.828  1.5612 -0.0410 -0.9142
19342TIP3   OH279516   3.994   4.953   6.417 -0.3800  0.0076 -0.1348
19342TIP3    H179517   4.059   4.981   6.352 -0.2160  1.4719  0.6049
19342TIP3    H279518   3.937   4.893   6.370 -0.5422  1.3921 -1.7816
19343TIP3   OH279519   4.788   2.567  16.059  0.3285  0.4580 -0.6615
19343TIP3    H179520   4.703   2.609  16.068 -0.7287 -1.7629  0.5634
19343TIP3    H279521   4.795   2.547  15.966 -1.2272 -0.6708 -0.5784
19344TIP3   OH279522   5.416   0.870  14.651 -0.0053  0.2092  0.4848
19344TIP3    H179523   5.326   0.894  14.674 -0.1897  0.7159 -0.7048
19344TIP3    H279524   5.416   0.775  14.651 -0.8361  0.1868 -0.4924
19345TIP3   OH279525   0.076   4.802  11.781 -0.7583 -0.1984  0.1578
19345TIP3    H179526   0.172   4.793  11.783 -0.8107 -0.8303  0.0204
19345TIP3    H279527   0.055   4.852  11.860 -0.4514 -1.4837  1.0834
19346TIP3   OH279528   3.513   3.455   5.484 -0.1510 -0.0621  0.1756
19346TIP3    H179529   3.429   3.471   5.526  0.3765  1.0142  0.8686
19346TIP3    H279530   3.492   3.402   5.407 -1.3013 -0.9127  1.0320
19347TIP3   OH279531   4.815   6.165  14.908  0.9636 -0.1207 -0.0478
19347TIP3    H179532   4.777   6.078  14.894  0.6791 -0.3335  1.7916
19347TIP3    H279533   4.910   6.150  14.904  0.9137 -0.4852  0.1113
19348TIP3   OH279534   6.675   0.549   2.729  0.3405 -0.1862 -0.2839
19348TIP3    H179535   6.614   0.530   2.658 -0.2166  1.7771 -0.3944
19348TIP3    H279536   6.619   0.579   2.801  0.8472 -2.6470  1.2356
19349TIP3   OH279537   5.218   4.804  14.177  0.3766 -0.0796 -0.5189
19349TIP3    H179538   5.297   4.787  14.228  0.7887  1.5650 -0.5476
19349TIP3    H279539   5.147   4.800  14.241  0.8632  1.7334  0.2303
19350TIP3   OH279540   3.935   2.836  17.126  0.0854 -0.6998 -0.5860
19350TIP3    H179541   4.021   2.844  17.085 -0.1929 -0.2275 -1.0832
19350TIP3    H279542   3.918   2.741  17.128  1.9036 -1.0742  2.2562
19351TIP3   OH279543   2.738   5.769  15.271  0.1659 -0.3540  0.5354
19351TIP3    H179544   2.805   5.760  15.203  1.5978 -0.0029  1.8375
19351TIP3    H279545   2.672   5.827  15.232  1.1628  0.1871 -0.3924
19352TIP3   OH279546   6.483   4.298  11.078 -0.5298 -0.2184  0.0765
19352TIP3    H179547   6.474   4.237  11.151 -1.3624  0.6434  0.7237
19352TIP3    H279548   6.429   4.373  11.103  2.0798  1.7208  0.3195
19353TIP3   OH279549   0.955   5.586   3.478 -0.2483  0.0693 -0.2832
19353TIP3    H179550   1.007   5.524   3.426 -1.1379 -1.5270  0.6806
19353TIP3    H279551   0.877   5.537   3.504  0.6976  0.3246  3.6485
19354TIP3   OH279552   5.103   0.816  16.154  0.1446  0.0208 -0.1643
19354TIP3    H179553   5.087   0.722  16.156  0.5249 -0.0279  1.4527
19354TIP3    H279554   5.023   0.854  16.117  0.3271 -0.9695 -1.6898
19355TIP3   OH279555   5.638   0.705  16.491 -0.3881 -0.0982  0.8610
19355TIP3    H179556   5.710   0.723  16.552 -0.2420  0.6527  0.4794
19355TIP3    H279557   5.634   0.610  16.487  2.1673 -0.2304 -0.9305
19356TIP3   OH279558   4.537   4.309  14.384  0.7698  0.4617 -0.2052
19356TIP3    H179559   4.512   4.216  14.389  2.0503  0.0075 -1.5319
19356TIP3    H279560   4.463   4.352  14.342  0.4752 -0.1048 -0.2759
19357TIP3   OH279561   2.420   3.018  14.768 -0.0812 -0.3295  0.1792
19357TIP3    H179562   2.473   2.949  14.729  0.9095  0.2091  0.5335
19357TIP3    H279563   2.371   2.974  14.837  1.1935 -0.5455  0.9809
19358TIP3   OH279564   2.196   2.543  11.194  0.3690  0.4032  0.1855
19358TIP3    H179565   2.267   2.495  11.152 -0.4951  0.4913 -1.4413
19358TIP3    H279566   2.156   2.594  11.124 -0.1714  1.7782  1.4197
19359TIP3   OH279567   0.887   1.114   0.353 -0.0180  0.1473 -0.5259
19359TIP3    H179568   0.960   1.169   0.382  0.4495 -0.6616 -0.1286
19359TIP3    H279569   0.810   1.169   0.365  0.3775  0.5227  0.4238
19360TIP3   OH279570   0.413   0.726  15.428 -0.1853  0.0493 -0.0527
19360TIP3    H179571   0.505   0.707  15.411 -0.0071  0.3342  0.5631
19360TIP3    H279572   0.368   0.706  15.345  0.6379  1.3227 -0.8306
19361TIP3   OH279573   1.670   3.385   0.374  0.1453  0.2845 -0.2681
19361TIP3    H179574   1.647   3.335   0.296 -0.5469 -2.3134  1.4433
19361TIP3    H279575   1.757   3.352   0.398 -0.4338 -0.3825  1.0350
19362TIP3   OH279576   3.135   4.889  14.435  0.0901  0.6266  0.0803
19362TIP3    H179577   3.069   4.821  14.420 -0.8202  1.3685  0.6462
19362TIP3    H279578   3.138   4.900  14.530 -0.6959  2.2516 -0.0548
19363TIP3   OH279579   4.824   4.397   3.276  0.2373 -0.3439  0.3742
19363TIP3    H179580   4.857   4.323   3.224  0.4713  0.1460 -0.1841
19363TIP3    H279581   4.742   4.365   3.313  0.9431 -1.3205  1.1622
19364TIP3   OH279582   2.371   3.724  13.566 -0.3499 -0.1470 -0.4329
19364TIP3    H179583   2.350   3.816  13.546 -1.6637 -0.4524 -0.5595
19364TIP3    H279584   2.407   3.726  13.654 -2.1606  0.3047  0.3413
19365TIP3   OH279585   4.500   5.883   3.317  0.1658  0.1526 -0.0696
19365TIP3    H179586   4.426   5.827   3.294  0.7957 -0.0873 -1.6583
19365TIP3    H279587   4.562   5.824   3.359  0.7680 -0.3598 -1.6112
19366TIP3   OH279588   5.024   4.770   2.601  0.8081  0.0883  0.3883
19366TIP3    H179589   4.936   4.800   2.623  0.1163 -0.3200 -1.6853
19366TIP3    H279590   5.055   4.727   2.681 -0.5461  0.9186  1.3927
19367TIP3   OH279591   2.641   2.571  17.048  0.2706  0.3728  0.2696
19367TIP3    H179592   2.568   2.609  17.097  0.2470  1.1651 -0.3429
19367TIP3    H279593   2.714   2.631  17.063  0.3417  0.4717 -0.4086
19368TIP3   OH279594   6.743   0.575   1.898 -0.0216  0.3780  0.0409
19368TIP3    H179595   6.710   0.491   1.928  0.1563 -0.2714 -1.4727
19368TIP3    H279596   6.829   0.584   1.939 -0.8430  0.7808  1.7756
19369TIP3   OH279597   1.234   2.423   2.803 -0.0847  0.2097  0.1675
19369TIP3    H179598   1.315   2.418   2.854  0.2348 -1.5646 -0.4441
19369TIP3    H279599   1.192   2.338   2.817 -0.4317  0.0256 -1.7787
19370TIP3   OH279600   6.396   1.163  12.994  0.1818 -0.6185 -0.6577
19370TIP3    H179601   6.426   1.180  13.083  0.2860 -0.9527 -0.6291
19370TIP3    H279602   6.304   1.138  13.004 -0.2008  0.6673 -0.7695
19371TIP3   OH279603   0.249   1.247   1.699 -0.0445 -0.6294  0.0373
19371TIP3    H179604   0.279   1.184   1.765 -0.8596 -1.8708 -0.7331
19371TIP3    H279605   0.154   1.234   1.696 -0.7166  2.6928  1.9225
19372TIP3   OH279606   3.643   0.263   0.847  0.5772 -0.7649  0.0511
19372TIP3    H179607   3.701   0.193   0.877  1.4585  0.1292  0.4823
19372TIP3    H279608   3.555   0.224   0.850  1.1402 -2.1995 -0.7503
19373TIP3   OH279609   1.759   6.170   6.269  0.5617 -0.1424  0.5496
19373TIP3    H179610   1.671   6.203   6.291  0.5821  0.1761  0.1609
19373TIP3    H279611   1.814   6.202   6.340  0.3253 -0.5268  0.9104
19374TIP3   OH279612   0.129   0.551   1.018 -0.2372 -0.2188 -0.2055
19374TIP3    H179613   0.174   0.528   1.099 -0.4099  2.0663  0.6280
19374TIP3    H279614   0.038   0.526   1.034 -0.1246 -0.4973  0.0019
19375TIP3   OH279615   0.145   4.861  12.683  0.2255 -0.3803  0.5389
19375TIP3    H179616   0.083   4.818  12.741 -0.7157 -0.3290 -0.3962
19375TIP3    H279617   0.167   4.943  12.726 -1.2314  0.1149  0.3731
19376TIP3   OH279618   2.719   4.216   1.049 -0.1768 -0.4521 -0.5719
19376TIP3    H179619   2.710   4.274   1.125 -1.9662 -0.8699 -0.4116
19376TIP3    H279620   2.806   4.234   1.015  0.2391  0.5597  0.9157
19377TIP3   OH279621   4.169   1.719  14.222  0.4383 -0.2130  0.1098
19377TIP3    H179622   4.258   1.752  14.225  0.3174  0.0665  1.3570
19377TIP3    H279623   4.176   1.626  14.245  0.3625 -0.0494  0.8294
19378TIP3   OH279624   2.574   0.998   0.104  0.6937  0.6341 -0.0333
19378TIP3    H179625   2.614   0.916   0.133 -0.3795 -0.2315 -0.9016
19378TIP3    H279626   2.599   1.006   0.012  0.8524  1.3270  0.0637
19379TIP3   OH279627   5.448   0.410  16.677 -0.2472 -0.0131 -0.4292
19379TIP3    H179628   5.437   0.463  16.756  0.9669  0.1311 -0.3321
19379TIP3    H279629   5.402   0.458  16.608  2.0949  2.0558 -0.7013
19380TIP3   OH279630   4.813   1.116  13.758  0.2687  0.2959 -0.8059
19380TIP3    H179631   4.794   1.070  13.839 -0.3961 -0.1203 -1.1833
19380TIP3    H279632   4.735   1.103  13.704  0.4042  1.1625 -1.2436
19381TIP3   OH279633   6.101   5.832   5.042  0.4636  0.0799  0.0499
19381TIP3    H179634   6.122   5.920   5.072  1.3285 -0.0722 -0.0952
19381TIP3    H279635   6.019   5.842   4.994  1.3452  1.0925 -1.3041
19382TIP3   OH279636   0.613   5.105  12.110  0.4582  0.2176  0.4368
19382TIP3    H179637   0.671   5.053  12.054 -0.6291 -0.5184 -0.0352
19382TIP3    H279638   0.639   5.082  12.199  0.5670 -0.4943  0.2291
19383TIP3   OH279639   6.641   2.855   0.233  0.1972  0.0683 -0.1336
19383TIP3    H179640   6.732   2.863   0.260  0.4150 -0.1065 -0.8259
19383TIP3    H279641   6.593   2.849   0.316  0.6479  1.8121  0.2841
19384TIP3   OH279642   6.064   6.017   4.620 -0.0779 -0.1571  0.1845
19384TIP3    H179643   6.109   5.973   4.691 -0.9344 -0.5698  0.4817
19384TIP3    H279644   6.065   5.954   4.548 -4.3256 -2.2527  1.6411
19385TIP3   OH279645   0.054   4.824  11.162  0.1290 -0.0318  0.3955
19385TIP3    H179646   0.033   4.745  11.210  1.2255 -0.4917  0.1672
19385TIP3    H279647   0.136   4.855  11.201  0.2285  0.4313 -0.1556
19386TIP3   OH279648   4.796   3.480   3.645 -0.2136  0.1434  0.1333
19386TIP3    H179649   4.727   3.414   3.640  0.6517 -0.6992 -1.2748
19386TIP3    H279650   4.848   3.466   3.566 -0.6952  3.2902 -0.9021
19387TIP3   OH279651   0.645   0.035   5.551 -0.2927  0.5710 -0.1540
19387TIP3    H179652   0.587   0.027   5.475  1.3411  0.0182 -1.3993
19387TIP3    H279653   0.664   0.129   5.556 -0.1523  0.5687 -0.6213
19388TIP3   OH279654   4.170   5.448  17.139 -0.1805 -0.0550 -0.3106
19388TIP3    H179655   4.076   5.465  17.141 -0.1579  0.0489 -0.1768
19388TIP3    H279656   4.210   5.526  17.177 -0.0595 -0.2415 -0.0504
19389TIP3   OH279657   3.726   4.287   4.271 -0.9847 -0.2547  0.0713
19389TIP3    H179658   3.744   4.370   4.229  1.5697  0.4153  2.1929
19389TIP3    H279659   3.682   4.310   4.353 -1.7032 -1.1534 -0.0365
19390TIP3   OH279660   4.255   2.412  12.571 -0.2201 -0.1912  0.1306
19390TIP3    H179661   4.240   2.323  12.541  0.8427 -0.5386  0.5959
19390TIP3    H279662   4.197   2.466  12.517 -4.4061 -1.5216  2.7939
19391TIP3   OH279663   5.244   6.633  15.238 -0.3595  0.1438  0.3264
19391TIP3    H179664   5.287   6.694  15.298  1.4301 -1.3166  0.6224
19391TIP3    H279665   5.159   6.617  15.279  0.0399  0.7084  1.4402
19392TIP3   OH279666   6.844   3.100   2.572 -0.2243  0.2203 -0.0402
19392TIP3    H179667   6.782   3.111   2.645  1.4046 -2.5919  2.0114
19392TIP3    H279668   6.929   3.119   2.611  0.5419  0.3933 -1.7505
19393TIP3   OH279669   1.867   0.538  11.704  0.8708  0.5912 -0.1458
19393TIP3    H179670   1.887   0.552  11.797  0.2832  0.1774  0.0491
19393TIP3    H279671   1.923   0.600  11.658  0.7145  1.2418  0.5186
19394TIP3   OH279672   5.213   4.342   2.643 -0.0790 -0.2928 -0.0311
19394TIP3    H179673   5.125   4.346   2.606 -0.1584 -0.7536  0.1005
19394TIP3    H279674   5.248   4.258   2.612 -0.2008 -0.7566  1.0367
19395TIP3   OH279675   1.034   1.776  14.719  0.3911  0.3296  0.4068
19395TIP3    H179676   0.966   1.839  14.692 -0.0685 -0.0919  0.5607
19395TIP3    H279677   1.116   1.814  14.687  0.1562  1.1599  0.7731
19396TIP3   OH279678   4.555   3.691   1.349  0.5043 -0.5803  0.2544
19396TIP3    H179679   4.622   3.623   1.358  2.2844  0.7397 -1.9416
19396TIP3    H279680   4.496   3.659   1.282 -1.2963 -1.8177  2.3071
19397TIP3   OH279681   5.834   3.035   1.617  0.1528 -0.3884 -0.6367
19397TIP3    H179682   5.912   2.989   1.649 -0.4200 -0.7852  0.2721
19397TIP3    H279683   5.859   3.071   1.533  1.7428  0.6415  0.2237
19398TIP3   OH279684   4.199   5.269   2.187 -0.4298  0.3888 -0.2736
19398TIP3    H179685   4.280   5.237   2.228 -1.2291 -3.5431 -1.3418
19398TIP3    H279686   4.131   5.247   2.250 -0.9653  1.3046 -0.5113
19399TIP3   OH279687   1.884   2.904  10.429 -0.2917 -0.3489 -0.2823
19399TIP3    H179688   1.826   2.858  10.489 -1.3013  0.3491 -0.7149
19399TIP3    H279689   1.873   2.996  10.449 -1.0525 -0.0639 -1.8789
19400TIP3   OH279690   6.375   0.646   0.302 -0.1460 -0.0335 -0.1135
19400TIP3    H179691   6.380   0.689   0.388 -1.5637 -1.8082  0.9387
19400TIP3    H279692   6.454   0.593   0.296 -0.2975 -0.3254  0.3706
19401TIP3   OH279693   2.933   0.626   4.094 -0.1168 -0.6027  0.2157
19401TIP3    H179694   3.011   0.573   4.084 -1.1173 -1.9364 -0.9025
19401TIP3    H279695   2.963   0.716   4.080  1.1395 -1.1341 -0.6702
19402TIP3   OH279696   3.690   3.161  12.613 -0.9857  0.1409 -0.2860
19402TIP3    H179697   3.610   3.186  12.567  0.4151 -0.4418 -3.2253
19402TIP3    H279698   3.724   3.244  12.647 -2.3101  0.5182  0.1958
19403TIP3   OH279699   6.081   0.007  11.661  0.3355 -0.6307 -0.7822
19403TIP3    H179700   6.161   0.039  11.702 -0.1240  0.5821 -0.7863
19403TIP3    H279701   6.022  -0.011  11.734  0.2429 -0.4693 -0.8150
19404TIP3   OH279702   5.662   1.616  15.418  0.5024 -0.0358  0.7782
19404TIP3    H179703   5.736   1.672  15.442 -1.4562  2.0309  2.4805
19404TIP3    H279704   5.634   1.649  15.333  2.0666 -1.5238 -0.3918
19405TIP3   OH279705   6.194   2.468   4.940 -0.1355 -0.6206 -0.5215
19405TIP3    H179706   6.231   2.520   4.868 -1.8330 -0.5181 -1.3646
19405TIP3    H279707   6.200   2.378   4.910  2.2979 -0.9549  0.7095
19406TIP3   OH279708   2.857   0.965  14.162  0.2245 -0.3040 -0.3571
19406TIP3    H179709   2.773   0.920  14.172  0.2009 -0.2412 -0.2744
19406TIP3    H279710   2.921   0.907  14.202  0.1066  0.0290  0.3250
19407TIP3   OH279711   6.738   2.769  14.620  0.9974 -0.0517  0.4091
19407TIP3    H179712   6.649   2.775  14.587  2.2675  2.0769 -3.1754
19407TIP3    H279713   6.733   2.804  14.709 -1.5507  1.1852 -0.1337
19408TIP3   OH279714   2.930   3.781   5.826  0.2468  0.1078  0.2593
19408TIP3    H179715   3.013   3.826   5.807  1.5770 -2.3650 -0.1544
19408TIP3    H279716   2.898   3.753   5.740 -0.3355 -0.0897  0.5362
19409TIP3   OH279717   3.161   0.732   3.850  0.1591  0.1790  0.1672
19409TIP3    H179718   3.160   0.822   3.882  0.4006 -0.3846  1.8389
19409TIP3    H279719   3.237   0.692   3.892 -0.7220 -1.1730  0.5258
19410TIP3   OH279720   2.695   4.334  11.684  0.2230  0.2906 -0.1785
19410TIP3    H179721   2.747   4.255  11.697 -1.3865 -1.0958 -1.6817
19410TIP3    H279722   2.710   4.386  11.764  0.2706 -2.1350  1.4885
19411TIP3   OH279723   5.923   1.461   3.058 -0.0793  0.0434  0.1245
19411TIP3    H179724   5.971   1.522   3.113 -0.6842  0.4597  0.2076
19411TIP3    H279725   5.978   1.449   2.981  0.8525 -0.6787  0.8821
19412TIP3   OH279726   5.322   2.309   3.767 -0.0702 -0.2636  0.7244
19412TIP3    H179727   5.294   2.313   3.676  0.8632  0.5386  0.4535
19412TIP3    H279728   5.261   2.367   3.814 -1.8770 -2.2893  1.0109
19413TIP3   OH279729   2.085   6.508  15.395  0.1875  0.5253  0.1303
19413TIP3    H179730   2.002   6.553  15.379  0.2826  0.5854 -0.1925
19413TIP3    H279731   2.105   6.526  15.487 -1.3328 -1.4128  0.9178
19414TIP3   OH279732   1.415   4.794   7.117 -0.4633 -0.3440 -0.6344
19414TIP3    H179733   1.389   4.705   7.141  0.1863 -0.8184 -1.6403
19414TIP3    H279734   1.338   4.831   7.075 -0.3059 -0.8996 -1.4225
19415TIP3   OH279735   3.419   2.509   5.405 -0.3054  0.3324  0.2823
19415TIP3    H179736   3.387   2.527   5.317  0.5219 -0.3594 -0.1734
19415TIP3    H279737   3.479   2.436   5.395  2.1162  2.1048  0.9353
19416TIP3   OH279738   3.330   0.420   3.391 -0.0800  0.0969  0.0516
19416TIP3    H179739   3.247   0.464   3.411 -0.1610  0.3671 -0.8418
19416TIP3    H279740   3.370   0.474   3.322  0.2749 -0.6936 -0.3787
19417TIP3   OH279741   3.691   1.329   0.399  0.3995 -0.2532 -0.4842
19417TIP3    H179742   3.766   1.361   0.449 -0.3864 -0.5585  0.9540
19417TIP3    H279743   3.665   1.403   0.345  0.3254  0.6243  0.7203
19418TIP3   OH279744   6.317   5.470  12.195  0.1279 -0.0348  0.1032
19418TIP3    H179745   6.254   5.398  12.200  1.1795 -1.1158 -1.3892
19418TIP3    H279746   6.377   5.455  12.268 -1.1188  0.8506  1.3724
19419TIP3   OH279747   3.213   2.103   0.979 -0.8205  0.5911 -0.1271
19419TIP3    H179748   3.193   2.082   0.888  1.7495  0.9781 -0.8501
19419TIP3    H279749   3.263   2.028   1.011 -0.2225  1.2032  0.4048
19420TIP3   OH279750   2.454   6.538   3.101  0.3350  0.6037 -0.3167
19420TIP3    H179751   2.365   6.510   3.124  0.7176 -1.0483 -0.7549
19420TIP3    H279752   2.469   6.616   3.154 -0.8118  0.0222  0.9119
19421TIP3   OH279753   6.839   4.633  15.612 -0.2509 -0.1878 -0.2714
19421TIP3    H179754   6.844   4.726  15.636  0.9789  0.1507 -1.6400
19421TIP3    H279755   6.758   4.626  15.561 -0.4958  0.0584  0.0741
19422TIP3   OH279756   3.260   1.928  14.522  0.4164  0.7615  0.0581
19422TIP3    H179757   3.264   1.993  14.452  0.7207  0.1145 -0.5312
19422TIP3    H279758   3.220   1.975  14.595 -2.0258  0.8617 -1.2186
19423TIP3   OH279759   4.059   4.172   4.215 -0.2104  0.2318 -0.1444
19423TIP3    H179760   4.022   4.185   4.128 -1.4380 -1.3596  0.1039
19423TIP3    H279761   4.143   4.128   4.200  0.3099  1.3323 -0.5660
19424TIP3   OH279762   6.710   0.192   2.228  0.5298  0.1680  0.2302
19424TIP3    H179763   6.661   0.113   2.251  0.5694 -0.4688 -1.7235
19424TIP3    H279764   6.801   0.169   2.244  0.5321 -0.1382 -0.2217
19425TIP3   OH279765   0.316   6.096  14.724  0.4320  0.1086  0.0389
19425TIP3    H179766   0.252   6.043  14.770 -0.0898 -0.5810 -1.4384
19425TIP3    H279767   0.314   6.065  14.634  4.6932 -1.7786  0.3649
19426TIP3   OH279768   4.395   0.905   4.972 -0.1328  0.6628 -0.0619
19426TIP3    H179769   4.385   0.981   5.029 -0.8161 -0.3925  1.2641
19426TIP3    H279770   4.372   0.938   4.885 -1.5870  1.6970  0.6694
19427TIP3   OH279771   0.321   5.699   0.860 -0.2598  0.1821  0.1209
19427TIP3    H179772   0.279   5.783   0.878  0.5944  0.4030  1.1548
19427TIP3    H279773   0.404   5.722   0.819  1.6439  0.0851  3.5854
19428TIP3   OH279774   3.256   4.824  14.077  0.0643  0.2631  0.2337
19428TIP3    H179775   3.261   4.818  14.172  1.2288 -1.0232  0.1377
19428TIP3    H279776   3.185   4.764  14.052  0.2507  0.0225  0.2689
19429TIP3   OH279777   6.294   0.965  11.079  0.4575 -0.2049 -0.4387
19429TIP3    H179778   6.252   0.943  11.163 -2.2045  2.1904 -0.9884
19429TIP3    H279779   6.293   1.061  11.076  1.4668 -0.2116 -2.7555
19430TIP3   OH279780   3.310   2.931   5.296 -0.3881  0.0706  0.0511
19430TIP3    H179781   3.249   3.005   5.300 -1.2582 -0.5706 -0.8121
19430TIP3    H279782   3.376   2.958   5.233 -1.4074 -0.3608 -1.2465
19431TIP3   OH279783   5.599   6.160  11.713  0.1551  0.1782 -0.3374
19431TIP3    H179784   5.602   6.199  11.801 -0.6610 -1.2656  0.3624
19431TIP3    H279785   5.662   6.089  11.716 -0.5748 -0.4996 -0.5923
19432TIP3   OH279786   4.058   2.624   3.691 -0.0930 -0.6097  0.0019
19432TIP3    H179787   4.124   2.633   3.759 -2.7576 -0.0524  2.7026
19432TIP3    H279788   4.054   2.710   3.649 -0.4729  0.0044  1.2376
19433TIP3   OH279789   5.193   6.560  16.241  0.5079  0.1702  0.0862
19433TIP3    H179790   5.249   6.528  16.311  0.5926 -0.6558 -0.3550
19433TIP3    H279791   5.155   6.641  16.276  0.6672 -0.1515  1.0238
19434TIP3   OH279792   3.349   3.078  16.266 -0.1168 -0.3366 -0.2121
19434TIP3    H179793   3.311   3.146  16.210 -1.7646 -2.1814 -1.4775
19434TIP3    H279794   3.329   3.107  16.355  0.1152  1.3089 -0.6674
19435TIP3   OH279795   2.931   0.170  13.133  0.2725 -0.2350 -0.0891
19435TIP3    H179796   2.975   0.086  13.145  0.0757 -0.1808  1.1296
19435TIP3    H279797   2.975   0.229  13.194  1.0845  0.8354 -1.6389
19436TIP3   OH279798   0.227   1.441  14.651  0.5552 -0.2021 -0.2637
19436TIP3    H179799   0.217   1.482  14.737 -2.9666 -0.3084 -0.4730
19436TIP3    H279800   0.191   1.506  14.590  2.7865 -0.2257 -1.7147
19437TIP3   OH279801   0.131   2.377   0.522 -0.7169  0.0624  0.3063
19437TIP3    H179802   0.076   2.366   0.444 -0.8109 -0.2831  0.4184
19437TIP3    H279803   0.188   2.300   0.521 -0.2866  0.3807  0.2335
19438TIP3   OH279804   2.767   3.066   3.313  0.0050 -0.0284  0.7970
19438TIP3    H179805   2.687   3.045   3.264  1.1079 -0.5641 -0.8860
19438TIP3    H279806   2.826   3.103   3.247  0.7020  1.5763  2.2707
19439TIP3   OH279807   2.736   3.496   1.595 -0.1920  0.0350  0.0505
19439TIP3    H179808   2.726   3.474   1.688 -3.0743  0.5168 -0.0604
19439TIP3    H279809   2.737   3.592   1.594  0.4686  0.0332 -0.4036
19440TIP3   OH279810   4.048   1.232   1.420  0.6370  0.1912  0.3939
19440TIP3    H179811   4.063   1.327   1.424  0.5199  0.2750 -0.7091
19440TIP3    H279812   4.123   1.193   1.465  1.7608  0.7459 -0.9304
19441TIP3   OH279813   1.558   2.150  15.952  0.2283 -0.0276  0.4514
19441TIP3    H179814   1.527   2.091  15.883  1.5582  0.8034 -0.9048
19441TIP3    H279815   1.506   2.229  15.942 -2.3920 -1.1900  3.0092
19442TIP3   OH279816   5.964   1.790   1.485 -0.1280  0.4577 -0.1928
19442TIP3    H179817   5.907   1.851   1.439 -1.9306 -0.3904  0.8388
19442TIP3    H279818   5.938   1.796   1.577 -0.0659 -1.5122 -0.0008
19443TIP3   OH279819   1.587   2.986  15.671  0.2615  0.5304 -0.1709
19443TIP3    H179820   1.512   2.952  15.719  0.6472  0.9418  0.7522
19443TIP3    H279821   1.563   2.977  15.579 -0.9890  0.8004  0.1046
19444TIP3   OH279822   2.840   0.849  13.598  0.2890  0.2168 -0.2337
19444TIP3    H179823   2.790   0.912  13.649 -0.1842  0.9362 -1.5263
19444TIP3    H279824   2.774   0.802  13.547  0.6677 -1.1125  0.4775
19445TIP3   OH279825   5.075   4.602  14.777 -0.5840 -0.4511  0.3773
19445TIP3    H179826   5.011   4.652  14.828 -1.8674 -0.2607 -1.3431
19445TIP3    H279827   5.149   4.661  14.766 -1.0396  0.1536  0.5047
19446TIP3   OH279828   2.764   1.814  16.244  0.0708  0.1737 -0.3102
19446TIP3    H179829   2.699   1.882  16.226 -2.0720 -1.8799 -0.7472
19446TIP3    H279830   2.781   1.775  16.158  0.1715 -0.7784  0.1399
19447TIP3   OH279831   3.689   2.493  11.362  0.2013 -0.3065  0.1026
19447TIP3    H179832   3.757   2.560  11.353 -0.8873  1.1149  1.8247
19447TIP3    H279833   3.631   2.507  11.287  0.8261 -0.3647 -0.3972
19448TIP3   OH279834   5.070   0.320  15.713  0.0082 -0.4005  0.4405
19448TIP3    H179835   5.029   0.251  15.661  0.1243  0.3209 -0.6371
19448TIP3    H279836   5.094   0.387  15.649  0.8099  0.1922  1.3398
19449TIP3   OH279837   1.224   3.893  16.291 -0.4280  0.0125  0.5633
19449TIP3    H179838   1.148   3.836  16.303 -1.1466  0.6880 -0.5351
19449TIP3    H279839   1.189   3.981  16.302  0.8753  0.2956  3.3318
19450TIP3   OH279840   5.271   3.402   1.380 -0.4266 -0.2705  0.1241
19450TIP3    H179841   5.343   3.421   1.441 -0.3761  2.0598 -0.6057
19450TIP3    H279842   5.195   3.392   1.437  0.1218 -0.9695  0.7670
19451TIP3   OH279843   4.108   6.771  16.431  0.6630 -0.3842 -0.0816
19451TIP3    H179844   4.093   6.680  16.457  2.0062 -0.4529  0.5130
19451TIP3    H279845   4.103   6.769  16.335 -1.5850 -0.6354 -0.0220
19452TIP3   OH279846   4.647   2.858   4.497  0.2756 -0.6671 -0.1659
19452TIP3    H179847   4.737   2.885   4.480  0.0656  0.6338  0.6045
19452TIP3    H279848   4.597   2.893   4.423 -0.4812  4.0934  2.2092
19453TIP3   OH279849   5.226   1.013   0.029 -0.1589  0.2877 -0.2648
19453TIP3    H179850   5.137   1.046   0.018  0.3256  1.5566 -0.5109
19453TIP3    H279851   5.257   1.055   0.110  0.0112 -0.6306  0.1585
19454TIP3   OH279852   6.762   1.206  13.360  0.4470 -0.1891 -0.6724
19454TIP3    H179853   6.760   1.262  13.437  0.5568 -0.5849 -0.3793
19454TIP3    H279854   6.850   1.218  13.324  0.5608 -0.3737 -0.4585
19455TIP3   OH279855   3.431   0.601   0.639 -0.7527 -0.4198  0.0470
19455TIP3    H179856   3.457   0.589   0.548  0.7345  0.5399  0.2997
19455TIP3    H279857   3.336   0.588   0.639 -0.9686  0.7277 -1.8537
19456TIP3   OH279858   3.555   4.685  16.575  0.2325  0.3975  0.5789
19456TIP3    H179859   3.546   4.595  16.605 -0.8286  0.1108 -0.5134
19456TIP3    H279860   3.490   4.734  16.624  0.0903  0.3671  0.4222
19457TIP3   OH279861   4.951   1.064  12.095  0.2746  0.0815  0.1757
19457TIP3    H179862   4.920   1.016  12.018  0.4436  0.3617 -0.0725
19457TIP3    H279863   4.997   1.140  12.058  0.3093  0.2457  0.5555
19458TIP3   OH279864   6.295   5.177   1.748  0.1576  0.0267  0.1695
19458TIP3    H179865   6.257   5.092   1.726  0.8305 -0.0166 -0.8583
19458TIP3    H279866   6.377   5.156   1.793 -0.0136  0.1315  0.5327
19459TIP3   OH279867   5.372   3.610  16.106  0.3473  0.2492  0.7077
19459TIP3    H179868   5.335   3.605  16.194  1.1767  0.9889  1.1036
19459TIP3    H279869   5.377   3.703  16.087  0.3275  0.0963 -0.0640
19460TIP3   OH279870   3.378   0.517   2.083 -0.1239 -0.2734  0.1018
19460TIP3    H179871   3.336   0.438   2.117 -0.1422 -0.5812 -0.6059
19460TIP3    H279872   3.418   0.489   2.001 -1.2724  0.7466 -0.8554
19461TIP3   OH279873   1.700   0.614   5.557 -0.2966 -0.3735 -0.2564
19461TIP3    H179874   1.648   0.677   5.608  0.3452  0.1718 -0.2572
19461TIP3    H279875   1.760   0.576   5.621  1.7556  1.6189 -0.8633
19462TIP3   OH279876   3.525   2.908   5.048  0.0727  0.0449  0.0140
19462TIP3    H179877   3.474   2.960   4.987 -1.0787  0.5813  1.3759
19462TIP3    H279878   3.570   2.844   4.993 -2.3023 -0.6662 -1.2503
19463TIP3   OH279879   0.315   6.454  11.375 -0.5090 -0.2602 -0.2039
19463TIP3    H179880   0.263   6.489  11.447 -1.7382 -1.6687 -0.3372
19463TIP3    H279881   0.300   6.359  11.379  0.5390 -0.5036 -1.4349
19464TIP3   OH279882   3.773   3.390   0.659 -0.3018 -0.2678 -0.3681
19464TIP3    H179883   3.680   3.390   0.680 -1.3913 -3.0721 -4.1834
19464TIP3    H279884   3.803   3.301   0.678  0.4624 -0.6512 -2.9631
19465TIP3   OH279885   3.328   4.874  14.924 -0.0813 -0.2674 -0.1989
19465TIP3    H179886   3.379   4.952  14.902 -0.5238  0.0135 -0.2373
19465TIP3    H279887   3.296   4.890  15.013  1.5609 -1.3208  0.6409
19466TIP3   OH279888   1.362   1.190   4.101  0.7397 -0.2822 -0.4429
19466TIP3    H179889   1.268   1.184   4.082  1.0629 -1.8935 -1.7574
19466TIP3    H279890   1.369   1.263   4.162 -1.7089 -1.8168  1.9061
19467TIP3   OH279891   3.193   3.757  15.999 -0.1258 -0.6687 -0.2027
19467TIP3    H179892   3.276   3.739  16.044 -0.0810 -0.2589 -0.1204
19467TIP3    H279893   3.157   3.833  16.044 -0.5060 -0.7934 -0.2970
19468TIP3   OH279894   0.155   3.326  13.062  0.6033 -0.2504 -0.4709
19468TIP3    H179895   0.065   3.357  13.047  0.7115  0.8695  0.9514
19468TIP3    H279896   0.188   3.306  12.974 -0.4259  1.0969 -1.2188
19469TIP3   OH279897   2.675   4.920  10.667  0.3935  0.0536  0.0315
19469TIP3    H179898   2.762   4.933  10.704  0.5727 -1.3376  0.1410
19469TIP3    H279899   2.687   4.850  10.602 -0.2451  1.2713 -1.4625
19470TIP3   OH279900   5.612   2.442   4.299 -0.2601 -0.1768 -0.0041
19470TIP3    H179901   5.593   2.354   4.330  1.4548 -1.1448 -1.4769
19470TIP3    H279902   5.590   2.440   4.205  0.6056  0.6782 -0.2448
19471TIP3   OH279903   1.983   1.935  16.637 -1.0330  0.2946 -0.4211
19471TIP3    H179904   2.050   1.902  16.578  0.9541  0.3239  1.7080
19471TIP3    H279905   2.002   2.029  16.644 -0.6148  0.1245  0.9751
19472TIP3   OH279906   4.503   4.259   3.167  0.5308  0.1725 -0.0343
19472TIP3    H179907   4.524   4.211   3.248 -1.2433 -1.2819 -0.3686
19472TIP3    H279908   4.529   4.200   3.097  0.6431  0.7736 -0.5029
19473TIP3   OH279909   0.410   4.807   2.157  0.4101 -0.3016 -0.5198
19473TIP3    H179910   0.401   4.781   2.248 -1.2007 -1.6739 -1.0257
19473TIP3    H279911   0.481   4.751   2.123 -1.7365 -2.8622 -1.0982
19474TIP3   OH279912   5.691   2.224  10.289  0.2762  0.1275  0.1761
19474TIP3    H179913   5.751   2.264  10.353  0.8844  0.1201 -0.3764
19474TIP3    H279914   5.747   2.203  10.214 -0.2892 -0.5371 -0.0733
19475TIP3   OH279915   3.450   6.258  12.375  0.9822  0.4166  0.2219
19475TIP3    H179916   3.494   6.204  12.309  1.7816  0.7319  0.4909
19475TIP3    H279917   3.358   6.231  12.370  0.7010  1.5648 -2.1701
19476TIP3   OH279918   3.992   2.905  11.946  0.0081 -0.1367 -0.3218
19476TIP3    H179919   3.908   2.871  11.915 -1.3730  1.9874  0.8284
19476TIP3    H279920   4.051   2.895  11.872 -0.4529 -4.0574 -0.3785
19477TIP3   OH279921   2.045   5.123   3.593  0.7488  0.5972 -0.1988
19477TIP3    H179922   1.990   5.201   3.595 -0.1689 -0.0273 -0.5945
19477TIP3    H279923   1.984   5.050   3.590  1.5890 -0.0884 -1.5944
19478TIP3   OH279924   1.443   3.730   4.694  0.3466 -0.2284 -0.0914
19478TIP3    H179925   1.531   3.705   4.722 -0.0036 -1.0738  0.2733
19478TIP3    H279926   1.435   3.693   4.606  0.9519  1.2867 -0.8372
19479TIP3   OH279927   3.180   2.494   2.529 -0.3074  0.6608 -0.1551
19479TIP3    H179928   3.237   2.466   2.601 -1.0829 -0.3163  0.0961
19479TIP3    H279929   3.145   2.578   2.558 -0.8640  0.1238  0.7812
19480TIP3   OH279930   1.697   0.621  12.495  0.0618  0.1488 -0.2570
19480TIP3    H179931   1.653   0.650  12.575 -0.8703 -1.1373 -0.2674
19480TIP3    H279932   1.729   0.533  12.515  0.7526  0.2226 -0.9645
19481TIP3   OH279933   0.859   6.375   0.292 -0.7053  0.0820  0.1211
19481TIP3    H179934   0.847   6.464   0.259 -2.1613 -0.8260 -2.0614
19481TIP3    H279935   0.952   6.357   0.278 -0.9100  0.3846 -1.9596
19482TIP3   OH279936   1.132   3.317  11.335 -0.2704 -0.3517 -0.5614
19482TIP3    H179937   1.192   3.386  11.361 -0.2199  0.0886 -1.7916
19482TIP3    H279938   1.092   3.348  11.254 -1.8205 -0.8412 -0.0325
19483TIP3   OH279939   3.826   5.327   3.155 -0.7051 -0.2923 -0.4560
19483TIP3    H179940   3.872   5.343   3.072  0.6665 -1.1759  0.0965
19483TIP3    H279941   3.865   5.390   3.216  0.6397 -1.7719  0.2918
19484TIP3   OH279942   2.775   0.890  14.639  0.5500  0.3621 -0.3257
19484TIP3    H179943   2.818   0.822  14.692 -0.0449  0.3318  0.1293
19484TIP3    H279944   2.840   0.914  14.574  1.1114  0.0247  0.0997
19485TIP3   OH279945   3.399   6.699  14.118  0.4414  0.5279  0.2959
19485TIP3    H179946   3.336   6.690  14.047  1.7723  0.5080 -0.9145
19485TIP3    H279947   3.360   6.764  14.176 -0.6807  0.5273 -0.4233
19486TIP3   OH279948   4.362   1.270  15.982 -0.0417 -0.2986  0.1845
19486TIP3    H179949   4.375   1.365  15.983 -1.2531 -0.1187  1.1280
19486TIP3    H279950   4.387   1.243  15.894 -1.7313  1.1963 -0.8210
19487TIP3   OH279951   0.828   6.574   5.861  0.2881  0.4284  0.0397
19487TIP3    H179952   0.803   6.660   5.826 -0.2406  0.2764  0.0396
19487TIP3    H279953   0.749   6.541   5.903  0.2671 -0.4001 -0.6329
19488TIP3   OH279954   5.689   4.152  16.561 -0.0305  0.2236  0.3470
19488TIP3    H179955   5.641   4.233  16.550  0.1432  0.5142  1.5567
19488TIP3    H279956   5.622   4.085  16.575 -0.1316  0.4475  0.9698
19489TIP3   OH279957   4.386   0.369  12.954  0.0178 -0.1246  0.2340
19489TIP3    H179958   4.417   0.402  12.870  0.0001 -1.3706 -0.2838
19489TIP3    H279959   4.316   0.307  12.932  0.0016 -0.4596  1.1530
19490TIP3   OH279960   0.272   4.520  12.881  0.2145  0.5360  0.3839
19490TIP3    H179961   0.339   4.470  12.928  2.5195 -0.1936 -3.2794
19490TIP3    H279962   0.214   4.455  12.843  1.8671  0.5466 -2.4646
19491TIP3   OH279963   4.835   0.901  12.318  0.0520 -0.0161  0.3516
19491TIP3    H179964   4.885   0.950  12.253  0.3670 -0.8373 -0.0489
19491TIP3    H279965   4.748   0.892  12.278  0.4879 -1.2656 -0.3783
19492TIP3   OH279966   2.392   3.303   0.324 -0.6528  0.2960 -0.0475
19492TIP3    H179967   2.395   3.282   0.230  2.1643  0.8946 -0.1884
19492TIP3    H279968   2.355   3.391   0.329  0.8142  0.9955 -0.8257
19493TIP3   OH279969   3.062   2.495   1.535 -0.6631 -0.4042  0.1047
19493TIP3    H179970   3.115   2.451   1.601 -1.7099  0.6070  1.6920
19493TIP3    H279971   2.987   2.436   1.521 -0.8480 -0.2439  0.4227
19494TIP3   OH279972   5.972   0.334  13.188 -0.1455 -0.3567 -0.3413
19494TIP3    H179973   5.925   0.252  13.180 -0.3198 -0.2616 -0.3050
19494TIP3    H279974   6.037   0.318  13.256 -0.0247 -0.5342 -0.4969
19495TIP3   OH279975   1.851   3.101  16.768  0.2396  0.3902 -0.2205
19495TIP3    H179976   1.822   3.056  16.689 -1.5810  0.6683  0.2420
19495TIP3    H279977   1.923   3.157  16.739  1.1973 -1.2585 -1.1994
19496TIP3   OH279978   0.271   2.634   1.393 -0.0737 -0.5185  0.0767
19496TIP3    H179979   0.321   2.692   1.336  0.3895 -0.6200  0.3691
19496TIP3    H279980   0.205   2.595   1.336  1.6441 -2.1764 -0.9158
19497TIP3   OH279981   2.870   0.739   3.763  0.3833 -0.0340 -0.1863
19497TIP3    H179982   2.954   0.766   3.798  0.8613  0.9697 -1.9900
19497TIP3    H279983   2.844   0.664   3.817  1.1946  1.2005  2.0271
19498TIP3   OH279984   2.425   5.605   1.395  0.1264  0.3792 -0.3529
19498TIP3    H179985   2.393   5.693   1.375 -0.6566  0.8449  2.5641
19498TIP3    H279986   2.354   5.564   1.443  1.0850 -1.3260 -0.3033
19499TIP3   OH279987   1.495   3.523  12.762  0.0027  0.7020 -0.2515
19499TIP3    H179988   1.533   3.542  12.848 -0.8255 -1.3323  0.6482
19499TIP3    H279989   1.570   3.514  12.704  0.6519  0.9514  0.5279
19500TIP3   OH279990   5.787   2.012  10.774  0.5519 -0.0445 -0.1985
19500TIP3    H179991   5.718   2.026  10.709 -0.5446  1.1027  1.1264
19500TIP3    H279992   5.755   1.939  10.828  0.2933  0.5649  0.4915
19501TIP3   OH279993   3.486   5.295   4.524  0.1859 -0.3579  0.2015
19501TIP3    H179994   3.507   5.203   4.541 -0.4801 -0.3094  1.3661
19501TIP3    H279995   3.488   5.336   4.610 -1.7404  0.2395  0.0071
19502TIP3   OH279996   4.785   2.011   3.396  0.7754  0.1736 -0.3815
19502TIP3    H179997   4.691   2.007   3.415  1.1307 -0.0091  1.4342
19502TIP3    H279998   4.791   2.076   3.326 -0.7378 -0.1255 -0.8360
19503TIP3   OH279999   3.695   6.052  14.593  0.4247  0.0329  0.3514
19503TIP3    H180000   3.714   5.959  14.593 -0.1202 -0.0825  0.2693
19503TIP3    H280001   3.601   6.058  14.577  0.6219  0.6222 -0.7823
19504TIP3   OH280002   3.191   6.372  12.945 -0.5014 -0.7269  0.1036
19504TIP3    H180003   3.162   6.296  12.894 -0.2989  0.4723 -1.8874
19504TIP3    H280004   3.112   6.402  12.990 -0.5480 -2.1865  1.0602
19505TIP3   OH280005   0.051   1.283   4.179 -0.0702 -0.8654  0.2768
19505TIP3    H180006  -0.023   1.224   4.195 -2.6038  2.4406  1.8087
19505TIP3    H280007   0.060   1.285   4.084 -0.5568 -2.8679  0.1415
19506TIP3   OH280008   0.355   6.171  11.385  0.3508  0.0044  0.2246
19506TIP3    H180009   0.288   6.103  11.390  0.5446 -0.2053  0.0230
19506TIP3    H280010   0.391   6.163  11.296  0.3907  0.3562  0.2034
19507TIP3   OH280011   1.666   3.227   1.365 -0.1486 -0.2399  0.0899
19507TIP3    H180012   1.609   3.153   1.344 -2.3799  0.9091  1.7638
19507TIP3    H280013   1.653   3.289   1.293 -1.9612  0.4942  1.0014
19508TIP3   OH280014   5.457   5.041  11.152  0.1007  0.0371 -0.0081
19508TIP3    H180015   5.541   5.054  11.197  0.3950 -1.1926 -0.1716
19508TIP3    H280016   5.451   5.116  11.092  1.7934 -0.5887 -1.0451
19509TIP3   OH280017   0.924   6.396  15.911  0.1062  0.2233 -0.1685
19509TIP3    H180018   0.948   6.344  15.834 -0.0465 -0.9849  0.5880
19509TIP3    H280019   1.006   6.438  15.937  0.4002 -0.2261 -0.3445
19510TIP3   OH280020   1.370   0.609  16.906  0.4849  0.7185 -0.3612
19510TIP3    H180021   1.456   0.583  16.874  1.5392  1.9879  1.2193
19510TIP3    H280022   1.350   0.689  16.858  0.8805  1.2077  0.2639
19511TIP3   OH280023   1.925   3.968   5.554 -0.2115  0.0781  0.7373
19511TIP3    H180024   1.996   3.909   5.526  1.4215  2.3142 -0.1046
19511TIP3    H280025   1.930   3.967   5.650  0.4614 -0.3771  0.7030
19512TIP3   OH280026   5.136   2.731  12.438 -0.1546  0.3219  0.1732
19512TIP3    H180027   5.074   2.725  12.365 -0.8404 -0.2839  0.7951
19512TIP3    H280028   5.216   2.767  12.398 -0.2242 -0.8058 -1.0703
19513TIP3   OH280029   0.732   3.597  12.014  0.2950  0.6354  0.2502
19513TIP3    H180030   0.795   3.661  11.981  0.5701  0.2406 -0.0023
19513TIP3    H280031   0.744   3.521  11.957 -0.3304  0.5173  0.2781
19514TIP3   OH280032   4.634   1.752   1.971  0.2464 -0.3271  0.0667
19514TIP3    H180033   4.552   1.744   2.020  0.1594 -0.4842 -0.1058
19514TIP3    H280034   4.636   1.676   1.913 -0.2037  0.4632 -1.0047
19515TIP3   OH280035   4.473   3.911  11.952  0.0605  0.8691 -0.1154
19515TIP3    H180036   4.428   3.843  12.002  0.0119  0.9656 -0.0284
19515TIP3    H280037   4.482   3.984  12.013  1.5441  0.3734  0.3016
19516TIP3   OH280038   0.076   5.335   2.938  0.3303  0.4400  0.2081
19516TIP3    H180039   0.157   5.362   2.981  0.4847  0.9131 -0.3683
19516TIP3    H280040   0.105   5.296   2.855 -0.0363  0.6211 -0.0056
19517TIP3   OH280041   0.033   0.500   4.906  0.1353 -0.6516  0.0881
19517TIP3    H180042   0.029   0.531   4.816 -0.0408 -1.9340 -0.3649
19517TIP3    H280043   0.122   0.467   4.917  0.0226 -0.9131  0.2346
19518TIP3   OH280044   5.678   6.773  15.534 -0.7633 -0.2159  0.1273
19518TIP3    H180045   5.629   6.828  15.595  0.2062 -0.3509  1.0637
19518TIP3    H280046   5.753   6.827  15.509 -0.8283 -0.3974 -0.4777
19519TIP3   OH280047   2.962   0.453   1.171  0.3519 -0.4864  0.2858
19519TIP3    H180048   2.986   0.446   1.263 -1.3370 -0.9876  0.7241
19519TIP3    H280049   3.042   0.484   1.128  1.3739 -0.8694  1.7992
19520TIP3   OH280050   3.299   4.136   2.364  0.4519  0.3199 -0.0390
19520TIP3    H180051   3.319   4.218   2.409  1.7948 -0.6269  1.1802
19520TIP3    H280052   3.234   4.093   2.420  1.0285 -0.1982  0.2484
19521TIP3   OH280053   5.826   3.359  15.458  0.1681 -0.0582  0.4727
19521TIP3    H180054   5.863   3.390  15.540 -0.0119  0.7921  0.2368
19521TIP3    H280055   5.735   3.338  15.478  0.0203  0.5100  0.4073
19522TIP3   OH280056   5.315   6.792  16.913  0.0976 -0.2597 -0.2036
19522TIP3    H180057   5.285   6.735  16.842  0.3024  0.4794 -0.9099
19522TIP3    H280058   5.374   6.854  16.870 -0.6739  0.9330  0.3874
19523TIP3   OH280059   2.583   0.857  14.156  0.0075  0.0798  0.5711
19523TIP3    H180060   2.497   0.819  14.140 -0.7463  0.5246  3.2111
19523TIP3    H280061   2.633   0.788  14.200  0.5683  0.2786  0.2666
19524TIP3   OH280062   4.679   2.935   3.004  0.5028  0.3343 -0.4729
19524TIP3    H180063   4.708   2.867   2.944 -0.0533 -0.3636  0.0389
19524TIP3    H280064   4.735   3.010   2.983  1.4984 -0.4356 -0.6898
19525TIP3   OH280065   5.936   4.556   5.083 -0.6604  0.8288 -0.3397
19525TIP3    H180066   6.020   4.534   5.122 -0.9782  0.2095  0.0179
19525TIP3    H280067   5.892   4.609   5.150 -0.2046  1.9283 -0.8893
19526TIP3   OH280068   5.009   2.491   1.654 -0.2592  0.6514 -0.1274
19526TIP3    H180069   5.012   2.545   1.733  0.4428 -0.7854  0.8725
19526TIP3    H280070   5.080   2.429   1.665 -0.6276 -0.0552 -1.5557
19527TIP3   OH280071   1.743   2.935   4.072 -0.2368 -0.3458  0.5633
19527TIP3    H180072   1.837   2.934   4.054 -0.5362  0.6094 -1.4006
19527TIP3    H280073   1.735   2.975   4.159  1.1912 -1.1367  1.0756
19528TIP3   OH280074   0.062   4.338  12.797 -0.3201 -0.4403 -0.3867
19528TIP3    H180075  -0.012   4.388  12.831 -0.5192 -0.1325 -1.2437
19528TIP3    H280076   0.033   4.247  12.798 -0.7878 -0.2984 -0.9142
19529TIP3   OH280077   2.492   0.520  14.707  0.0044  0.6034  0.3188
19529TIP3    H180078   2.412   0.475  14.681  0.8756 -1.0657  0.4040
19529TIP3    H280079   2.495   0.512  14.802  0.7813 -0.2598  0.2319
19530TIP3   OH280080   4.744   3.673  13.006  0.4388  0.2347  0.0952
19530TIP3    H180081   4.740   3.664  12.910 -1.1758 -0.9082  0.2195
19530TIP3    H280082   4.681   3.742  13.026 -0.3747 -0.5600  0.3951
19531TIP3   OH280083   1.032   2.591   4.119 -0.6975 -0.6391  0.1526
19531TIP3    H180084   0.997   2.667   4.073 -0.3650 -0.5847 -0.0074
19531TIP3    H280085   1.078   2.541   4.052 -1.2280 -1.1760  0.1709
19532TIP3   OH280086   0.646   3.110   2.690  0.6093 -0.7007 -0.5679
19532TIP3    H180087   0.644   3.030   2.742  0.0553  0.3186  1.0709
19532TIP3    H280088   0.584   3.094   2.619  0.3158 -1.6260 -0.1205
19533TIP3   OH280089   2.251   5.105   2.622  0.0235 -0.1716 -0.4125
19533TIP3    H180090   2.339   5.135   2.599 -0.1627  0.9445  0.2145
19533TIP3    H280091   2.264   5.049   2.698  0.2163 -0.1698 -0.4433
19534TIP3   OH280092   5.433   2.230   1.917  0.2500  0.2226  0.1670
19534TIP3    H180093   5.499   2.300   1.916 -0.0117  0.4729 -0.8202
19534TIP3    H280094   5.436   2.193   1.829 -0.0356 -0.6215  0.5026
19535TIP3   OH280095   1.456   3.842   6.850 -0.5356 -0.1931 -0.1094
19535TIP3    H180096   1.454   3.930   6.888 -0.4044  0.0810 -0.7202
19535TIP3    H280097   1.367   3.809   6.862 -0.9709  0.5667 -1.0914
19536TIP3   OH280098   0.547   5.104  16.952 -0.3982 -0.2292 -0.0816
19536TIP3    H180099   0.575   5.053  17.029 -0.4026 -0.3180 -0.1386
19536TIP3    H280100   0.458   5.132  16.973  0.8392  2.9366  1.5888
19537TIP3   OH280101   5.007   3.244   5.640 -0.1913 -0.0562 -0.2003
19537TIP3    H180102   4.930   3.190   5.655  0.1558 -0.3397  0.6233
19537TIP3    H280103   5.005   3.263   5.546 -0.3601 -1.4525 -0.5102
19538TIP3   OH280104   2.033   1.127   5.013  0.0239 -0.0566  0.3073
19538TIP3    H180105   2.074   1.048   4.978  0.1437  0.3180 -0.4337
19538TIP3    H280106   2.032   1.188   4.939  0.7841  0.9679  1.0940
19539TIP3   OH280107   2.952   0.792   0.493 -0.6009  0.1827 -0.1326
19539TIP3    H180108   2.944   0.887   0.493 -1.3740  0.1423 -1.1749
19539TIP3    H280109   3.041   0.775   0.524 -0.5469  1.2240  0.3312
19540TIP3   OH280110   4.523   2.132  15.611 -0.0937 -0.2038  0.2732
19540TIP3    H180111   4.562   2.202  15.663 -1.6754  0.4080  0.6971
19540TIP3    H280112   4.574   2.054  15.634  0.8259  0.5387  0.8348
19541TIP3   OH280113   5.921   0.664  15.179 -0.2617 -0.8540  0.6555
19541TIP3    H180114   5.859   0.591  15.172 -1.2478 -0.1422  1.5941
19541TIP3    H280115   5.987   0.633  15.242  0.3799 -1.6213 -0.3613
19542TIP3   OH280116   4.633   5.167   0.153 -0.1413  0.1372  0.0689
19542TIP3    H180117   4.564   5.222   0.116  0.6020  1.0789  0.0607
19542TIP3    H280118   4.651   5.102   0.085 -0.3114  0.5035 -0.3260
19543TIP3   OH280119   1.893   1.296   4.755  0.2654  0.7955  0.2257
19543TIP3    H180120   1.826   1.291   4.686 -0.7379  1.2610  1.1469
19543TIP3    H280121   1.975   1.310   4.707 -0.0664 -1.0449 -1.0118
19544TIP3   OH280122   4.721   1.274   0.412 -0.2863  0.3050  0.0328
19544TIP3    H180123   4.627   1.258   0.412 -0.1716 -0.3796  0.6763
19544TIP3    H280124   4.757   1.208   0.353 -0.2576  0.9352 -0.6785
19545TIP3   OH280125   5.047   0.754  16.424 -0.1726  0.6667 -0.0157
19545TIP3    H180126   5.085   0.795  16.346  1.8158 -0.1864  0.4194
19545TIP3    H280127   5.038   0.825  16.487  3.2329  0.6362  0.7339
19546TIP3   OH280128   0.151   5.926   5.735  0.0865  0.0212  0.8101
19546TIP3    H180129   0.113   5.987   5.671  1.5039 -1.0010 -1.1089
19546TIP3    H280130   0.215   5.979   5.783 -0.9982  0.8030  1.4311
19547TIP3   OH280131   4.428   4.784  11.176 -0.0313 -0.2624 -0.2634
19547TIP3    H180132   4.369   4.756  11.246  0.5110  2.8231  1.6381
19547TIP3    H280133   4.375   4.781  11.097 -2.1451  0.3867  1.0450
19548TIP3   OH280134   2.156   5.586   5.323  0.3317 -0.5027 -0.6195
19548TIP3    H180135   2.062   5.569   5.318  0.5523 -1.3803 -2.6078
19548TIP3    H280136   2.164   5.680   5.305 -0.1782 -0.2965  0.1654
19549TIP3   OH280137   2.697   4.341   1.576  0.0553 -0.1868  0.7054
19549TIP3    H180138   2.755   4.269   1.600 -0.1670 -0.3580  0.7396
19549TIP3    H280139   2.739   4.382   1.500 -0.5210 -1.2474 -0.2241
19550TIP3   OH280140   1.517   1.675  13.640  0.9048 -0.2749 -0.1248
19550TIP3    H180141   1.525   1.676  13.736  1.5092 -0.4260 -0.1691
19550TIP3    H280142   1.526   1.766  13.614  2.3642 -0.3902 -0.1478
19551TIP3   OH280143   1.645   2.990   2.214 -0.0820  0.1815 -0.2857
19551TIP3    H180144   1.622   2.898   2.202 -1.1273  0.2923  0.7239
19551TIP3    H280145   1.740   2.993   2.198 -0.1742 -0.9019 -1.1746
19552TIP3   OH280146   2.956   4.318  14.857 -0.0090  0.7864 -0.2676
19552TIP3    H180147   2.888   4.304  14.923 -1.6600  0.9593 -1.8159
19552TIP3    H280148   3.030   4.264  14.885 -0.7287  0.7138  1.5804
19553TIP3   OH280149   3.214   1.238  12.930  0.2226  0.0958 -0.3447
19553TIP3    H180150   3.222   1.226  13.025 -2.8288  1.9440  0.3063
19553TIP3    H280151   3.252   1.325  12.913 -1.3176  0.8085 -0.3346
19554TIP3   OH280152   1.979   6.556   4.102  0.2697  0.2477  0.0414
19554TIP3    H180153   2.035   6.587   4.174  0.4670  0.5536 -0.2427
19554TIP3    H280154   1.932   6.633   4.073  1.1173  0.3984 -0.9869
19555TIP3   OH280155   2.980   6.699  12.369 -0.0199  0.4820 -0.1676
19555TIP3    H180156   3.003   6.744  12.287  1.1954  0.4504  0.1411
19555TIP3    H280157   2.992   6.766  12.436 -0.9345  0.4821  0.0043
19556TIP3   OH280158   6.176   4.811   0.142  0.1238 -0.4601 -0.2395
19556TIP3    H180159   6.220   4.896   0.146 -1.3882  0.3121  0.9515
19556TIP3    H280160   6.167   4.784   0.233 -1.4821 -0.7714 -0.4651
19557TIP3   OH280161   0.147   2.970   0.899  0.3377  0.0055 -0.4271
19557TIP3    H180162   0.057   2.969   0.864 -0.8204 -1.5191  2.3112
19557TIP3    H280163   0.148   3.045   0.958  1.3042  0.7498 -1.3601
19558TIP3   OH280164   5.680   0.325   3.549  0.9227 -0.2163 -0.0558
19558TIP3    H180165   5.722   0.342   3.466 -0.7246  2.7917 -0.4078
19558TIP3    H280166   5.705   0.399   3.605  1.2818 -1.7060  1.8826
19559TIP3   OH280167   5.215   4.629  12.874  0.4943  0.3670 -0.2000
19559TIP3    H180168   5.203   4.703  12.934 -1.4964 -0.8778  1.0815
19559TIP3    H280169   5.295   4.586  12.906 -0.7404 -0.5065  1.9318
19560TIP3   OH280170   1.699   6.067   4.372 -0.3668  0.8487  0.1613
19560TIP3    H180171   1.776   6.009   4.370 -1.3535 -0.5523  1.1785
19560TIP3    H280172   1.624   6.008   4.375 -1.4186  2.1721  1.4804
19561TIP3   OH280173   3.488   4.767  12.829  0.2584  0.3650 -0.2501
19561TIP3    H180174   3.417   4.705  12.848  1.4309 -1.4389 -1.4901
19561TIP3    H280175   3.564   4.730  12.874  0.8217  1.3152 -0.4013
19562TIP3   OH280176   6.482   6.779  14.546 -0.2849 -0.1519 -0.1388
19562TIP3    H180177   6.453   6.827  14.623  0.1882 -0.9592  0.5524
19562TIP3    H280178   6.402   6.764  14.495 -0.9161 -1.2955  1.1358
19563TIP3   OH280179   1.389   3.116  16.520  0.1381  0.6029  0.1288
19563TIP3    H180180   1.399   3.209  16.502  0.5483  0.8078  1.2981
19563TIP3    H280181   1.416   3.072  16.439  0.4635  1.4845 -0.2480
19564TIP3   OH280182   5.953   0.525  12.962  0.6073 -0.3237  0.3482
19564TIP3    H180183   6.013   0.509  12.890 -1.6210  0.5052 -1.8189
19564TIP3    H280184   5.982   0.465  13.031  3.3220 -0.5641 -0.8790
19565TIP3   OH280185   0.296   5.491  16.261 -0.4220 -0.0546  0.3108
19565TIP3    H180186   0.386   5.458  16.252 -0.3394  0.4122 -0.7236
19565TIP3    H280187   0.274   5.524  16.174 -1.6084 -0.1669  0.5537
19566TIP3   OH280188   2.214   1.363  16.825  0.6811 -0.3838 -0.0814
19566TIP3    H180189   2.273   1.370  16.900  1.3221  0.1193 -0.6266
19566TIP3    H280190   2.131   1.400  16.857  1.0743  0.2235  0.2523
19567TIP3   OH280191   5.586   0.130  13.763  0.1375  0.1791  0.2473
19567TIP3    H180192   5.540   0.214  13.769 -1.2635 -0.5343  0.0686
19567TIP3    H280193   5.531   0.069  13.813  1.7049 -0.4167  1.3030
19568TIP3   OH280194   5.626   6.564  15.354 -0.0357  0.3654  0.1426
19568TIP3    H180195   5.635   6.643  15.408 -0.8885  1.0507 -0.6937
19568TIP3    H280196   5.580   6.502  15.411 -2.8837  1.8090 -0.4437
19569TIP3   OH280197   3.845   1.456  15.655  0.0568 -0.5609 -0.0419
19569TIP3    H180198   3.764   1.405  15.665  0.7982 -2.4743 -2.6856
19569TIP3    H280199   3.915   1.394  15.675  1.0082  1.2793  2.9979
19570TIP3   OH280200   2.098   4.587   1.923  0.0310  0.5093  0.4590
19570TIP3    H180201   2.117   4.509   1.871 -0.4376 -0.5122  1.7754
19570TIP3    H280202   2.026   4.561   1.981  1.1185  1.2956  2.2620
19571TIP3   OH280203   3.669   2.223   5.615  0.0450 -0.4610 -0.3277
19571TIP3    H180204   3.590   2.221   5.669 -0.4300  0.6670 -0.9427
19571TIP3    H280205   3.639   2.253   5.529  1.3938  1.9547 -0.0588
19572TIP3   OH280206   1.249   0.414  14.281  0.3281 -0.4698  0.3620
19572TIP3    H180207   1.217   0.427  14.371  3.0206 -2.9740  1.8621
19572TIP3    H280208   1.256   0.319  14.272  1.6737 -0.2199 -1.8976
19573TIP3   OH280209   5.400   2.398   5.916  0.1197 -0.2938  0.1143
19573TIP3    H180210   5.356   2.480   5.896 -0.5843 -0.3870  1.2223
19573TIP3    H280211   5.463   2.420   5.984  1.2213 -0.3385 -0.8404
19574TIP3   OH280212   1.575   2.072  15.384 -0.5616 -0.5808 -0.5066
19574TIP3    H180213   1.509   2.140  15.393 -0.3128 -0.4236  0.1841
19574TIP3    H280214   1.574   2.049  15.291 -1.7632 -0.7705 -0.4515
19575TIP3   OH280215   6.024   2.157   1.401  0.0121  0.0065  0.2965
19575TIP3    H180216   5.960   2.120   1.341  0.1716 -0.5447  0.4566
19575TIP3    H280217   5.973   2.188   1.476 -0.1072 -0.0497  0.2382
19576TIP3   OH280218   5.312   2.555  13.916 -0.1258 -0.6162  0.0587
19576TIP3    H180219   5.301   2.500  13.994 -1.5557 -1.3185 -0.6001
19576TIP3    H280220   5.300   2.496  13.842  1.9639 -0.1096 -0.7526
19577TIP3   OH280221   5.590   4.733   4.942  0.7624 -0.5064  0.0260
19577TIP3    H180222   5.632   4.758   4.860  1.2168  0.6226  0.5696
19577TIP3    H280223   5.604   4.639   4.949 -0.5934 -0.8993 -1.8995
19578TIP3   OH280224   0.712   2.031  15.323 -0.4110 -0.2528  0.0348
19578TIP3    H180225   0.703   1.947  15.368 -0.4809 -0.5811 -0.5757
19578TIP3    H280226   0.770   2.012  15.249 -2.5243 -0.4140 -1.6807
19579TIP3   OH280227   0.619   3.248  15.009  0.1105 -0.1910 -0.3091
19579TIP3    H180228   0.712   3.274  15.003  0.2295 -0.6733 -0.5443
19579TIP3    H280229   0.611   3.207  15.095  0.8815 -3.1149 -1.5092
19580TIP3   OH280230   2.618   1.845   5.500  0.0387  0.4999 -0.1114
19580TIP3    H180231   2.675   1.854   5.576  0.6443  1.1077 -0.6304
19580TIP3    H280232   2.648   1.766   5.455  1.2628  1.4507 -1.0251
19581TIP3   OH280233   3.867   4.259  11.840  0.4790 -0.2442  0.2882
19581TIP3    H180234   3.954   4.293  11.821  0.6231 -0.1094  1.1590
19581TIP3    H280235   3.827   4.247  11.754  0.0714  2.9970 -0.0875
19582TIP3   OH280236   6.708   0.276   5.032 -0.1594 -0.1569 -0.3899
19582TIP3    H180237   6.769   0.319   4.971 -0.5897  1.6050  0.3728
19582TIP3    H280238   6.624   0.317   5.015 -0.1946  0.7635  1.7190
19583TIP3   OH280239   0.648   2.303  16.476  0.2139 -0.3972  0.1454
19583TIP3    H180240   0.704   2.270  16.406  1.1868  0.7701  0.3394
19583TIP3    H280241   0.590   2.366  16.433 -0.8960 -1.4908 -0.0268
19584TIP3   OH280242   3.989   2.762  15.553 -0.7290  0.0765 -0.4899
19584TIP3    H180243   3.894   2.772  15.545 -0.9481 -1.0246  0.5453
19584TIP3    H280244   4.001   2.692  15.617  0.7887  0.1913 -0.6118
19585TIP3   OH280245   2.096   3.221  15.265  0.2024  0.0911 -0.4567
19585TIP3    H180246   2.145   3.139  15.262  1.8973  1.0633 -0.3793
19585TIP3    H280247   2.009   3.198  15.233  0.5334 -1.8005 -0.1198
19586TIP3   OH280248   0.216   1.842   1.891  0.1830 -0.5402  0.1236
19586TIP3    H180249   0.292   1.860   1.946 -0.6142  0.7935  0.8589
19586TIP3    H280250   0.156   1.915   1.908 -1.9774 -2.3344  0.8653
19587TIP3   OH280251   5.536   3.389  15.508  0.6876 -0.5215 -0.5479
19587TIP3    H180252   5.552   3.361  15.598 -0.2461 -0.3077 -0.2953
19587TIP3    H280253   5.566   3.480  15.506  3.0084 -1.2481 -1.1593
19588TIP3   OH280254   3.741   1.628   0.360 -0.2939  1.0289  0.2583
19588TIP3    H180255   3.830   1.652   0.388  0.3375 -1.5263  0.7254
19588TIP3    H280256   3.747   1.620   0.265 -0.1308  1.3086  0.2459
19589TIP3   OH280257   3.425   3.673  17.120  0.0758  0.0861 -0.3822
19589TIP3    H180258   3.481   3.598  17.099 -0.5645 -0.1851 -1.1774
19589TIP3    H280259   3.337   3.645  17.093 -0.4031  0.6015  0.6046
19590TIP3   OH280260   1.404   3.043   1.265 -0.2823 -0.3506 -0.0899
19590TIP3    H180261   1.414   2.966   1.321  1.2185 -0.4402 -0.4367
19590TIP3    H280262   1.362   3.108   1.321  1.3639 -0.3658  1.2405
19591TIP3   OH280263   4.135   6.436   4.296  0.8112 -0.3277  0.1211
19591TIP3    H180264   4.213   6.449   4.350 -0.0060  1.4981  0.9512
19591TIP3    H280265   4.063   6.435   4.359 -0.0120  0.1274 -0.8038
19592TIP3   OH280266   2.063   5.298  17.065 -0.2944 -0.0485 -0.1078
19592TIP3    H180267   2.067   5.269  16.974 -0.3340  1.1819 -0.5199
19592TIP3    H280268   2.066   5.393  17.060  0.3068  0.0294  1.2160
19593TIP3   OH280269   5.241   0.542   4.890  0.2489  0.2687 -0.5155
19593TIP3    H180270   5.308   0.608   4.908  0.4449  0.0276 -0.3496
19593TIP3    H280271   5.170   0.590   4.847  0.8593  0.3951 -1.4237
19594TIP3   OH280272   4.403   0.432  15.609 -0.5362 -0.1031 -0.3510
19594TIP3    H180273   4.391   0.394  15.522 -1.2597 -1.3781  0.2726
19594TIP3    H280274   4.407   0.357  15.668 -1.7267  0.7640  0.9173
19595TIP3   OH280275   0.313   6.406  14.952  0.6946 -0.5210  0.2597
19595TIP3    H180276   0.380   6.464  14.991  1.8166  0.0879 -2.3808
19595TIP3    H280277   0.243   6.405  15.017  0.4360  4.0935  0.4234
19596TIP3   OH280278   0.953   4.641   2.296  0.1744 -0.4488 -0.1151
19596TIP3    H180279   1.026   4.579   2.290  0.6677  0.2000 -1.0302
19596TIP3    H280280   0.882   4.599   2.247  0.2587 -0.6371 -0.0763
19597TIP3   OH280281   5.661   0.822  12.271 -0.2078  0.1583  0.1944
19597TIP3    H180282   5.570   0.829  12.299  0.5291  1.6693  2.5022
19597TIP3    H280283   5.701   0.904  12.299  2.2501 -1.1445  0.7989
19598TIP3   OH280284   5.287   5.006   2.028 -0.6877  0.7817  0.7589
19598TIP3    H180285   5.210   4.962   1.990  0.1339  0.1035 -0.1737
19598TIP3    H280286   5.251   5.062   2.097 -1.9140 -0.2475  0.9823
19599TIP3   OH280287   5.513   2.338  16.853 -0.1914 -0.6728  0.5970
19599TIP3    H180288   5.548   2.352  16.764  0.2178 -2.1300  0.5125
19599TIP3    H280289   5.514   2.425  16.892  1.8728 -0.3671 -0.0204
19600TIP3   OH280290   4.404   5.089   2.632 -0.3472  0.1195 -0.6640
19600TIP3    H180291   4.387   5.003   2.594  0.1874  0.8738 -2.7353
19600TIP3    H280292   4.330   5.142   2.606 -0.1694  0.5543 -0.2910
19601TIP3   OH280293   3.776   4.647  11.729  0.1410  0.2366  0.1520
19601TIP3    H180294   3.697   4.604  11.698 -0.8217  1.9606  0.1062
19601TIP3    H280295   3.752   4.683  11.814  1.0756  0.2563  0.4203
19602TIP3   OH280296   4.994   0.279  11.856 -0.3861 -0.0670  0.1773
19602TIP3    H180297   4.986   0.223  11.933 -0.4151  0.3922  0.5114
19602TIP3    H280298   5.040   0.225  11.792  0.8811 -0.0043  0.9875
19603TIP3   OH280299   4.957   6.012   3.949  0.3480  0.0489  0.2228
19603TIP3    H180300   4.916   5.926   3.936  0.8211 -0.0068 -1.1567
19603TIP3    H280301   5.034   6.010   3.891  0.7699  1.1401  0.7217
19604TIP3   OH280302   1.241   2.158   1.538  0.1045  0.5278 -0.9382
19604TIP3    H180303   1.237   2.064   1.555  2.0494  0.2559 -1.6637
19604TIP3    H280304   1.174   2.174   1.471 -2.2410  0.2497  1.1803
19605TIP3   OH280305   0.322   1.532   2.772 -0.4030 -0.4466 -0.7589
19605TIP3    H180306   0.367   1.449   2.756 -0.6404 -0.5527 -0.8653
19605TIP3    H280307   0.298   1.564   2.685  2.5046  1.3180 -1.0536
19606TIP3   OH280308   2.744   2.186   1.576  0.2146  0.2007 -1.0585
19606TIP3    H180309   2.697   2.182   1.660  1.7537  0.0120 -0.1660
19606TIP3    H280310   2.828   2.144   1.594  0.9644  1.0500 -2.4390
19607TIP3   OH280311   2.704   3.358   3.168  0.1786 -0.7978 -0.2855
19607TIP3    H180312   2.660   3.337   3.085 -1.3872  1.3212 -0.0911
19607TIP3    H280313   2.651   3.316   3.235 -1.0269  0.8570 -0.1313
19608TIP3   OH280314   4.040   3.963  14.916  0.3000 -0.4686 -0.3062
19608TIP3    H180315   4.106   3.981  14.849  0.6915 -1.3050 -0.1506
19608TIP3    H280316   4.073   4.004  14.995 -0.2592  0.6998 -0.6461
19609TIP3   OH280317   2.751   3.169   0.702  0.0317 -0.2842  0.4224
19609TIP3    H180318   2.714   3.081   0.697  0.3478 -0.3476 -1.6842
19609TIP3    H280319   2.753   3.200   0.612 -1.3935  2.4704  1.2020
19610TIP3   OH280320   2.321   6.302   5.357  0.4051  0.2949 -0.0074
19610TIP3    H180321   2.292   6.385   5.394 -0.7690 -0.2716  0.4082
19610TIP3    H280322   2.248   6.242   5.373  2.1685 -1.4916  1.9174
19611TIP3   OH280323   1.563   5.125   1.363  0.0388 -0.2930 -0.5288
19611TIP3    H180324   1.569   5.078   1.280 -1.4456  0.2447 -0.9595
19611TIP3    H280325   1.475   5.106   1.396  1.0667 -1.6744  1.6628
19612TIP3   OH280326   5.684   0.736  11.663 -0.0301 -0.4163 -0.1723
19612TIP3    H180327   5.670   0.663  11.603 -0.1513  0.0797 -0.7527
19612TIP3    H280328   5.776   0.728  11.690  0.1935 -0.3135 -0.8744
19613TIP3   OH280329   4.467   0.904   2.633 -0.1362 -0.1872 -0.4744
19613TIP3    H180330   4.401   0.835   2.642  0.4101 -0.8877 -1.5317
19613TIP3    H280331   4.550   0.861   2.657  0.0376  0.4932  0.1816
19614TIP3   OH280332   2.878   2.008  12.387 -0.1439 -0.1322 -0.1947
19614TIP3    H180333   2.894   1.938  12.324 -0.5617 -2.0386  1.6957
19614TIP3    H280334   2.783   2.009  12.398 -0.1342  0.6862 -0.1312
19615TIP3   OH280335   0.754   0.624  13.426  0.0965 -0.1853 -0.3661
19615TIP3    H180336   0.671   0.597  13.386 -0.8826 -1.1135  2.1058
19615TIP3    H280337   0.813   0.550  13.412  0.3021  0.1573 -1.4366
19616TIP3   OH280338   2.294   1.755   4.181 -0.2773 -0.3819  0.1193
19616TIP3    H180339   2.291   1.682   4.243  1.1216  0.2906  1.0184
19616TIP3    H280340   2.344   1.721   4.107 -1.3906 -0.9703 -0.3980
19617TIP3   OH280341   5.117   0.454   4.356  0.0801  0.0213 -0.5520
19617TIP3    H180342   5.203   0.464   4.398  0.8612 -0.0474 -2.0590
19617TIP3    H280343   5.060   0.514   4.403  0.5535 -1.0130  1.4759
19618TIP3   OH280344   0.508   4.105  16.583  0.5203 -0.6343  0.8269
19618TIP3    H180345   0.578   4.107  16.518 -1.9314  1.7021 -2.0043
19618TIP3    H280346   0.481   4.014  16.587  1.3828 -0.9865 -0.7338
19619TIP3   OH280347   3.185   2.883  13.667  0.2030 -0.4424 -0.4904
19619TIP3    H180348   3.250   2.857  13.600 -1.0194 -0.7547 -1.6049
19619TIP3    H280349   3.237   2.920  13.738  1.6511 -1.2822 -1.0674
19620TIP3   OH280350   2.208   2.275  13.960  0.0253 -0.4620 -0.1192
19620TIP3    H180351   2.292   2.275  13.913  1.5903 -2.5835  2.3524
19620TIP3    H280352   2.212   2.354  14.015  0.6047 -0.7268  0.2376
19621TIP3   OH280353   6.370   3.486   5.028 -0.3530  0.3343  0.6267
19621TIP3    H180354   6.422   3.527   4.959 -0.8385 -0.4366 -0.2278
19621TIP3    H280355   6.292   3.452   4.983 -0.5764 -0.3823  1.5105
19622TIP3   OH280356   3.816   0.739  17.031 -0.8201  0.6538 -0.2869
19622TIP3    H180357   3.865   0.772  17.107  2.4126  0.2457 -2.0345
19622TIP3    H280358   3.791   0.650  17.056  1.7345 -0.1306 -0.2274
19623TIP3   OH280359   6.812   4.556   0.051  0.1848 -0.7412  0.5795
19623TIP3    H180360   6.844   4.572   0.140  0.6763  0.6698  0.1737
19623TIP3    H280361   6.744   4.622   0.038  1.1352  0.0572 -0.5948
19624TIP3   OH280362   1.418   1.041   5.378  0.2952 -0.1983  0.7051
19624TIP3    H180363   1.405   1.126   5.419 -1.6929  0.1793 -0.5496
19624TIP3    H280364   1.476   0.994   5.437  1.0604  1.8472  1.6637
19625TIP3   OH280365   4.652   6.278   1.064  0.2014  0.6227 -0.5864
19625TIP3    H180366   4.667   6.226   1.142 -0.4599  0.1119 -0.7897
19625TIP3    H280367   4.737   6.278   1.019  0.3706  0.2367 -0.2782
19626TIP3   OH280368   6.776   3.520   4.563 -0.7394  0.5535 -0.1956
19626TIP3    H180369   6.823   3.572   4.497 -0.4570  2.6005  1.5026
19626TIP3    H280370   6.687   3.556   4.562 -0.3191  1.8254  1.6098
19627TIP3   OH280371   0.425   2.856  11.254  0.0237  0.2558  0.1014
19627TIP3    H180372   0.428   2.760  11.254 -0.0913  0.2432 -0.6693
19627TIP3    H280373   0.359   2.878  11.188 -0.1155  0.8662  0.4320
19628TIP3   OH280374   6.770   2.673   2.137  0.2209  0.2961  0.2312
19628TIP3    H180375   6.771   2.768   2.121 -0.8754  0.7559  2.5233
19628TIP3    H280376   6.857   2.644   2.110  0.6039  1.9519 -0.4801
19629TIP3   OH280377   4.001   0.347   3.905 -0.4553  0.1410  0.1389
19629TIP3    H180378   4.039   0.330   3.991  0.1999 -0.8761 -0.3279
19629TIP3    H280379   4.010   0.441   3.892 -0.4407  0.2797  1.1210
19630TIP3   OH280380   3.190   2.561  12.683  0.3388  0.2516 -0.0646
19630TIP3    H180381   3.220   2.642  12.725 -0.9271  1.0402 -0.6335
19630TIP3    H280382   3.109   2.539  12.729  1.2865 -1.4236  0.9319
19631TIP3   OH280383   2.151   1.904   3.287  0.4568 -0.4545  0.0143
19631TIP3    H180384   2.103   1.948   3.358  0.6221  1.0077 -0.7348
19631TIP3    H280385   2.172   1.818   3.322  0.8930  0.3743  1.9261
19632TIP3   OH280386   5.084   4.544   5.714  0.2573  0.1017  0.4359
19632TIP3    H180387   5.001   4.500   5.731  0.4382 -1.3412 -1.8700
19632TIP3    H280388   5.132   4.539   5.796 -0.7196 -1.8554  0.9429
19633TIP3   OH280389   6.623   6.186  13.111  0.3131 -0.1626 -0.1454
19633TIP3    H180390   6.549   6.129  13.133  0.4292  0.3540  1.6657
19633TIP3    H280391   6.625   6.252  13.180  1.2649  1.0202 -1.2498
19634TIP3   OH280392   5.133   0.865  14.431  0.2904  0.0926  0.1611
19634TIP3    H180393   5.105   0.905  14.349 -0.2200  1.3405  0.8972
19634TIP3    H280394   5.181   0.935  14.476  0.0585 -0.3727  1.1647
19635TIP3   OH280395   5.938   3.052  14.074 -0.2882  0.2325 -0.3530
19635TIP3    H180396   5.935   2.959  14.052 -0.5400  0.1396  0.0634
19635TIP3    H280397   5.882   3.094  14.008  0.9601  0.2751 -1.4171
19636TIP3   OH280398   2.718   6.536  17.058  0.6520  0.1663  0.0038
19636TIP3    H180399   2.691   6.476  17.128  0.9760  0.0692  0.0489
19636TIP3    H280400   2.675   6.502  16.979 -0.3373  0.7183  0.2863
19637TIP3   OH280401   4.981   1.522  14.575  0.3164  0.3716 -0.2414
19637TIP3    H180402   4.907   1.577  14.600 -1.7713 -3.0350  1.9322
19637TIP3    H280403   4.947   1.467  14.504  1.1422 -0.4019 -0.0607
19638TIP3   OH280404   2.525   1.836   5.791  0.4138  0.5184  0.1494
19638TIP3    H180405   2.465   1.800   5.855 -1.4662  0.4366 -1.5734
19638TIP3    H280406   2.491   1.924   5.772  3.0202  2.0361  1.8441
19639TIP3   OH280407   2.916   4.699  13.145 -0.5665 -0.4340 -0.3548
19639TIP3    H180408   2.891   4.786  13.175 -0.2363 -0.5829  0.3713
19639TIP3    H280409   2.838   4.667  13.098 -0.8186  0.1021 -0.3114
19640TIP3   OH280410   5.545   2.591  15.035  0.4212 -0.0371 -0.2084
19640TIP3    H180411   5.566   2.590  14.941 -0.5713 -0.6658 -0.4474
19640TIP3    H280412   5.500   2.674  15.048  0.4841  0.0137 -0.3118
19641TIP3   OH280413   4.309   3.508   2.464 -0.3927 -0.1280  0.5862
19641TIP3    H180414   4.299   3.425   2.417 -1.2853 -0.0179  0.5481
19641TIP3    H280415   4.221   3.546   2.462  0.1974  1.2776 -0.2615
19642TIP3   OH280416   6.012   5.250   6.453  0.3640 -0.2508  0.0382
19642TIP3    H180417   5.948   5.265   6.523  1.0659  0.6759  0.5197
19642TIP3    H280418   6.045   5.337   6.432  0.2188 -0.5290 -1.4204
19643TIP3   OH280419   2.958   5.038  16.913 -0.1414 -0.3386 -0.6322
19643TIP3    H180420   2.982   5.101  16.844 -2.0882 -1.7441 -2.7355
19643TIP3    H280421   2.894   5.085  16.967 -2.0709 -0.5736 -2.5619
19644TIP3   OH280422   1.894   0.607  12.002  0.6044  0.5276 -0.1775
19644TIP3    H180423   1.834   0.620  12.075  0.5930  2.5692 -0.4988
19644TIP3    H280424   1.971   0.658  12.024  1.0862  0.2110 -1.0610
19645TIP3   OH280425   2.251   2.471   3.040  0.1489  0.6166  0.3818
19645TIP3    H180426   2.305   2.433   2.971 -1.0637  0.7405 -0.6719
19645TIP3    H280427   2.162   2.444   3.019 -0.3024  0.9870  1.6914
19646TIP3   OH280428   6.769   2.321   4.675  0.3473 -0.3143 -0.2569
19646TIP3    H180429   6.705   2.287   4.613 -0.5615  1.8081 -0.5871
19646TIP3    H280430   6.743   2.284   4.760  0.5772 -1.8923 -0.8547
19647TIP3   OH280431   6.722   5.990  16.718  0.6816 -0.3067 -0.1105
19647TIP3    H180432   6.691   5.973  16.629  0.7570 -0.7857 -0.0465
19647TIP3    H280433   6.761   6.077  16.713 -0.5918  0.2880 -0.2130
19648TIP3   OH280434   4.255   6.161  16.437 -0.1201  0.1518  0.2164
19648TIP3    H180435   4.283   6.217  16.509 -0.6299  2.0355 -0.9979
19648TIP3    H280436   4.161   6.177  16.429 -0.1435 -0.3515 -0.6145
19649TIP3   OH280437   1.354   3.788   2.684 -0.1489  0.7186  0.3884
19649TIP3    H180438   1.337   3.714   2.742 -3.3950  1.8032  1.0202
19649TIP3    H280439   1.399   3.749   2.609 -0.7702 -1.6951  1.1747
19650TIP3   OH280440   1.783   5.862   0.235 -0.9963 -0.0157  0.0946
19650TIP3    H180441   1.837   5.788   0.205  0.1781  1.1591 -0.8351
19650TIP3    H280442   1.776   5.851   0.329  2.9089  0.9761  0.6696
19651TIP3   OH280443   1.818   0.988  12.063  0.2602 -0.1067 -0.6395
19651TIP3    H180444   1.733   1.001  12.021 -0.4561  1.9051  1.2417
19651TIP3    H280445   1.801   0.929  12.135  0.7029 -0.5872 -0.9241
19652TIP3   OH280446   6.714   5.343  12.228  0.1771 -0.3988 -0.1000
19652TIP3    H180447   6.733   5.403  12.155 -0.3885 -0.4706 -0.3124
19652TIP3    H280448   6.633   5.376  12.266  0.5858 -0.2411  0.6359
19653TIP3   OH280449   3.733   2.264   3.704 -0.7221  0.1364 -0.0911
19653TIP3    H180450   3.782   2.306   3.775 -1.3065 -1.1382  1.1185
19653TIP3    H280451   3.799   2.239   3.640 -0.2099  1.5157 -0.1337
19654TIP3   OH280452   1.319   4.587  11.701 -0.1347 -0.2525 -0.2296
19654TIP3    H180453   1.367   4.599  11.783 -1.4041  0.4466  0.4473
19654TIP3    H280454   1.348   4.501  11.669  1.1515 -0.0827  0.4070
19655TIP3   OH280455   1.964   2.470   5.626  0.1846  0.7987 -0.2151
19655TIP3    H180456   1.926   2.557   5.640  0.2600  1.3673 -2.9999
19655TIP3    H280457   1.888   2.414   5.608  0.3243  1.3745 -3.1095
19656TIP3   OH280458   3.349   5.014  15.925  0.1576 -0.2882 -0.2255
19656TIP3    H180459   3.432   4.966  15.935 -0.4005 -1.0669  0.7094
19656TIP3    H280460   3.281   4.947  15.933 -0.6034  0.4942 -0.0396
19657TIP3   OH280461   2.834   3.190   6.184 -0.0686  0.1000 -0.2927
19657TIP3    H180462   2.741   3.205   6.200  0.3002  1.8086  0.4355
19657TIP3    H280463   2.874   3.276   6.189  1.7717 -0.7508  0.8477
19658TIP3   OH280464   4.148   3.132   5.394  0.3318 -0.2183 -0.4982
19658TIP3    H180465   4.109   3.194   5.456 -0.6361 -2.0225  0.7961
19658TIP3    H280466   4.235   3.116   5.429 -0.2843 -1.3883  0.5896
19659TIP3   OH280467   6.106   3.676  13.252 -0.1023  0.3264  0.5718
19659TIP3    H180468   6.097   3.767  13.224 -2.8484  0.4253  1.4379
19659TIP3    H280469   6.115   3.627  13.171 -0.9806  1.2004 -0.0923
19660TIP3   OH280470   3.032   6.753  13.155 -0.6051 -0.3460 -0.1378
19660TIP3    H180471   3.115   6.740  13.199 -1.0071 -2.1167  0.1793
19660TIP3    H280472   2.966   6.724  13.218 -1.3577 -0.5778 -1.0013
19661TIP3   OH280473   6.312   2.015  14.303 -0.0031 -0.1119  0.0681
19661TIP3    H180474   6.228   1.996  14.345 -2.0134  1.6587 -2.8059
19661TIP3    H280475   6.290   2.033  14.212  3.0441  3.5745 -0.2060
19662TIP3   OH280476   2.548   6.538  12.148 -0.1093  0.0486  0.4967
19662TIP3    H180477   2.492   6.467  12.181 -2.1805  1.0094 -0.7771
19662TIP3    H280478   2.544   6.605  12.216  1.1932 -0.6519  1.3230
19663TIP3   OH280479   4.266   0.458   1.499  0.2779  0.4354 -0.0911
19663TIP3    H180480   4.245   0.543   1.462 -1.3490  1.1234  2.1990
19663TIP3    H280481   4.343   0.429   1.450  0.5618  2.9517 -1.2997
19664TIP3   OH280482   5.247   6.103  16.030 -0.2989 -0.3557 -0.6152
19664TIP3    H180483   5.226   6.185  15.985 -2.8741 -1.5297 -1.7973
19664TIP3    H280484   5.229   6.035  15.965  0.1645 -1.9540  0.8436
19665TIP3   OH280485   5.416   6.212  15.191  0.4611 -0.4319  0.0607
19665TIP3    H180486   5.389   6.282  15.132 -0.7483 -1.7334 -1.0012
19665TIP3    H280487   5.346   6.209  15.257  0.6808 -0.4180  0.2930
19666TIP3   OH280488   2.059   4.187  16.981  0.0154 -0.1834 -0.1180
19666TIP3    H180489   2.026   4.112  16.932  0.8937 -0.7573  0.1488
19666TIP3    H280490   1.982   4.224  17.023 -0.5154 -0.5798 -0.7217
19667TIP3   OH280491   4.977   2.959  11.933  0.0219 -0.0310  0.2571
19667TIP3    H180492   4.980   2.999  11.846 -2.6673  1.2088  0.6343
19667TIP3    H280493   4.996   2.867  11.918 -3.7211 -0.6272 -2.2955
19668TIP3   OH280494   1.196   1.509  11.683 -0.1537 -0.2160 -0.4229
19668TIP3    H180495   1.160   1.581  11.633 -1.1752 -0.8806 -0.6767
19668TIP3    H280496   1.275   1.545  11.724 -0.0718  0.7356 -1.3684
19669TIP3   OH280497   2.117   4.983   6.603 -0.8549  0.0936 -0.7713
19669TIP3    H180498   2.105   4.889   6.618  0.7119  0.1030  0.9077
19669TIP3    H280499   2.072   5.025   6.677  3.8997  0.2853  2.5251
19670TIP3   OH280500   0.004   6.027   0.803 -0.5285  0.2042  0.0924
19670TIP3    H180501  -0.017   6.105   0.751 -4.2918 -0.9459 -0.4097
19670TIP3    H280502   0.004   5.955   0.739 -1.4330 -0.7196  1.0861
19671TIP3   OH280503   3.305   1.421  17.114  0.4997 -0.2425  0.4591
19671TIP3    H180504   3.288   1.327  17.109  0.6211 -0.2308 -0.3126
19671TIP3    H280505   3.222   1.459  17.144 -0.2284 -0.3965 -1.2319
19672TIP3   OH280506   1.079   3.003   4.380 -0.8636 -0.4701 -0.1218
19672TIP3    H180507   1.084   3.033   4.289 -0.7363  0.6400  0.2449
19672TIP3    H280508   1.032   2.920   4.374  0.6796 -1.3132 -1.3935
19673TIP3   OH280509   4.596   3.832  14.162 -0.4727  0.5149  0.2119
19673TIP3    H180510   4.509   3.867  14.178 -0.6750 -0.4165  1.3160
19673TIP3    H280511   4.591   3.741  14.193  0.2463 -0.2642 -1.7799
19674TIP3   OH280512   0.142   3.843   1.752  0.2697 -0.0385  0.5244
19674TIP3    H180513   0.127   3.932   1.721  1.4054 -0.3794 -1.1242
19674TIP3    H280514   0.166   3.853   1.845 -0.9396  1.2221  0.7259
19675TIP3   OH280515   4.017   3.972  16.096  0.5944 -0.7078 -0.4235
19675TIP3    H180516   4.088   4.028  16.126 -0.8631  0.9039  0.1832
19675TIP3    H280517   4.048   3.936  16.013  1.6206  0.9848 -0.8116
19676TIP3   OH280518   4.532   2.443   5.614 -0.3710 -0.2774 -0.4931
19676TIP3    H180519   4.534   2.534   5.585 -2.3795 -0.2417 -0.7138
19676TIP3    H280520   4.540   2.448   5.709  1.4536 -0.0453 -0.6243
19677TIP3   OH280521   1.726   1.079   4.869  0.0939  0.3458  0.5249
19677TIP3    H180522   1.689   1.038   4.947 -0.3147 -0.1158  0.0968
19677TIP3    H280523   1.820   1.062   4.876 -0.1607 -1.5973 -0.1446
19678TIP3   OH280524   5.014   0.542   5.117  0.5206 -0.4569  0.1406
19678TIP3    H180525   4.996   0.570   5.027  1.0826 -0.9693 -0.1420
19678TIP3    H280526   4.927   0.522   5.154  0.4078 -2.2430 -0.9699
19679TIP3   OH280527   3.578   1.672  13.899 -0.5533  0.3473 -1.1896
19679TIP3    H180528   3.635   1.743  13.868  1.1101  0.0167  0.8870
19679TIP3    H280529   3.552   1.699  13.987 -0.6016 -1.2042 -0.6961
19680TIP3   OH280530   5.433   4.508  14.406 -0.3258 -0.1873  0.4675
19680TIP3    H180531   5.454   4.441  14.472  0.0008 -0.7408 -0.1916
19680TIP3    H280532   5.349   4.480  14.370  0.5284 -1.1081 -0.8836
19681TIP3   OH280533   6.661   4.432  12.885  0.1501  0.4415 -0.5426
19681TIP3    H180534   6.668   4.497  12.955 -0.0184 -0.3273  0.2057
19681TIP3    H280535   6.616   4.358  12.926 -0.7034  0.2982 -1.6966
19682TIP3   OH280536   0.263   4.369   4.034 -0.1057 -0.2874  0.1548
19682TIP3    H180537   0.309   4.370   4.118  0.5815  0.9974 -0.2013
19682TIP3    H280538   0.211   4.449   4.034  0.3682  0.0504 -0.8614
19683TIP3   OH280539   1.094   1.814  12.605 -0.2948  0.0798 -0.0883
19683TIP3    H180540   1.071   1.803  12.697  2.0613 -0.5057  0.4867
19683TIP3    H280541   1.168   1.874  12.605  0.5839 -0.9318 -1.4752
19684TIP3   OH280542   6.341   6.704   2.055 -0.3298 -0.1586 -0.0014
19684TIP3    H180543   6.349   6.757   1.975  0.3535 -0.0383  0.1384
19684TIP3    H280544   6.309   6.765   2.121  2.3205  0.6393  0.6684
19685TIP3   OH280545   1.167   2.305   0.825  0.3785 -0.0483 -0.3926
19685TIP3    H180546   1.127   2.333   0.742 -0.0048 -1.1891 -0.6147
19685TIP3    H280547   1.098   2.319   0.890  0.9047  1.4989 -0.1078
19686TIP3   OH280548   1.736   0.708  14.912  0.0128  0.4697 -0.0302
19686TIP3    H180549   1.831   0.711  14.925 -0.1646  0.4988  1.4483
19686TIP3    H280550   1.725   0.684  14.820  1.4585 -0.0264 -0.1006
19687TIP3   OH280551   3.632   4.537  12.813 -0.2638  0.1521 -0.3625
19687TIP3    H180552   3.553   4.529  12.760 -2.4644 -0.9292  2.7952
19687TIP3    H280553   3.692   4.472  12.776 -0.6869  1.0524 -2.8878
19688TIP3   OH280554   4.191   0.089   5.802  0.8158  0.0368  0.2337
19688TIP3    H180555   4.165   0.123   5.717 -0.0689  0.3814  0.6313
19688TIP3    H280556   4.132   0.015   5.817  1.9562 -0.9746 -0.1075
19689TIP3   OH280557   1.749   4.374   2.345 -0.2495 -0.0453 -0.1085
19689TIP3    H180558   1.820   4.322   2.382 -0.7204  0.8622  2.2472
19689TIP3    H280559   1.669   4.329   2.373 -0.6260  0.6249 -0.0772
19690TIP3   OH280560   4.501   5.602  12.676 -0.3062  0.0544 -0.4952
19690TIP3    H180561   4.543   5.581  12.593  3.4774  0.9431  0.9894
19690TIP3    H280562   4.511   5.523  12.729 -4.4033 -1.2271 -1.2425
19691TIP3   OH280563   0.629   1.207  15.551 -0.2634  0.2791 -0.4007
19691TIP3    H180564   0.721   1.217  15.528 -0.1338 -0.0348 -0.0355
19691TIP3    H280565   0.621   1.249  15.637 -0.1067 -1.0948  0.3100
19692TIP3   OH280566   0.007   1.598   4.737 -0.1728 -0.0159  0.1070
19692TIP3    H180567  -0.029   1.686   4.732 -3.0638 -1.0643  0.7891
19692TIP3    H280568   0.049   1.595   4.824  1.5914  1.1663 -0.6359
19693TIP3   OH280569   0.423   2.024   4.636  0.0443  0.0526  0.1276
19693TIP3    H180570   0.341   1.974   4.634  0.2106 -0.4430  2.9846
19693TIP3    H280571   0.395   2.114   4.657 -0.0181  0.7535 -2.5518
19694TIP3   OH280572   5.813   3.934  11.765 -0.0078 -0.4984 -0.2739
19694TIP3    H180573   5.854   3.848  11.773  2.3836  0.5817  0.0242
19694TIP3    H280574   5.758   3.928  11.687  1.2827 -1.8768 -1.1324
19695TIP3   OH280575   5.702   1.065  13.128 -0.0740 -0.0520  0.2106
19695TIP3    H180576   5.747   0.982  13.112  1.3270 -0.4102  4.6243
19695TIP3    H280577   5.627   1.041  13.181  0.0739  1.4100  1.1248
19696TIP3   OH280578   4.428   1.389  14.239  0.3010  0.2726 -0.2014
19696TIP3    H180579   4.340   1.427  14.239 -0.6973 -1.9161 -0.3886
19696TIP3    H280580   4.433   1.341  14.321  0.4337 -1.4786 -1.1956
19697TIP3   OH280581   2.320   6.405  13.842  0.3055 -0.2542 -0.7530
19697TIP3    H180582   2.283   6.325  13.805 -0.1158 -0.6203  0.4062
19697TIP3    H280583   2.253   6.472  13.827  1.5753  0.4731 -3.7388
19698TIP3   OH280584   1.571   3.445   5.935 -0.0336 -0.2368 -0.0092
19698TIP3    H180585   1.491   3.420   5.981  0.5006 -0.4771  0.8383
19698TIP3    H280586   1.549   3.524   5.887 -0.9157 -0.5918 -0.2033
19699TIP3   OH280587   2.506   0.520   1.304  0.1109 -0.5468 -0.4775
19699TIP3    H180588   2.585   0.573   1.295  1.7321 -2.7407 -0.1951
19699TIP3    H280589   2.487   0.490   1.215  0.9135 -1.7301 -0.2728
19700TIP3   OH280590   2.406   6.080  12.842 -0.0899 -0.0818  0.0973
19700TIP3    H180591   2.442   6.027  12.914 -0.7119 -0.8348 -0.1331
19700TIP3    H280592   2.445   6.043  12.763  0.0711  0.3174 -0.0167
19701TIP3   OH280593   6.427   4.966  11.637 -0.1033 -0.1993 -0.3725
19701TIP3    H180594   6.350   5.022  11.626  0.1945  0.0634 -1.2239
19701TIP3    H280595   6.392   4.880  11.661 -0.6175  0.0740 -0.1219
19702TIP3   OH280596   2.915   5.827   4.014 -0.5343  0.5922  0.2864
19702TIP3    H180597   2.870   5.794   3.936  0.6862 -0.8355  0.1414
19702TIP3    H280598   2.883   5.772   4.086 -0.1788  0.5934  0.4485
19703TIP3   OH280599   2.496   1.783   2.951  0.4401  0.0850 -0.0184
19703TIP3    H180600   2.438   1.763   3.025  1.5746 -0.9224  0.6354
19703TIP3    H280601   2.487   1.708   2.892  1.1980 -0.1812  0.1862
19704TIP3   OH280602   6.657   3.029   5.042  0.1466  0.3511 -0.1411
19704TIP3    H180603   6.609   3.084   4.981 -0.7882 -0.6710 -0.3638
19704TIP3    H280604   6.687   2.954   4.989  1.8625  0.8675  0.0264
19705TIP3   OH280605   5.646   0.051  13.290  0.5135 -0.0311 -0.1740
19705TIP3    H180606   5.646   0.083  13.381 -0.9060 -0.8376  0.1305
19705TIP3    H280607   5.580   0.104  13.246  1.2814  0.4396 -0.7898
19706TIP3   OH280608   5.494   1.717   4.418 -0.0861 -0.4054  0.0832
19706TIP3    H180609   5.422   1.724   4.481  0.0238 -0.1967  0.1825
19706TIP3    H280610   5.539   1.636   4.442 -2.1750 -2.3299 -1.9070
19707TIP3   OH280611   5.036   2.357   2.519 -0.2347  0.5729 -0.7777
19707TIP3    H180612   5.064   2.276   2.563  0.1350 -1.0755 -3.8032
19707TIP3    H280613   5.116   2.390   2.479 -0.8409  1.0672 -1.6049
19708TIP3   OH280614   3.819   3.350   2.069  0.7482 -0.2369 -0.0202
19708TIP3    H180615   3.874   3.382   2.141  0.6756  1.7722 -0.8021
19708TIP3    H280616   3.769   3.427   2.041 -0.7509 -1.4727 -0.8765
19709TIP3   OH280617   3.139   5.821  14.693  0.1115  0.1981  0.1509
19709TIP3    H180618   3.221   5.820  14.743  0.5332  0.5318 -0.5160
19709TIP3    H280619   3.133   5.732  14.657 -0.6628 -0.3308  1.5113
19710TIP3   OH280620   3.616   3.106  16.526  0.8261 -0.4570 -0.2756
19710TIP3    H180621   3.564   3.185  16.510 -0.2228 -0.7268  1.5534
19710TIP3    H280622   3.687   3.134  16.583 -0.1419 -0.9931  1.2344
19711TIP3   OH280623   1.476   4.463   6.141 -0.4173  0.4773  0.0219
19711TIP3    H180624   1.492   4.540   6.196 -1.4658  0.3147  0.5756
19711TIP3    H280625   1.538   4.397   6.175 -1.0722  0.3657  1.0609
19712TIP3   OH280626   1.919   1.791  16.855  0.3433 -0.3016 -0.0550
19712TIP3    H180627   1.939   1.823  16.768  0.9869 -0.7293 -0.0706
19712TIP3    H280628   1.931   1.866  16.912 -1.2576  0.3086 -0.4596
19713TIP3   OH280629   0.396   4.362   0.513 -0.1752  0.0199 -0.5806
19713TIP3    H180630   0.326   4.342   0.576  1.8084  1.2729  2.2721
19713TIP3    H280631   0.416   4.278   0.472 -1.9293 -0.7748  0.0686
19714TIP3   OH280632   4.618   6.398  13.100 -0.2274 -0.3040  0.0433
19714TIP3    H180633   4.601   6.403  13.007 -1.0772  0.7218  0.2398
19714TIP3    H280634   4.546   6.445  13.141 -0.0287 -0.9792  1.2421
19715TIP3   OH280635   3.036   4.916   2.758  0.0728 -0.6864 -0.1204
19715TIP3    H180636   2.960   4.891   2.705 -0.9564 -0.6033  1.2825
19715TIP3    H280637   3.007   4.909   2.848  1.6531 -0.3551  0.4520
19716TIP3   OH280638   5.832   0.086   4.156  0.0887  0.3332  1.0687
19716TIP3    H180639   5.923   0.110   4.178  0.7296 -1.1208  0.1569
19716TIP3    H280640   5.817   0.127   4.071  0.0376  0.2364  1.0316
19717TIP3   OH280641   1.602   2.142   0.825  0.3919  0.5036  0.3894
19717TIP3    H180642   1.693   2.154   0.798  0.0430 -0.0610 -1.1110
19717TIP3    H280643   1.604   2.067   0.885  0.8604  0.2262  0.0340
19718TIP3   OH280644   6.558   0.078  12.834 -1.1272 -0.0398 -0.0285
19718TIP3    H180645   6.649   0.080  12.804 -0.9094  1.6484  0.6422
19718TIP3    H280646   6.532  -0.014  12.824  0.2812 -0.3571 -1.2792
19719TIP3   OH280647   2.320   3.982   5.288 -0.6096  0.5113  0.2425
19719TIP3    H180648   2.364   3.914   5.237 -0.7562  0.4565  0.1912
19719TIP3    H280649   2.305   4.053   5.225 -0.9326  0.3803  0.1752
19720TIP3   OH280650   1.226   3.363  14.242  0.1186  0.3842  0.6238
19720TIP3    H180651   1.154   3.314  14.282  0.3320  0.7486  1.4543
19720TIP3    H280652   1.269   3.407  14.315  0.2575  1.3897 -0.0445
19721TIP3   OH280653   4.958   6.614   5.674 -0.3202  0.1967 -0.4192
19721TIP3    H180654   4.909   6.606   5.593  0.0059  0.3594 -0.6363
19721TIP3    H280655   4.954   6.708   5.696 -1.8409 -0.0939  0.6663
19722TIP3   OH280656   4.450   0.296  11.092  0.1578  0.0310 -0.2746
19722TIP3    H180657   4.463   0.241  11.015 -1.6936 -0.1107 -0.5185
19722TIP3    H280658   4.411   0.377  11.058 -0.0931  0.2188  0.4415
19723TIP3   OH280659   0.385   2.801  13.226  0.4237 -0.1256 -0.2920
19723TIP3    H180660   0.470   2.829  13.192  0.5156  0.1098  0.1166
19723TIP3    H280661   0.340   2.763  13.151 -0.2611  2.3474 -1.2403
19724TIP3   OH280662   6.196   2.161  16.225 -0.1288 -0.0782 -0.0589
19724TIP3    H180663   6.118   2.110  16.203 -0.2869  0.1303  0.0190
19724TIP3    H280664   6.223   2.129  16.311 -0.7608  0.6114  0.3996
19725TIP3   OH280665   6.839   4.776   6.872  0.5640 -0.0704 -0.0253
19725TIP3    H180666   6.889   4.753   6.951 -0.7084 -0.0395  0.8250
19725TIP3    H280667   6.798   4.860   6.894 -1.9762 -1.3227  0.3842
19726TIP3   OH280668   0.924   0.035  11.849 -0.2578 -0.9084 -0.2837
19726TIP3    H180669   0.949  -0.052  11.816 -0.4223 -0.8140 -0.6641
19726TIP3    H280670   0.928   0.092  11.772  0.1677 -0.5067  0.0270
19727TIP3   OH280671   4.110   4.595  10.982  0.0655  0.1956 -0.2019
19727TIP3    H180672   4.101   4.519  10.924  2.0203  0.1755 -0.5509
19727TIP3    H280673   4.021   4.627  10.993 -0.7879 -1.9172 -0.3577
19728TIP3   OH280674   5.470   0.496   0.548 -0.1457  0.7558 -0.3762
19728TIP3    H180675   5.409   0.441   0.598 -1.1704  0.0924 -2.2584
19728TIP3    H280676   5.424   0.514   0.466  1.3004  2.1492 -0.9300
19729TIP3   OH280677   1.720   3.001   2.786  0.4090  0.0979 -0.1104
19729TIP3    H180678   1.768   3.074   2.745 -0.5449  0.6425 -0.3058
19729TIP3    H280679   1.768   2.923   2.760  1.2547  0.6359 -0.1957
19730TIP3   OH280680   2.605   5.548   2.199 -0.6804  0.0933  0.1929
19730TIP3    H180681   2.610   5.643   2.213  0.3237 -0.0266  0.7468
19730TIP3    H280682   2.628   5.537   2.106  1.4240  0.2463  0.6503
19731TIP3   OH280683   5.337   2.678   5.596  0.0797 -0.5280  0.1146
19731TIP3    H180684   5.260   2.637   5.636 -1.1170 -0.0996 -1.6381
19731TIP3    H280685   5.334   2.769   5.626 -0.3394 -0.4095 -0.2859
19732TIP3   OH280686   6.230   0.828   6.371  0.0679  1.2687 -0.0622
19732TIP3    H180687   6.219   0.774   6.448 -1.6500  0.7862 -0.6120
19732TIP3    H280688   6.142   0.839   6.336  0.8958  0.3474 -2.7100
19733TIP3   OH280689   3.598   0.715   1.894 -0.3304  0.0262 -0.3183
19733TIP3    H180690   3.571   0.624   1.907 -0.6660  0.1705  0.0155
19733TIP3    H280691   3.689   0.710   1.867  0.1236 -0.3506  1.1658
19734TIP3   OH280692   3.474   3.973   1.206  0.0682 -0.5574 -0.5618
19734TIP3    H180693   3.516   4.059   1.213 -1.0127 -0.0366 -0.1793
19734TIP3    H280694   3.398   3.979   1.264 -0.3504 -1.5764 -0.9834
19735TIP3   OH280695   2.424   5.387   1.235  0.4576 -0.0884  0.4811
19735TIP3    H180696   2.453   5.476   1.256  2.4375 -0.8715  1.2300
19735TIP3    H280697   2.455   5.372   1.146  1.2894 -0.4893  0.8342
19736TIP3   OH280698   5.553   4.430  11.811 -0.2146 -0.4069  0.0245
19736TIP3    H180699   5.553   4.388  11.897 -0.2358 -0.7224 -0.1282
19736TIP3    H280700   5.641   4.416  11.777 -0.0339  0.2059  0.2289
19737TIP3   OH280701   2.852   6.462  12.655 -0.2123  0.0843  0.2032
19737TIP3    H180702   2.877   6.547  12.692 -1.8390  0.3933  0.7055
19737TIP3    H280703   2.866   6.400  12.727 -0.3955  0.1756  0.3195
19738TIP3   OH280704   0.110   5.324   0.574 -0.2954  0.2486 -0.1275
19738TIP3    H180705   0.145   5.338   0.662  0.2734  0.6122 -0.4030
19738TIP3    H280706   0.136   5.234   0.553  2.6896  1.2612 -1.2678
19739TIP3   OH280707   6.245   3.042  12.832  0.3584 -0.3771  0.2917
19739TIP3    H180708   6.308   3.010  12.897 -0.5013 -2.2475  0.2486
19739TIP3    H280709   6.297   3.054  12.752  0.4959 -3.3904 -0.1990
19740TIP3   OH280710   2.678   2.202  13.062 -0.0231  0.6114  0.0801
19740TIP3    H180711   2.693   2.122  13.012 -0.5561  1.2371 -1.1233
19740TIP3    H280712   2.616   2.252  13.009 -0.8060  1.1990  1.4974
19741TIP3   OH280713   5.659   0.279  14.535 -0.7282 -0.3617  0.3401
19741TIP3    H180714   5.643   0.218  14.463 -1.0403 -0.0537  0.1555
19741TIP3    H280715   5.747   0.254  14.567 -1.4055 -1.8385  1.1733
19742TIP3   OH280716   2.432   5.210  14.816 -0.0593 -0.4278  0.2094
19742TIP3    H180717   2.521   5.237  14.793  0.0254 -0.4219  0.5364
19742TIP3    H280718   2.412   5.260  14.895 -0.6121  0.0813 -0.2432
19743TIP3   OH280719   1.053   5.655  17.102 -0.5202  0.2284 -0.3841
19743TIP3    H180720   0.995   5.588  17.065  1.3008 -1.1811 -0.8617
19743TIP3    H280721   1.027   5.660  17.194 -1.6940 -0.0269 -0.6841
19744TIP3   OH280722   3.715   1.469   0.145  0.3917  0.2593  0.1974
19744TIP3    H180723   3.756   1.414   0.078 -0.1478  0.7412 -0.5427
19744TIP3    H280724   3.710   1.556   0.104 -2.1359  0.0387 -0.0740
19745TIP3   OH280725   0.794   4.027  16.693 -0.1396  0.1707 -0.0734
19745TIP3    H180726   0.887   4.045  16.687 -0.2075  1.3544  1.7679
19745TIP3    H280727   0.756   4.106  16.731 -1.3579 -1.5445  2.6212
19746TIP3   OH280728   6.736   1.572  14.208 -0.0877  0.0009  0.2749
19746TIP3    H180729   6.830   1.563  14.222  0.0738  0.8284 -0.1956
19746TIP3    H280730   6.705   1.483  14.190  0.6154 -0.2608  0.3444
19747TIP3   OH280731   4.140   2.612  16.772 -0.0168 -0.1165 -0.7572
19747TIP3    H180732   4.214   2.551  16.772 -0.7191 -1.1786  2.3058
19747TIP3    H280733   4.097   2.599  16.688  0.9271 -2.5258 -0.9416
19748TIP3   OH280734   5.632   1.673  14.079 -0.3762 -0.6135  0.4040
19748TIP3    H180735   5.690   1.610  14.037 -1.9299 -1.0640 -1.1625
19748TIP3    H280736   5.559   1.621  14.112  0.6712 -0.2599  3.6573
19749TIP3   OH280737   0.094   4.034   3.510  0.4315 -0.2634 -0.2929
19749TIP3    H180738   0.016   3.991   3.475 -0.9687  2.5829 -0.9180
19749TIP3    H280739   0.076   4.044   3.604 -0.0209  0.5068 -0.4601
19750TIP3   OH280740   6.361   1.520   3.948 -0.1796 -0.0850 -0.2919
19750TIP3    H180741   6.273   1.538   3.916 -0.5172 -0.4981  0.3729
19750TIP3    H280742   6.353   1.436   3.993  0.4909  0.0151  0.0233
19751TIP3   OH280743   3.581   5.659  10.671 -0.0697  0.0761 -0.3845
19751TIP3    H180744   3.603   5.733  10.613 -1.5506  0.8762  0.0258
19751TIP3    H280745   3.498   5.685  10.712  0.3773 -0.9580  1.2624
19752TIP3   OH280746   1.658   0.542  11.434 -0.1296 -0.3361 -0.0116
19752TIP3    H180747   1.628   0.586  11.354 -0.9631 -0.0865  0.4265
19752TIP3    H280748   1.745   0.510  11.412 -0.6181 -0.8804 -1.2551
19753TIP3   OH280749   6.152   3.433  11.828  0.0760 -0.0655 -0.0295
19753TIP3    H180750   6.066   3.464  11.800  0.2924  0.2798 -0.3264
19753TIP3    H280751   6.213   3.501  11.799  0.2175  0.8172  2.1461
19754TIP3   OH280752   4.656   5.180   1.987 -0.3093  0.0422 -0.2787
19754TIP3    H180753   4.685   5.271   1.983 -2.1745  0.6963  0.1594
19754TIP3    H280754   4.648   5.162   2.081 -2.2763  0.2465 -0.3726
19755TIP3   OH280755   6.795   5.061   1.384 -0.5856  0.7360 -0.0569
19755TIP3    H180756   6.761   5.137   1.337  1.4839  1.7941  0.0401
19755TIP3    H280757   6.862   5.025   1.327 -0.5358 -0.1533  0.5414
19756TIP3   OH280758   6.278   3.154  15.981 -0.5164  0.4558  0.2696
19756TIP3    H180759   6.195   3.169  16.026 -0.6251 -2.2329  1.1569
19756TIP3    H280760   6.287   3.058  15.979  3.3574  0.6201  1.7327
19757TIP3   OH280761   4.281   5.617  12.989 -0.7936 -0.0419 -0.5959
19757TIP3    H180762   4.262   5.574  13.073 -0.7297  1.6710  0.3476
19757TIP3    H280763   4.223   5.575  12.926 -3.2697  0.7935  0.9703
19758TIP3   OH280764   5.927   2.734  14.852  0.8095  0.2545  0.0233
19758TIP3    H180765   5.912   2.805  14.790  1.8604 -0.4780 -1.1167
19758TIP3    H280766   6.021   2.735  14.868  0.5612  0.3791  1.5701
19759TIP3   OH280767   5.588   1.819  17.116 -0.8313  0.2634 -0.0079
19759TIP3    H180768   5.547   1.904  17.096 -0.6600  0.5910  1.0027
19759TIP3    H280769   5.681   1.839  17.126 -0.6191 -0.2434 -0.8780
19760TIP3   OH280770   6.791   1.910   2.383  0.1014  0.7394 -0.2283
19760TIP3    H180771   6.765   1.819   2.395  1.2712  0.3826 -0.3054
19760TIP3    H280772   6.879   1.915   2.421 -0.3270  2.0666  0.6302
19761TIP3   OH280773   5.268   0.571  14.211 -0.1279  0.2831  0.0785
19761TIP3    H180774   5.266   0.660  14.175 -0.6275  1.1806  2.1685
19761TIP3    H280775   5.356   0.539  14.191 -0.3774  0.7194 -1.8590
19762TIP3   OH280776   5.778   0.014   2.661  0.0736  0.2869 -0.0831
19762TIP3    H180777   5.836  -0.008   2.588  0.2706  0.9728 -0.1345
19762TIP3    H280778   5.817   0.092   2.701  0.1912 -0.3038  1.0012
19763TIP3   OH280779   0.507   4.887   6.509 -0.0877  0.7588 -0.2577
19763TIP3    H180780   0.503   4.791   6.513  1.4194  0.4014 -3.5363
19763TIP3    H280781   0.419   4.914   6.485 -0.5096  0.2171  0.6302
19764TIP3   OH280782   4.587   2.890  15.666 -0.0411 -0.2308 -0.4939
19764TIP3    H180783   4.538   2.914  15.588 -0.2998  0.9097 -0.0091
19764TIP3    H280784   4.531   2.829  15.713 -0.1033 -0.5229 -0.9457
19765TIP3   OH280785   6.817   0.868   1.333  0.1268 -0.3781  0.3942
19765TIP3    H180786   6.828   0.859   1.428 -0.2272 -0.7548  0.4032
19765TIP3    H280787   6.863   0.793   1.297 -1.8188 -1.6472  0.4034
19766TIP3   OH280788   3.710   6.555  16.177  0.0748 -0.3630 -0.6895
19766TIP3    H180789   3.651   6.504  16.122  1.4569 -1.2483 -1.4048
19766TIP3    H280790   3.777   6.588  16.117  0.8827 -0.2381  0.2561
19767TIP3   OH280791   1.396   4.836  13.928 -0.5576 -0.1382 -0.3051
19767TIP3    H180792   1.325   4.806  13.985 -1.2766 -0.9208 -1.5791
19767TIP3    H280793   1.396   4.931  13.940 -1.4629 -0.1722  0.1291
19768TIP3   OH280794   5.930   2.145  16.526  0.3922 -0.1953 -0.2063
19768TIP3    H180795   5.900   2.205  16.594  1.2518 -0.4335  0.3965
19768TIP3    H280796   5.850   2.104  16.493  0.0818 -1.4243  1.9092
19769TIP3   OH280797   0.560   2.345   0.631 -0.0047  0.1973 -0.2276
19769TIP3    H180798   0.566   2.265   0.683 -1.9374  0.5153  0.5714
19769TIP3    H280799   0.543   2.414   0.694 -2.9783  0.5197 -1.2133
19770TIP3   OH280800   4.143   5.612   3.599  0.2070  0.7192 -0.1544
19770TIP3    H180801   4.064   5.594   3.549  0.4383  1.6144 -0.8803
19770TIP3    H280802   4.112   5.654   3.680 -0.0356  1.7575 -0.7694
19771TIP3   OH280803   1.881   3.527  13.107  0.0596  0.4746 -0.6525
19771TIP3    H180804   1.843   3.614  13.095 -0.4187  0.4402  0.4970
19771TIP3    H280805   1.845   3.496  13.190  1.4977 -0.1450 -0.2237
19772TIP3   OH280806   4.760   2.453  12.786 -0.1847  0.4367 -1.1596
19772TIP3    H180807   4.744   2.432  12.694 -0.1969 -0.6848 -0.9155
19772TIP3    H280808   4.848   2.492  12.787 -0.0061  0.0447 -1.5897
19773TIP3   OH280809   5.556   1.571  16.093  0.0310  0.0951 -0.0906
19773TIP3    H180810   5.620   1.538  16.156  1.5531  1.7965 -0.6670
19773TIP3    H280811   5.571   1.519  16.014 -0.9049 -1.0586  0.4552
19774TIP3   OH280812   6.722   5.367   5.685  0.0790  0.5551  0.4328
19774TIP3    H180813   6.772   5.287   5.699 -0.4110 -0.2360 -1.9508
19774TIP3    H280814   6.697   5.396   5.773 -2.6635 -3.7659  1.3509
19775TIP3   OH280815   3.800   4.692  16.712 -0.3350 -0.4309  0.1319
19775TIP3    H180816   3.717   4.690  16.666 -0.8298 -3.1979  0.9573
19775TIP3    H280817   3.797   4.616  16.770  3.2186 -1.2904 -0.6092
19776TIP3   OH280818   1.145   0.432  13.559 -0.4215 -0.1900 -0.0939
19776TIP3    H180819   1.120   0.469  13.643  0.4934 -0.9252  0.5214
19776TIP3    H280820   1.234   0.463  13.545  0.1242 -1.5702  0.1212
19777TIP3   OH280821   6.577   0.235  14.410 -0.3359  0.7036 -0.4985
19777TIP3    H180822   6.613   0.269  14.492 -0.0468  1.3079 -0.8701
19777TIP3    H280823   6.617   0.148  14.402 -2.9777 -0.8892  1.7131
19778TIP3   OH280824   5.007   0.035   3.390  0.6506  0.7273  0.1741
19778TIP3    H180825   4.949   0.001   3.459  0.4655 -0.3208 -0.4787
19778TIP3    H280826   5.081   0.073   3.438  1.7211 -2.1080  0.9887
19779TIP3   OH280827   2.841   5.053  13.873 -0.2225 -0.1221 -0.2154
19779TIP3    H180828   2.833   5.142  13.839  0.2884  0.1589  0.3817
19779TIP3    H280829   2.928   5.050  13.914 -0.3378 -0.8143 -0.0037
19780TIP3   OH280830   1.725   3.979   3.129  0.0816  0.0170  0.2041
19780TIP3    H180831   1.785   3.999   3.201  1.0317  1.2306 -0.8741
19780TIP3    H280832   1.768   4.016   3.051 -1.3674 -0.4071 -0.8309
19781TIP3   OH280833   3.834   2.454  15.271 -0.1055 -0.2008  0.3891
19781TIP3    H180834   3.902   2.388  15.256 -0.5611 -0.9236  1.3339
19781TIP3    H280835   3.871   2.535  15.238  0.5356 -0.8990 -0.6656
19782TIP3   OH280836   5.160   2.148  14.640 -0.1247  0.2153 -0.4143
19782TIP3    H180837   5.128   2.201  14.713 -0.0103  1.0911 -0.9909
19782TIP3    H280838   5.185   2.211  14.573 -0.3503 -0.5845 -1.2697
19783TIP3   OH280839   4.799   5.812  16.553 -0.1617  0.6813 -0.0196
19783TIP3    H180840   4.759   5.897  16.534  1.6191  1.1805 -1.9048
19783TIP3    H280841   4.808   5.811  16.648 -1.6587  1.8891  0.1885
19784TIP3   OH280842   2.176   2.200   2.724  0.0222 -0.0182  0.8869
19784TIP3    H180843   2.195   2.294   2.727  0.3808  0.1903 -2.7095
19784TIP3    H280844   2.262   2.158   2.728 -0.1020 -0.1836  1.9879
19785TIP3   OH280845   6.793   6.156  10.987  0.3894  0.7259  0.1627
19785TIP3    H180846   6.750   6.159  11.073  0.8131  0.1651  0.4040
19785TIP3    H280847   6.729   6.193  10.927 -0.0869  0.7191  0.6526
19786TIP3   OH280848   5.391   1.810  11.160  0.3257 -0.3993  0.3711
19786TIP3    H180849   5.337   1.888  11.146  0.0650 -0.9402 -1.8981
19786TIP3    H280850   5.329   1.740  11.178  0.0025 -1.2990 -3.4778
19787TIP3   OH280851   4.436   3.420  10.918  0.0958  0.9452 -0.4481
19787TIP3    H180852   4.526   3.396  10.939  0.4644  2.6993  0.1690
19787TIP3    H280853   4.385   3.391  10.994  0.2281  0.4450 -0.5496
19788TIP3   OH280854   4.839   2.362  12.485 -0.2555 -0.0002  0.4912
19788TIP3    H180855   4.928   2.398  12.484 -0.1544 -0.2299 -0.5374
19788TIP3    H280856   4.790   2.420  12.427 -1.0204  0.6654  1.7637
19789TIP3   OH280857   1.306   6.345  14.259  0.0620 -0.2483  0.6930
19789TIP3    H180858   1.326   6.319  14.349  2.2166  1.8684  0.9429
19789TIP3    H280859   1.321   6.266  14.207  0.0705 -1.1663  2.0344
19790TIP3   OH280860   3.219   4.428  10.867 -1.0856 -0.0226 -0.1724
19790TIP3    H180861   3.133   4.457  10.898 -1.7006  0.9490 -2.5676
19790TIP3    H280862   3.199   4.356  10.807 -0.0013 -1.3798  1.0125
19791TIP3   OH280863   2.721   3.448   4.158  0.1682 -0.5595  0.0511
19791TIP3    H180864   2.677   3.378   4.108 -0.3524  1.3133 -2.3136
19791TIP3    H280865   2.720   3.416   4.248 -0.5535 -3.3337 -0.8115
19792TIP3   OH280866   4.776   0.184  16.165  0.1345 -0.5493 -0.4102
19792TIP3    H180867   4.817   0.269  16.178 -1.1452  0.3776 -2.1028
19792TIP3    H280868   4.719   0.173  16.242 -1.0851  1.0164 -1.0340
19793TIP3   OH280869   4.444   4.042   5.632 -0.8233  0.7248  0.2895
19793TIP3    H180870   4.369   4.091   5.600 -1.9482  0.2288  2.0400
19793TIP3    H280871   4.409   3.956   5.656 -0.0429  0.9577  2.5028
19794TIP3   OH280872   0.802   2.580  14.080  0.5038 -0.2288  0.1947
19794TIP3    H180873   0.819   2.667  14.116  0.9254 -0.4721  0.5802
19794TIP3    H280874   0.818   2.589  13.986 -1.0212  0.5197 -0.0275
19795TIP3   OH280875   6.248   4.286  17.125 -0.3561  0.4391 -0.6466
19795TIP3    H180876   6.180   4.347  17.152 -1.3550 -0.6266 -0.6700
19795TIP3    H280877   6.225   4.203  17.167 -0.0534 -0.3829 -2.0201
19796TIP3   OH280878   5.086   5.697   5.632 -0.3944 -0.2233 -0.4862
19796TIP3    H180879   5.174   5.689   5.594 -0.4211 -1.5787 -0.3277
19796TIP3    H280880   5.075   5.790   5.649  0.7045  0.0573 -1.2415
19797TIP3   OH280881   4.739   4.487   4.202 -0.0455 -0.0465 -0.0805
19797TIP3    H180882   4.744   4.573   4.162  1.4826 -0.0806 -0.0372
19797TIP3    H280883   4.721   4.504   4.294  1.0325  0.3021  0.0850
19798TIP3   OH280884   5.111   5.668   2.647 -0.3320  0.1015  0.0751
19798TIP3    H180885   5.075   5.746   2.689 -0.5336 -0.1848  0.4416
19798TIP3    H280886   5.151   5.618   2.719  1.2236  0.6314 -0.3724
19799TIP3   OH280887   0.419   2.691  15.240 -0.2110 -0.3252 -0.2105
19799TIP3    H180888   0.449   2.684  15.150  1.1892 -1.4190  0.3084
19799TIP3    H280889   0.388   2.604  15.263 -3.0158  0.5125 -0.3866
19800TIP3   OH280890   5.080   1.829   0.918 -0.4416  0.2194 -0.3961
19800TIP3    H180891   5.077   1.846   1.012 -1.9939  1.1665 -0.5787
19800TIP3    H280892   5.137   1.753   0.909  1.2320  1.2097  1.1299
19801TIP3   OH280893   0.231   3.761   3.840 -0.3239 -0.3654  0.0968
19801TIP3    H180894   0.152   3.809   3.864 -1.1753 -0.4615 -2.2537
19801TIP3    H280895   0.285   3.824   3.793  0.6337 -0.5384  0.9212
19802TIP3   OH280896   4.368   2.132   0.351 -0.5768  1.2034 -0.0846
19802TIP3    H180897   4.456   2.146   0.314  0.1612 -0.6407  0.8472
19802TIP3    H280898   4.326   2.070   0.291 -0.2017 -0.0380  0.8891
19803TIP3   OH280899   5.592   0.976  15.153 -0.6871 -0.0241  0.2741
19803TIP3    H180900   5.538   1.056  15.150  0.6195  0.8906  0.1616
19803TIP3    H280901   5.673   1.004  15.194 -0.5421 -1.5405  1.0767
19804TIP3   OH280902   6.016   2.800   2.823  0.4112 -0.2836  0.5185
19804TIP3    H180903   5.979   2.787   2.736  1.1279 -1.9692  0.4275
19804TIP3    H280904   6.085   2.866   2.811  0.6667 -0.6842 -0.2536
19805TIP3   OH280905   4.610   6.130  16.721  0.1177 -0.1346  0.2663
19805TIP3    H180906   4.669   6.102  16.791 -0.4197 -0.7805  0.4725
19805TIP3    H280907   4.607   6.056  16.661 -2.3927 -1.1867  1.5126
19806TIP3   OH280908   1.467   4.333   2.165  0.2937 -0.4869  0.0496
19806TIP3    H180909   1.474   4.262   2.229 -1.9937 -0.2105  0.6799
19806TIP3    H280910   1.496   4.293   2.083 -1.0587 -2.2293  0.3589
19807TIP3   OH280911   2.608   2.122   0.448 -0.2316 -0.2126 -0.1484
19807TIP3    H180912   2.695   2.159   0.438  0.3315 -1.1101  1.1423
19807TIP3    H280913   2.592   2.075   0.367  0.1646  0.5735 -0.6925
19808TIP3   OH280914   4.097   5.699  16.303  0.3441 -0.2942 -0.4940
19808TIP3    H180915   4.127   5.627  16.358  0.1441 -0.3366 -0.4388
19808TIP3    H280916   4.153   5.694  16.225  1.5008  0.5540  0.2510
19809TIP3   OH280917   2.673   1.938  13.034 -0.1263  0.0044 -0.7774
19809TIP3    H180918   2.708   1.885  13.105 -1.2938  0.8769  0.4881
19809TIP3    H280919   2.634   1.873  12.974  0.1240 -0.6934 -0.2015
19810TIP3   OH280920   3.720   3.914   2.460  0.0559 -0.0493 -0.5065
19810TIP3    H180921   3.740   3.884   2.549 -0.5696  0.2045 -0.2731
19810TIP3    H280922   3.635   3.874   2.440 -0.6487  1.2856 -0.3035
19811TIP3   OH280923   3.462   4.469   4.032 -0.1900 -0.8726 -0.2561
19811TIP3    H180924   3.440   4.507   4.117 -1.4644  0.2426 -1.0523
19811TIP3    H280925   3.534   4.523   3.999  0.5395 -1.5151  0.2210
19812TIP3   OH280926   3.437   2.022  12.159 -0.0890 -0.7323  0.2997
19812TIP3    H180927   3.504   1.960  12.189  0.6249  0.4868  1.3567
19812TIP3    H280928   3.354   1.981  12.183  0.2999 -1.8674 -0.2229
19813TIP3   OH280929   3.948   1.581   6.098 -0.1202 -0.2132 -0.1875
19813TIP3    H180930   3.979   1.596   6.008  0.8295  0.4420  0.2385
19813TIP3    H280931   4.011   1.626   6.153 -0.8068 -0.4470  0.8147
19814TIP3   OH280932   6.033   5.496   6.287 -0.1804  0.0643  0.2816
19814TIP3    H180933   6.089   5.498   6.209 -0.5956 -0.7869 -0.0481
19814TIP3    H280934   5.950   5.532   6.258 -0.5967 -0.9945  0.0985
19815TIP3   OH280935   2.803   1.926   4.624 -0.1309 -0.0765  0.5662
19815TIP3    H180936   2.846   1.875   4.555 -3.2474 -0.9550 -0.8707
19815TIP3    H280937   2.800   2.015   4.591 -1.1510 -0.3979 -0.2408
19816TIP3   OH280938   2.332   2.876   2.070  0.3194  0.4295  0.7063
19816TIP3    H180939   2.409   2.896   2.016 -0.8463  0.3678 -1.0471
19816TIP3    H280940   2.309   2.786   2.048 -0.0643  0.3184  1.5044
19817TIP3   OH280941   3.433   2.423   2.652  0.1386  0.4616 -0.2861
19817TIP3    H180942   3.434   2.360   2.580  0.8209  1.6118 -1.3420
19817TIP3    H280943   3.482   2.498   2.618 -0.3184  1.4098  1.0560
19818TIP3   OH280944   4.897   0.270  12.812  0.7755 -0.0634  0.3712
19818TIP3    H180945   4.844   0.208  12.761  0.2180 -0.3195  1.2469
19818TIP3    H280946   4.847   0.352  12.810  1.7562  0.5443 -1.2159
19819TIP3   OH280947   1.275   4.301   1.959 -0.6949  0.5525  0.1238
19819TIP3    H180948   1.322   4.324   2.039  1.5272 -1.3127 -0.5003
19819TIP3    H280949   1.308   4.363   1.893 -0.4009  0.3380  0.0661
19820TIP3   OH280950   5.164   1.350   0.297 -0.2195 -0.6628 -0.0152
19820TIP3    H180951   5.093   1.371   0.357  0.3456 -0.4677  0.5857
19820TIP3    H280952   5.129   1.372   0.210 -0.4575  0.5850  0.3803
19821TIP3   OH280953   0.302   1.749   4.283  0.3716 -0.1673 -0.0740
19821TIP3    H180954   0.382   1.746   4.231 -0.3888  2.8382 -1.6174
19821TIP3    H280955   0.252   1.673   4.254  2.1332 -1.4853  0.1455
19822TIP3   OH280956   2.359   1.221   2.779 -0.7611 -0.8171 -0.1490
19822TIP3    H180957   2.401   1.196   2.861  0.0879  0.1882 -0.2533
19822TIP3    H280958   2.289   1.281   2.806 -0.3385 -0.3099 -0.1662
19823TIP3   OH280959   0.577   1.101  16.718 -0.6936 -0.0588 -0.1721
19823TIP3    H180960   0.652   1.085  16.776  0.3576 -0.6826 -1.6464
19823TIP3    H280961   0.544   1.186  16.745  1.5421  0.9916 -0.5124
19824TIP3   OH280962   4.835   1.829  12.619 -0.4062  0.0364  0.2706
19824TIP3    H180963   4.804   1.739  12.616 -0.3666 -0.0209  1.2683
19824TIP3    H280964   4.926   1.824  12.589  0.2471 -0.5850  2.2054
19825TIP3   OH280965   1.025   5.426   6.090 -0.4400  0.1288  0.2966
19825TIP3    H180966   1.101   5.481   6.107 -0.6061  0.1916  0.8457
19825TIP3    H280967   0.986   5.411   6.176 -1.1897  0.2959 -0.0068
19826TIP3   OH280968   2.019   0.466  13.438 -0.0841 -0.4737 -0.4326
19826TIP3    H180969   2.012   0.384  13.488  1.8879  0.9835  2.5409
19826TIP3    H280970   1.931   0.504  13.444 -0.6841 -1.7410 -0.7329
19827TIP3   OH280971   4.591   6.318  12.140  0.5560  0.1974 -0.1822
19827TIP3    H180972   4.606   6.247  12.202 -0.3224 -0.5421 -0.8084
19827TIP3    H280973   4.679   6.342  12.111  0.9138 -0.0830  0.6175
19828TIP3   OH280974   6.103   3.137  16.957  0.7806  0.4162  0.4977
19828TIP3    H180975   6.148   3.057  16.983 -0.7711 -1.0780 -1.1587
19828TIP3    H280976   6.043   3.110  16.888 -0.1493  2.9424  0.1993
19829TIP3   OH280977   4.906   1.102  15.628 -0.7256  0.5417  0.6572
19829TIP3    H180978   4.947   1.167  15.685  3.3693  0.3083 -1.6685
19829TIP3    H280979   4.942   1.018  15.656 -0.0699  0.2197 -1.0474
19830TIP3   OH280980   3.090   5.674   0.856  0.1870 -0.0773  0.4646
19830TIP3    H180981   3.074   5.629   0.773  1.7848  0.5470 -0.2228
19830TIP3    H280982   3.107   5.603   0.918  0.9839 -0.5033 -0.2157
19831TIP3   OH280983   6.452   3.649  13.308 -0.8478  0.3716  0.3794
19831TIP3    H180984   6.363   3.678  13.325 -1.4648 -1.7819  1.1875
19831TIP3    H280985   6.504   3.690  13.377 -1.2827  1.2879  0.1694
19832TIP3   OH280986   5.190   0.949  13.813 -0.3262 -0.1989  0.0111
19832TIP3    H180987   5.164   1.041  13.824 -0.2727 -0.2410  0.5258
19832TIP3    H280988   5.229   0.946  13.726  1.8774  0.8106  0.8635
19833TIP3   OH280989   6.769   0.009  15.561 -0.0488  0.8388  0.1456
19833TIP3    H180990   6.687  -0.003  15.514  0.6783  2.8307 -1.8171
19833TIP3    H280991   6.807   0.088  15.523  2.0228  0.8977  2.1174
19834TIP3   OH280992   4.161   2.583  11.891 -0.2170 -0.1544  0.1809
19834TIP3    H180993   4.116   2.611  11.971  1.4359  1.7012  0.5451
19834TIP3    H280994   4.146   2.654  11.829 -0.1805 -0.8463 -0.6299
19835TIP3   OH280995   3.101   0.415  16.191 -0.5843  0.8635  0.6720
19835TIP3    H180996   3.138   0.385  16.108 -0.2982 -0.7435  1.3500
19835TIP3    H280997   3.168   0.394  16.257 -1.6152  0.2634  1.5740
19836TIP3   OH280998   2.021   5.313   5.867  0.1079  0.2983  0.1422
19836TIP3    H180999   2.014   5.364   5.947 -0.0778  1.8350 -0.7998
19836TIP3    H281000   2.068   5.371   5.806 -2.1269  0.3183 -1.7033
19837TIP3   OH281001   0.077   5.380   2.178  0.2961  0.4738  0.2199
19837TIP3    H181002  -0.007   5.422   2.194  0.0507  0.0788 -0.0118
19837TIP3    H281003   0.085   5.375   2.083  0.8548  1.0417  0.2324
19838TIP3   OH281004   4.974   2.419   1.956  0.5069 -0.0021  0.2885
19838TIP3    H181005   4.915   2.369   2.012  0.2883 -1.7645 -1.4260
19838TIP3    H281006   5.028   2.354   1.912  1.0086  1.3270 -1.1751
19839TIP3   OH281007   0.244   5.095   2.174  0.0524  0.5083 -0.1364
19839TIP3    H181008   0.149   5.091   2.165 -0.2750 -1.1404  2.7314
19839TIP3    H281009   0.270   5.004   2.185  1.6420  1.1057  1.4640
19840TIP3   OH281010   3.416   6.243  13.017  0.1097  0.4692 -0.1838
19840TIP3    H181011   3.336   6.295  13.010  0.8098  1.8710  1.6965
19840TIP3    H281012   3.420   6.195  12.934 -2.5673  0.4723 -0.4028
19841TIP3   OH281013   4.332   1.060  13.397  0.0241  0.1075 -0.2657
19841TIP3    H181014   4.307   0.989  13.338  2.2460 -1.1046  0.1306
19841TIP3    H281015   4.398   1.109  13.349 -0.1811  0.8196  0.1618
19842TIP3   OH281016   2.323   5.959  13.951  0.4882 -0.1139 -0.5242
19842TIP3    H181017   2.237   5.939  13.987 -1.1350  2.6568 -2.4540
19842TIP3    H281018   2.366   6.010  14.019 -1.1560  2.0672 -0.9983
19843TIP3   OH281019   4.913   4.702  15.295 -0.1658  0.3219  0.2281
19843TIP3    H181020   4.901   4.729  15.385 -0.8415 -0.4795  0.3919
19843TIP3    H281021   4.986   4.640  15.298 -0.6479 -0.2563  0.3533
19844TIP3   OH281022   1.795   0.691  12.259 -0.0220  0.1449 -0.2781
19844TIP3    H181023   1.712   0.728  12.228 -1.5950 -2.3800  0.6469
19844TIP3    H281024   1.777   0.664  12.349  2.7486  2.1443  1.0198
19845TIP3   OH281025   3.047   0.630   5.624 -0.8313 -0.0415 -0.0869
19845TIP3    H181026   2.984   0.578   5.675 -1.2163  1.3188  0.8822
19845TIP3    H281027   3.116   0.652   5.688  0.3537 -1.0054 -0.9838
19846TIP3   OH281028   5.081   1.867  15.190 -0.3823 -0.5847 -0.0912
19846TIP3    H181029   5.013   1.819  15.144  1.2759 -0.4419 -2.8992
19846TIP3    H281030   5.057   1.959  15.182 -0.5156 -0.6078  0.0483
19847TIP3   OH281031   6.786   1.764  16.994  0.4720  0.0518  0.1544
19847TIP3    H181032   6.857   1.824  17.016  0.8770 -0.3084 -0.1456
19847TIP3    H281033   6.758   1.790  16.906  0.7463 -0.2840 -0.0361
19848TIP3   OH281034   3.369   3.231   4.215 -0.6617  0.3605  0.3650
19848TIP3    H181035   3.369   3.183   4.298  1.4320 -0.2707  0.0703
19848TIP3    H281036   3.372   3.323   4.241  0.6877  0.1600  1.0631
19849TIP3   OH281037   2.293   3.434   4.252 -0.2648 -0.3325 -0.2031
19849TIP3    H181038   2.282   3.343   4.226 -1.5937 -0.2109 -0.1153
19849TIP3    H281039   2.204   3.469   4.258  0.2604  1.3538 -1.5288
19850TIP3   OH281040   1.354   4.181  14.109  0.7230  0.2544 -0.4181
19850TIP3    H181041   1.381   4.161  14.199 -1.7876  0.5592  0.5118
19850TIP3    H281042   1.350   4.277  14.105  0.4650  0.2342 -0.7263
19851TIP3   OH281043   2.720   4.308   0.099  0.9162 -0.1310 -0.1674
19851TIP3    H181044   2.652   4.328   0.164  1.5755  0.2776  0.4015
19851TIP3    H281045   2.704   4.370   0.028  0.5923 -0.1490 -0.1137
19852TIP3   OH281046   5.859   2.776  12.352 -0.0663  0.1423  0.0434
19852TIP3    H181047   5.910   2.709  12.397  0.1167  0.3470  0.1423
19852TIP3    H281048   5.924   2.831  12.309 -0.2358 -0.0071 -0.4107
19853TIP3   OH281049   2.832   1.065   0.826  0.2827  1.1104  0.2251
19853TIP3    H181050   2.867   1.001   0.763 -2.4853 -0.4737  0.1677
19853TIP3    H281051   2.755   1.102   0.783 -0.7625  1.1707  2.0504
19854TIP3   OH281052   5.173   3.917   2.235 -0.5354 -0.0522  0.3029
19854TIP3    H181053   5.130   3.996   2.202 -3.3903 -0.7801  1.8797
19854TIP3    H281054   5.260   3.945   2.260 -0.1963  1.7229 -2.5059
19855TIP3   OH281055   4.719   4.776  13.275 -0.0376  0.3880  0.3416
19855TIP3    H181056   4.726   4.775  13.371 -1.0664 -0.4054  0.4163
19855TIP3    H281057   4.800   4.819  13.246  2.1555 -2.6228  1.4122
19856TIP3   OH281058   0.145   0.604  16.522  0.6016 -0.2948 -0.0926
19856TIP3    H181059   0.078   0.623  16.456  0.9675 -0.0993 -0.4084
19856TIP3    H281060   0.122   0.517  16.554 -0.8339  0.4654  1.0523
19857TIP3   OH281061   3.269   0.058   6.087  0.6644 -0.0534 -0.1869
19857TIP3    H181062   3.227   0.119   6.147  1.5251  0.3335  0.0252
19857TIP3    H281063   3.341   0.107   6.048  0.1956 -0.3352 -1.4587
19858TIP3   OH281064   2.804   1.966  14.479  0.1997 -0.3320 -0.1008
19858TIP3    H181065   2.814   2.037  14.416 -0.7204 -1.5506 -1.7091
19858TIP3    H281066   2.846   1.998  14.559  1.9634  1.0451 -1.5064
19859TIP3   OH281067   1.308   5.205  16.849  0.3187 -0.0139  0.1096
19859TIP3    H181068   1.258   5.277  16.888 -0.0565 -0.2687  0.1008
19859TIP3    H281069   1.248   5.163  16.789  0.2880 -0.8095  0.6823
19860TIP3   OH281070   4.688   3.343  11.838 -0.0243  0.2524  0.1979
19860TIP3    H181071   4.615   3.401  11.815  0.5160  0.7685 -0.2417
19860TIP3    H281072   4.764   3.383  11.796  0.6527  0.1544  1.3032
19861TIP3   OH281073   3.953   4.370  14.174  0.0010 -0.3172  0.1285
19861TIP3    H181074   3.867   4.408  14.188  0.8508  1.6952  0.1513
19861TIP3    H281075   3.989   4.360  14.262  0.1442 -0.3144  0.0700
19862TIP3   OH281076   2.511   3.579   2.688  0.2599  0.3703 -0.3977
19862TIP3    H181077   2.569   3.503   2.684  0.0855  0.1930  0.2270
19862TIP3    H281078   2.547   3.632   2.759  0.0993  0.6275 -0.5085
19863TIP3   OH281079   2.036   3.571   0.536  0.0636  0.1137 -0.9152
19863TIP3    H181080   1.945   3.592   0.518  0.2253  2.6234  0.8010
19863TIP3    H281081   2.032   3.502   0.603 -0.6485  1.5832  0.6165
19864TIP3   OH281082   2.690   2.216  16.985  0.5153  0.1761  0.0425
19864TIP3    H181083   2.692   2.285  16.919  0.1749 -1.7166 -2.0508
19864TIP3    H281084   2.597   2.194  16.994  0.6281 -0.0773  0.6561
19865TIP3   OH281085   6.488   1.878  11.928 -0.1586  0.1118 -0.3653
19865TIP3    H181086   6.575   1.918  11.934  0.0596 -0.4867  0.5933
19865TIP3    H281087   6.473   1.838  12.013 -1.3348  0.1011 -0.5565
19866TIP3   OH281088   2.997   4.917   5.943  0.2292  0.2715 -0.0660
19866TIP3    H181089   2.939   4.905   6.018 -0.4666  1.9932 -0.2758
19866TIP3    H281090   2.965   4.854   5.878 -0.9900  0.6999  0.0802
19867TIP3   OH281091   6.348   6.051   5.578 -0.2237 -0.0088  0.1787
19867TIP3    H181092   6.291   6.010   5.643  0.7100 -1.8003 -0.0576
19867TIP3    H281093   6.436   6.024   5.603  0.4329  1.7576 -0.1273
19868TIP3   OH281094   3.896   6.339   0.361  0.0869 -0.2403 -0.0449
19868TIP3    H181095   3.882   6.432   0.343  0.7754  0.2640  1.8579
19868TIP3    H281096   3.846   6.294   0.293 -0.6863  1.5044 -0.6849
19869TIP3   OH281097   3.171   2.635   3.829  0.1201 -0.2495  0.0476
19869TIP3    H181098   3.129   2.593   3.904 -1.3114  1.9910  0.6066
19869TIP3    H281099   3.249   2.677   3.865  1.2347 -1.8320 -0.4031
19870TIP3   OH281100   4.847   3.906  11.363  0.0616  0.0398  0.1549
19870TIP3    H181101   4.780   3.839  11.349 -0.7177  0.4933  1.5666
19870TIP3    H281102   4.926   3.869  11.324 -0.8301 -0.8060 -0.9215
19871TIP3   OH281103   0.487   2.716  14.962 -0.0626 -0.0648  0.1717
19871TIP3    H181104   0.542   2.784  14.922  0.6578 -1.5934 -1.5810
19871TIP3    H281105   0.415   2.706  14.900 -0.9022  0.0288  1.1117
19872TIP3   OH281106   2.203   6.296  11.772  0.5229  0.2878 -0.4352
19872TIP3    H181107   2.169   6.309  11.860  0.3475 -0.5225 -0.3715
19872TIP3    H281108   2.298   6.293  11.783  0.5804  1.6163 -0.4812
19873TIP3   OH281109   1.968   0.421  10.422  0.1577 -0.2384  0.0701
19873TIP3    H181110   1.902   0.408  10.354 -0.3309  0.6496  0.3617
19873TIP3    H281111   1.998   0.333  10.443  0.8528 -0.4935 -1.7956
19874TIP3   OH281112   0.044   0.298  10.801  0.2331  0.6965  0.0499
19874TIP3    H181113  -0.027   0.345  10.757 -1.0867 -0.3302  0.9904
19874TIP3    H281114  -0.000   0.244  10.867  1.5543 -2.4579 -1.4542
19875TIP3   OH281115   3.393   0.608   4.777 -0.2242  0.2413 -0.4383
19875TIP3    H181116   3.429   0.551   4.709  0.5055 -0.9844  0.9390
19875TIP3    H281117   3.438   0.692   4.764  0.3142 -0.1427 -1.1105
19876TIP3   OH281118   6.766   6.666  10.595  0.1293  0.2692  0.0486
19876TIP3    H181119   6.846   6.718  10.597 -0.6768  1.5681  1.8865
19876TIP3    H281120   6.700   6.722  10.636 -1.9831 -0.3987 -2.2075
19877TIP3   OH281121   3.541   0.917  13.949  0.2524 -0.0902 -0.0596
19877TIP3    H181122   3.485   0.994  13.938  0.9460  0.4917  0.3385
19877TIP3    H281123   3.575   0.925  14.038  1.9310  0.2604 -0.6950
19878TIP3   OH281124   5.473   1.581   0.597 -0.1647  0.8038 -0.1615
19878TIP3    H181125   5.547   1.641   0.581 -0.1392  0.6393 -0.6958
19878TIP3    H281126   5.402   1.617   0.543 -0.3862  0.7921  0.1223
19879TIP3   OH281127   0.488   4.448  16.338 -0.0618 -0.4966  0.6839
19879TIP3    H181128   0.548   4.516  16.371 -0.3188 -0.9058  2.0747
19879TIP3    H281129   0.409   4.495  16.314  1.2690  0.2725 -2.6388
19880TIP3   OH281130   6.732   0.424   0.904  0.1522  0.0550 -0.4014
19880TIP3    H181131   6.692   0.345   0.869  1.5684 -0.2889 -1.3425
19880TIP3    H281132   6.671   0.494   0.882 -0.4321 -0.5887 -0.8512
19881TIP3   OH281133   3.636   3.856  14.831  0.2675 -0.1660  0.4852
19881TIP3    H181134   3.673   3.944  14.832 -0.0112 -0.0454  0.4029
19881TIP3    H281135   3.605   3.842  14.921  0.2750 -0.1636  0.4880
19882TIP3   OH281136   6.814   0.724  13.033  0.5559 -0.1771  0.1073
19882TIP3    H181137   6.748   0.780  13.074 -0.6212 -1.3563 -0.0966
19882TIP3    H281138   6.773   0.638  13.029  1.5526 -0.6304 -1.3616
19883TIP3   OH281139   3.238   3.130  13.773 -0.1510 -0.6610 -0.2392
19883TIP3    H181140   3.211   3.148  13.863  0.2962  0.9678 -0.3842
19883TIP3    H281141   3.173   3.175  13.719 -0.7119 -2.0636 -0.7584
19884TIP3   OH281142   6.655   4.914   2.738  0.4889  0.2275 -0.3209
19884TIP3    H181143   6.715   4.986   2.757 -0.3002  0.9333 -0.4649
19884TIP3    H281144   6.691   4.873   2.659  0.0877  1.4257 -1.1430
19885TIP3   OH281145   5.658   1.365  13.638  0.3120  0.1304 -0.3039
19885TIP3    H181146   5.674   1.292  13.579 -1.9529 -0.6276 -0.1017
19885TIP3    H281147   5.604   1.327  13.708  0.4052  1.6579  0.6432
19886TIP3   OH281148   0.548   1.982  13.484 -0.5103  0.0227 -0.6893
19886TIP3    H181149   0.534   2.003  13.391 -0.3947 -0.3193 -0.7829
19886TIP3    H281150   0.593   2.059  13.519  0.0670 -0.1391 -1.0742
19887TIP3   OH281151   4.575   4.596  11.268  0.0409 -0.4336 -0.1803
19887TIP3    H181152   4.646   4.626  11.326  0.0444 -1.0233  0.1322
19887TIP3    H281153   4.530   4.676  11.242  0.2298 -0.1331  0.3926
19888TIP3   OH281154   6.010   4.424  14.180 -0.1322  0.3959  0.0395
19888TIP3    H181155   6.062   4.478  14.240 -1.1775 -0.0360  1.3977
19888TIP3    H281156   6.074   4.375  14.130  0.8274  2.1660 -0.5673
19889TIP3   OH281157   4.670   3.862   0.628  0.1387 -0.3750 -0.2179
19889TIP3    H181158   4.650   3.877   0.720 -1.3659  0.4220 -0.6320
19889TIP3    H281159   4.600   3.907   0.581  2.0103  1.0660 -1.8060
19890TIP3   OH281160   1.994   3.064  14.860 -0.2448 -0.2376 -0.3326
19890TIP3    H181161   2.026   2.978  14.834  0.1362 -0.1729 -0.1025
19890TIP3    H281162   2.074   3.112  14.885 -0.5791 -0.2962  0.9174
19891TIP3   OH281163   1.356   2.518   4.792 -0.3358  0.5113  0.0499
19891TIP3    H181164   1.416   2.462   4.841  0.6335  0.4495 -1.1651
19891TIP3    H281165   1.411   2.588   4.757 -0.1852 -1.3011 -3.8499
19892TIP3   OH281166   6.687   1.917  14.637  0.0655  0.8254 -0.0068
19892TIP3    H181167   6.721   1.828  14.653 -0.9088  0.1249 -1.5742
19892TIP3    H281168   6.764   1.968  14.613  0.2416 -0.5817 -2.9156
19893TIP3   OH281169   1.260   0.702  11.285  0.2143 -0.0933  0.4035
19893TIP3    H181170   1.266   0.644  11.361 -0.2824 -0.6215  0.0493
19893TIP3    H281171   1.195   0.660  11.228  2.4456 -1.0988 -1.5415
19894TIP3   OH281172   4.700   5.251   4.891 -0.0920  0.1303 -0.4170
19894TIP3    H181173   4.621   5.200   4.910 -0.8381  1.3969 -0.0549
19894TIP3    H281174   4.767   5.184   4.872 -0.9328 -0.9941  0.4177
19895TIP3   OH281175   0.535   5.377  16.218  0.4533 -0.3560 -0.5763
19895TIP3    H181176   0.599   5.445  16.198 -0.9805  0.8787 -1.1670
19895TIP3    H281177   0.571   5.298  16.179  1.4688  0.3585 -1.1427
19896TIP3   OH281178   5.266   1.487   2.320 -0.1462 -0.4512 -0.2857
19896TIP3    H181179   5.194   1.440   2.362 -0.0885 -0.4633 -0.1999
19896TIP3    H281180   5.229   1.573   2.298  0.0096 -0.2120  0.3757
19897TIP3   OH281181   2.867   3.872  12.192 -0.6591  0.3626  0.0504
19897TIP3    H181182   2.901   3.919  12.116 -1.3216 -0.9656 -1.1119
19897TIP3    H281183   2.808   3.805  12.155 -0.3586 -0.8635  1.6699
19898TIP3   OH281184   5.708   2.294   2.636  0.4732 -0.1794  0.4567
19898TIP3    H181185   5.793   2.251   2.620 -0.5325 -1.4833 -1.9529
19898TIP3    H281186   5.647   2.221   2.647 -0.2959  0.7528  2.7235
19899TIP3   OH281187   5.699   5.939   5.532  0.5006  0.3961 -0.3373
19899TIP3    H181188   5.682   5.949   5.438  0.6947  2.2634 -0.2077
19899TIP3    H281189   5.648   5.862   5.558 -0.8414  0.8099 -1.6523
19900TIP3   OH281190   2.594   4.996   1.887  0.2536  0.2282  0.3795
19900TIP3    H181191   2.529   4.942   1.931  1.4853 -0.9700  0.8088
19900TIP3    H281192   2.552   5.023   1.806 -1.1868  0.4645  1.1679
19901TIP3   OH281193   4.449   4.057  14.448 -0.1120 -0.7498 -0.8469
19901TIP3    H181194   4.364   4.061  14.404  0.1925  1.0604 -1.3467
19901TIP3    H281195   4.430   4.079  14.539 -0.4062 -2.2199 -0.5155
19902TIP3   OH281196   5.472   5.915   2.797  0.4201 -0.0720 -0.1299
19902TIP3    H181197   5.541   5.979   2.816  0.6896 -1.0010  2.2513
19902TIP3    H281198   5.422   5.955   2.725  3.2240  0.7455 -1.7879
19903TIP3   OH281199   0.306   0.420   0.493 -0.3341 -0.1501 -0.2989
19903TIP3    H181200   0.370   0.366   0.540  1.4888  1.2325 -1.0541
19903TIP3    H281201   0.269   0.477   0.560 -1.7122 -1.7482  0.3617
19904TIP3   OH281202   2.386   2.551  12.729 -0.1631  0.1428 -0.0321
19904TIP3    H181203   2.380   2.483  12.662  1.1655  1.0741 -1.1704
19904TIP3    H281204   2.298   2.587  12.734 -0.5627 -0.7379 -0.4021
19905TIP3   OH281205   1.109   5.832  16.888 -0.3704  0.3398  0.3230
19905TIP3    H181206   1.024   5.874  16.872  0.0267  1.2671  0.5837
19905TIP3    H281207   1.096   5.782  16.968 -0.7904  0.1185  0.1262
19906TIP3   OH281208   1.698   2.073  10.565  0.1004 -0.1890  0.4621
19906TIP3    H181209   1.700   1.977  10.565 -2.2876 -0.3211  1.7472
19906TIP3    H281210   1.645   2.096  10.489  1.4278  0.1889 -0.3728
19907TIP3   OH281211   6.401   5.402   4.558  0.0863  0.0677 -0.8298
19907TIP3    H181212   6.408   5.334   4.625 -0.2203 -0.4091 -1.2770
19907TIP3    H281213   6.355   5.474   4.602  0.3565 -0.0326 -0.3753
19908TIP3   OH281214   3.380   2.593   5.076  0.4757 -0.4505 -0.4051
19908TIP3    H181215   3.378   2.687   5.062 -1.0503 -0.2385  1.0245
19908TIP3    H281216   3.293   2.562   5.051  1.1865 -1.6106 -1.5574
19909TIP3   OH281217   6.255   4.681   4.170 -0.3387  0.1361 -0.7268
19909TIP3    H181218   6.282   4.609   4.113 -2.5744 -0.1249 -1.5265
19909TIP3    H281219   6.338   4.723   4.196  0.7984 -0.2309 -3.4664
19910TIP3   OH281220   5.161   0.268   4.893  0.3557 -0.6996  0.0533
19910TIP3    H181221   5.137   0.287   4.803 -2.1451  0.6309  0.9229
19910TIP3    H281222   5.208   0.346   4.923 -0.3483 -0.4047  0.4037
19911TIP3   OH281223   5.138   3.711  11.568  0.2965 -0.4215 -0.8720
19911TIP3    H181224   5.190   3.782  11.529  2.4536 -0.8264  1.0197
19911TIP3    H281225   5.198   3.636  11.569  0.1871 -0.6074  2.4329
19912TIP3   OH281226   6.392   5.769   6.660 -0.0820  0.0856 -0.0365
19912TIP3    H181227   6.449   5.819   6.601  1.4618 -2.2765 -0.6940
19912TIP3    H281228   6.392   5.680   6.623 -0.5007 -1.0705  2.5559
19913TIP3   OH281229   2.962   0.285  15.185  0.2213 -0.1670  0.2042
19913TIP3    H181230   2.967   0.194  15.155  2.5182  0.0415 -0.2438
19913TIP3    H281231   3.022   0.332  15.128  0.2710  1.3468  1.4477
19914TIP3   OH281232   5.608   0.521  15.783  0.1568  0.1491 -0.2693
19914TIP3    H181233   5.537   0.581  15.762  0.1471  0.5772  0.9044
19914TIP3    H281234   5.632   0.543  15.873  1.1664 -0.5990 -0.3373
19915TIP3   OH281235   3.169   2.701   5.356 -0.2630  0.6937  0.3957
19915TIP3    H181236   3.221   2.781   5.345  1.3188 -0.0383  2.0279
19915TIP3    H281237   3.222   2.632   5.317 -0.5913  0.1092  0.9552
19916TIP3   OH281238   6.428   1.308  14.793  0.2507  0.5393 -0.4866
19916TIP3    H181239   6.438   1.215  14.809  1.8933  0.8616  0.5260
19916TIP3    H281240   6.335   1.325  14.810  0.0157 -0.8224 -0.3019
19917TIP3   OH281241   0.064   0.186   2.453 -0.0708 -0.0528  0.4458
19917TIP3    H181242   0.067   0.279   2.431 -1.6435  0.0747  0.6731
19917TIP3    H281243  -0.019   0.174   2.498 -1.4904 -2.1806 -2.4188
19918TIP3   OH281244   0.219   0.868   1.606  0.0886  0.3309  0.0203
19918TIP3    H181245   0.249   0.778   1.615 -1.7450 -0.4506 -0.9939
19918TIP3    H281246   0.286   0.921   1.648  1.2232 -1.5042  0.6108
19919TIP3   OH281247   1.419   5.567   1.087 -0.3225  0.5163 -0.3775
19919TIP3    H181248   1.439   5.647   1.136 -0.0145  1.0274 -1.3208
19919TIP3    H281249   1.385   5.598   1.003 -0.6534 -0.3511 -0.5723
19920TIP3   OH281250   1.702   3.022  14.491  0.1740 -0.1820 -0.7320
19920TIP3    H181251   1.637   3.080  14.450 -0.4657 -1.2801 -1.3216
19920TIP3    H281252   1.773   3.018  14.427  0.6836  0.7502 -0.2369
19921TIP3   OH281253   5.044   5.493  15.745  0.0904 -0.1521 -0.1384
19921TIP3    H181254   5.078   5.546  15.673 -1.2716  1.6440  0.4718
19921TIP3    H281255   5.120   5.444  15.776  1.1728  0.6394 -1.4273
19922TIP3   OH281256   1.031   2.712  12.670 -0.1810 -0.5204 -0.4075
19922TIP3    H181257   0.949   2.682  12.711  0.2139  0.0515  0.8749
19922TIP3    H281258   1.006   2.793  12.626 -0.3667 -0.4924 -0.2549
19923TIP3   OH281259   5.676   1.113  11.989 -0.2238 -0.3186 -0.7032
19923TIP3    H181260   5.618   1.074  12.054 -0.9619 -0.4595 -1.4246
19923TIP3    H281261   5.729   1.041  11.957  0.0847 -0.2639 -0.3232
19924TIP3   OH281262   4.081   2.724   4.320  0.3375 -0.1588  0.0134
19924TIP3    H181263   4.062   2.633   4.340 -1.6258  0.2320  0.1004
19924TIP3    H281264   4.061   2.772   4.401  2.6053  0.2559  0.4063
19925TIP3   OH281265   5.957   1.274  13.321  0.3851 -1.0629 -0.1968
19925TIP3    H181266   5.990   1.305  13.405 -2.2025 -0.7959  0.8075
19925TIP3    H281267   5.928   1.353  13.276  0.1394 -1.3722 -0.5895
19926TIP3   OH281268   3.289   4.516   3.335 -0.1896  0.0563 -0.6089
19926TIP3    H181269   3.310   4.598   3.291  0.5755  0.3328  0.2286
19926TIP3    H281270   3.229   4.471   3.276  0.0756  0.8270 -1.4844
19927TIP3   OH281271   5.560   0.309   0.380  0.0168  0.1722  0.6081
19927TIP3    H181272   5.570   0.391   0.430 -0.1293  0.8175 -0.4011
19927TIP3    H281273   5.583   0.240   0.443  0.2623  0.9897  1.4408
19928TIP3   OH281274   2.873   3.868  11.481  0.1066 -0.2102  0.3551
19928TIP3    H181275   2.905   3.850  11.393  2.5502 -1.0496  1.3475
19928TIP3    H281276   2.859   3.782  11.520 -2.3240  0.1275  0.4134
19929TIP3   OH281277   2.486   0.501  13.445  0.0428 -0.4618 -0.1866
19929TIP3    H181278   2.409   0.559  13.443  0.6220  0.4087  1.1856
19929TIP3    H281279   2.542   0.533  13.375  0.9486  1.5707  1.3624
19930TIP3   OH281280   0.998   0.277  16.199  0.4567  0.0885 -0.6482
19930TIP3    H181281   1.073   0.247  16.250 -0.6162 -0.6825  0.5486
19930TIP3    H281282   0.963   0.198  16.159 -0.1633  0.3164 -0.5733
19931TIP3   OH281283   2.118   2.056   5.674 -0.2395  0.4345  0.4377
19931TIP3    H181284   2.076   2.069   5.589 -1.0361  1.0222  0.9119
19931TIP3    H281285   2.211   2.074   5.657  0.2479 -2.8259 -1.0594
19932TIP3   OH281286   1.737   3.992   2.844 -0.0288  0.0879  0.1205
19932TIP3    H181287   1.713   3.956   2.759  1.6680 -3.4763  0.9544
19932TIP3    H281288   1.796   4.065   2.824 -0.1156 -0.3128 -1.7396
19933TIP3   OH281289   4.639   3.599  14.276 -0.4087  0.0714  0.5034
19933TIP3    H181290   4.688   3.584  14.357 -1.9537  1.0256  1.6945
19933TIP3    H281291   4.682   3.545  14.211  1.1645 -0.3993  1.8683
19934TIP3   OH281292   1.092   5.368   1.088 -0.2285  0.5261  0.2404
19934TIP3    H181293   1.063   5.448   1.132 -1.7716  0.1400 -0.0279
19934TIP3    H281294   1.068   5.381   0.996 -2.1418 -0.9380  0.4824
19935TIP3   OH281295   5.810   6.675   6.766  0.1804 -0.2320 -0.6654
19935TIP3    H181296   5.899   6.647   6.784  0.5597  1.8452  1.1412
19935TIP3    H281297   5.779   6.615   6.698  2.8623 -1.1141 -1.2307
19936TIP3   OH281298   4.141   4.019   4.503 -0.4196 -0.3172 -0.3802
19936TIP3    H181299   4.095   3.969   4.570  0.8125  0.2388  0.9477
19936TIP3    H281300   4.106   4.108   4.512 -1.6828 -0.6324 -1.8611
19937TIP3   OH281301   5.030   5.069   0.819  0.0254  0.3328  0.1758
19937TIP3    H181302   5.000   5.013   0.890  0.8524 -1.0144 -0.4871
19937TIP3    H281303   4.950   5.101   0.777 -0.4854  1.7252  2.0945
19938TIP3   OH281304   5.826   4.963   3.491 -0.5739  0.0840  0.1601
19938TIP3    H181305   5.792   4.937   3.577  1.9673  0.3422  1.3270
19938TIP3    H281306   5.867   5.048   3.507  0.9930 -0.4150 -1.0258
19939TIP3   OH281307   0.991   2.439   0.087 -0.0778  0.6098  0.0529
19939TIP3    H181308   0.982   2.346   0.066  0.4081  0.7787 -0.9446
19939TIP3    H281309   0.940   2.485   0.020 -0.4585  1.0658  0.6387
19940TIP3   OH281310   3.552   0.528  15.758 -0.3429 -0.1087 -0.4286
19940TIP3    H181311   3.585   0.618  15.760 -1.2749  0.2313  0.9221
19940TIP3    H281312   3.472   0.533  15.705 -0.4691 -0.1012 -0.2401
19941TIP3   OH281313   4.980   6.264   0.911 -0.2010 -0.1254 -0.0452
19941TIP3    H181314   4.934   6.340   0.874  0.7091  0.6635  0.4105
19941TIP3    H281315   5.028   6.226   0.837  0.2079  0.3944 -0.0489
19942TIP3   OH281316   4.708   3.745   0.029 -0.3854 -0.4644  0.0831
19942TIP3    H181317   4.711   3.711  -0.061  0.3371 -1.0688  0.3330
19942TIP3    H281318   4.614   3.751   0.049 -0.5739  0.2303 -0.9142
19943TIP3   OH281319   4.099   3.215   4.385  0.2616  0.8452  0.4187
19943TIP3    H181320   4.160   3.256   4.447  2.2152 -0.3444 -0.6007
19943TIP3    H281321   4.054   3.289   4.344  0.5393  1.7424  1.6793
19944TIP3   OH281322   6.828   3.097  14.051 -0.1717  0.3158 -0.1915
19944TIP3    H181323   6.851   3.076  14.141 -0.3710  0.3145 -0.1404
19944TIP3    H281324   6.850   3.017  14.002 -0.2476  0.2453 -0.1123
19945TIP3   OH281325   4.735   0.757   5.374  0.8700 -0.6066  0.1206
19945TIP3    H181326   4.769   0.774   5.286 -1.2911 -0.1339 -0.6801
19945TIP3    H281327   4.760   0.834   5.425  1.6026 -0.6067 -0.2233
19946TIP3   OH281328   0.909   0.393  10.875 -0.3564  0.2009 -0.4289
19946TIP3    H181329   0.955   0.332  10.816 -0.5092  0.6387 -1.0122
19946TIP3    H281330   0.977   0.452  10.906  0.0125 -0.9260  1.0340
19947TIP3   OH281331   0.475   6.826  11.558  0.6130  0.3879  0.0683
19947TIP3    H181332   0.419   6.850  11.632 -0.2344  0.6159 -0.6315
19947TIP3    H281333   0.509   6.739  11.582 -1.1636 -0.4147 -0.0829
19948TIP3   OH281334   2.380   1.967   2.759 -0.4726 -0.5880 -0.6748
19948TIP3    H181335   2.378   1.923   2.674 -1.5085 -0.2147 -0.8548
19948TIP3    H281336   2.426   1.905   2.817  2.1753  0.0202 -1.9495
19949TIP3   OH281337   0.777   0.373  11.381  0.1093 -0.0744 -0.4271
19949TIP3    H181338   0.870   0.355  11.389 -0.3315 -1.7208  1.7432
19949TIP3    H281339   0.738   0.336  11.460 -2.3026  1.2723 -0.8928
19950TIP3   OH281340   0.219   6.497   1.696 -0.4063  0.4063  0.0028
19950TIP3    H181341   0.188   6.586   1.680  0.5147  1.0246  1.5042
19950TIP3    H281342   0.250   6.467   1.610  1.2846  2.3488 -0.1577
19951TIP3   OH281343   6.664   6.341  16.729 -0.4201  0.3503  0.2085
19951TIP3    H181344   6.675   6.429  16.765 -2.5266  0.5417  0.5160
19951TIP3    H281345   6.678   6.352  16.635  0.3426  0.7950  0.3654
19952TIP3   OH281346   6.684   2.507  12.927 -0.0033 -0.0237  0.6274
19952TIP3    H181347   6.628   2.500  13.004  0.7977  0.3369  1.2468
19952TIP3    H281348   6.685   2.601  12.906  0.4350 -0.0177  0.6699
19953TIP3   OH281349   2.669   1.963   6.503  0.5062 -0.1203 -0.0576
19953TIP3    H181350   2.620   2.043   6.487  0.4022  0.2575  2.0030
19953TIP3    H281351   2.607   1.892   6.484  0.3805  0.2591 -1.1698
19954TIP3   OH281352   2.059   4.491   3.489 -0.2012 -0.6044  0.4035
19954TIP3    H181353   2.008   4.422   3.447 -0.5763  0.3864 -0.8079
19954TIP3    H281354   2.014   4.572   3.467  0.2119  0.0527  1.8343
19955TIP3   OH281355   1.506   4.837   5.313 -0.1288 -0.3172 -0.3776
19955TIP3    H181356   1.502   4.933   5.311  2.1176 -0.1409  0.5610
19955TIP3    H281357   1.597   4.816   5.291 -0.5083 -2.2216 -0.2962
19956TIP3   OH281358   4.020   5.778   0.314  0.2397  0.7570  0.3901
19956TIP3    H181359   4.020   5.759   0.407 -2.5746 -0.4182  0.2472
19956TIP3    H281360   4.022   5.873   0.309  1.6787  0.8266  1.5606
19957TIP3   OH281361   3.136   6.427   4.088 -0.0118 -0.5423  0.2041
19957TIP3    H181362   3.105   6.451   4.001 -1.5360  1.0021  1.1250
19957TIP3    H281363   3.057   6.427   4.143  1.1747  0.4103  1.9914
19958TIP3   OH281364   4.847   3.153   3.271 -0.1210  0.4040 -0.8069
19958TIP3    H181365   4.755   3.176   3.283 -0.1250  0.4093 -0.8473
19958TIP3    H281366   4.851   3.119   3.181  0.0094  0.8603 -0.9740
19959TIP3   OH281367   3.748   5.492   2.549  0.7159  0.5652  0.0147
19959TIP3    H181368   3.666   5.443   2.559 -0.0135  1.9935  1.3876
19959TIP3    H281369   3.730   5.578   2.587  2.8250  0.9705  0.2360
19960TIP3   OH281370   0.976   5.256   2.356 -0.2779  0.0021 -0.2404
19960TIP3    H181371   1.058   5.211   2.338  0.5455  1.3218  0.0864
19960TIP3    H281372   0.961   5.311   2.279 -0.1472  0.7523  0.2514
19961TIP3   OH281373   2.821   4.459  11.465 -0.0076  0.0103  0.2498
19961TIP3    H181374   2.798   4.411  11.385 -1.9031  1.0221  0.1313
19961TIP3    H281375   2.766   4.419  11.533 -1.4687  1.8139  0.1898
19962TIP3   OH281376   0.167   4.971   3.094 -0.0962 -0.4199 -0.3484
19962TIP3    H181377   0.217   4.976   3.013  1.9520  2.5682  0.9010
19962TIP3    H281378   0.163   5.061   3.126 -0.7722 -1.4361  2.8821
19963TIP3   OH281379   1.945   5.291  12.054 -0.1702  0.1865  0.3561
19963TIP3    H181380   2.014   5.281  11.988 -0.2333 -0.1121  0.3357
19963TIP3    H281381   1.894   5.366  12.024 -0.0701  0.1850  0.1805
19964TIP3   OH281382   5.203   1.773  15.773  0.4290  0.0470 -0.3446
19964TIP3    H181383   5.277   1.716  15.792  1.2285 -0.1877 -3.5773
19964TIP3    H281384   5.242   1.858  15.753 -0.3983  0.6013  0.3459
19965TIP3   OH281385   3.711   0.431  11.159  0.0776 -0.2174  0.6258
19965TIP3    H181386   3.777   0.492  11.125  0.9429 -0.7359  1.3128
19965TIP3    H281387   3.761   0.370  11.213 -0.6728 -1.9300 -0.5271
19966TIP3   OH281388   1.331   5.290  16.108  0.5765  0.3235  0.4215
19966TIP3    H181389   1.287   5.355  16.054  0.3336  0.4816  0.8083
19966TIP3    H281390   1.262   5.252  16.163  0.9046  0.5191  0.9763
19967TIP3   OH281391   1.083   3.759  14.352 -0.1391  0.1819 -0.4589
19967TIP3    H181392   1.056   3.834  14.300 -0.1008  0.9408  0.5858
19967TIP3    H281393   1.179   3.766  14.357 -0.0462 -0.4919 -1.1738
19968TIP3   OH281394   4.662   2.008  10.982 -0.4259 -0.2990  0.4139
19968TIP3    H181395   4.665   2.016  10.887  0.7869 -1.2316  0.3465
19968TIP3    H281396   4.579   1.962  11.000 -1.7788  1.8437  0.0176
19969TIP3   OH281397   3.446   2.560   0.898  0.3410 -0.1428  0.2193
19969TIP3    H181398   3.407   2.511   0.970 -0.0368 -2.2581 -1.3240
19969TIP3    H281399   3.372   2.601   0.854  0.3649 -0.4231 -0.0798
19970TIP3   OH281400   4.165   4.359   2.330  0.0261 -0.4918  1.1418
19970TIP3    H181401   4.204   4.273   2.320  2.3370  0.2906  2.7413
19970TIP3    H281402   4.076   4.342   2.362  0.2156 -2.2491  0.8068
19971TIP3   OH281403   2.429   5.463  16.080 -0.5164 -0.5144  0.1760
19971TIP3    H181404   2.488   5.460  16.156  0.0350  2.1906 -0.0450
19971TIP3    H281405   2.343   5.441  16.116  0.0915 -1.3963  1.1377
19972TIP3   OH281406   6.089   6.455   5.460  0.3983  0.7200  0.1517
19972TIP3    H181407   6.130   6.404   5.529  1.8700 -0.5933 -1.6013
19972TIP3    H281408   6.030   6.394   5.416  0.8454  0.9782 -0.8586
19973TIP3   OH281409   0.766   4.028   2.618  0.3102 -0.4662  0.2373
19973TIP3    H181410   0.860   4.046   2.618  0.7507 -2.4888  0.5967
19973TIP3    H281411   0.731   4.089   2.683  2.0390 -2.2648  3.1428
19974TIP3   OH281412   4.187   2.319   0.415 -0.1308 -0.2758  0.2898
19974TIP3    H181413   4.262   2.259   0.422  0.4900  0.4107 -0.3031
19974TIP3    H281414   4.221   2.394   0.366 -1.6119 -0.5872 -1.3121
19975TIP3   OH281415   1.073   6.789   5.184  0.1881  0.4952 -0.0816
19975TIP3    H181416   1.093   6.704   5.145  1.1702  0.2125  0.9901
19975TIP3    H281417   0.981   6.782   5.210  0.1113 -0.0411 -0.4719
19976TIP3   OH281418   1.774   0.300   2.109 -0.0340  0.1547 -0.6522
19976TIP3    H181419   1.697   0.356   2.117 -0.3954 -0.5468  1.9451
19976TIP3    H281420   1.740   0.211   2.119  1.0861 -0.1429  1.0724
19977TIP3   OH281421   5.192   1.958   4.589 -0.1005 -0.1611 -0.0640
19977TIP3    H181422   5.268   2.010   4.615  0.1690  0.1088 -1.3056
19977TIP3    H281423   5.230   1.879   4.549 -0.5035 -1.2782  1.6830
19978TIP3   OH281424   0.283   2.633  14.760  0.0188 -0.0104 -0.6534
19978TIP3    H181425   0.217   2.622  14.829  0.4765 -3.4234 -0.5725
19978TIP3    H281426   0.294   2.545  14.724  1.4946  1.2477 -3.5541
19979TIP3   OH281427   1.052   0.636   4.955  0.4270  0.0400  0.1306
19979TIP3    H181428   1.007   0.707   4.909  1.6882  1.9939  1.7760
19979TIP3    H281429   1.137   0.629   4.911  0.6420  0.1578  0.5232
19980TIP3   OH281430   5.239   0.197  11.606 -0.0713 -0.2857  0.2012
19980TIP3    H181431   5.200   0.134  11.546  0.1014 -0.7203  0.5432
19980TIP3    H281432   5.329   0.166  11.618  0.5134  0.9030 -0.8716
19981TIP3   OH281433   2.872   0.026  15.406 -0.7027 -0.3701  0.1676
19981TIP3    H181434   2.965   0.037  15.423 -0.4349 -1.2331 -0.6449
19981TIP3    H281435   2.834   0.006  15.492 -0.4623  1.7690  0.8276
19982TIP3   OH281436   3.524   4.754   2.642 -0.1854 -0.2946 -0.4615
19982TIP3    H181437   3.483   4.797   2.567  0.8484 -1.0941 -1.5340
19982TIP3    H281438   3.607   4.721   2.608  0.4974 -0.3542  1.1489
19983TIP3   OH281439   5.046   2.163   3.134  0.1656  0.3156  0.3682
19983TIP3    H181440   5.118   2.125   3.085  0.6926  1.3468  0.3006
19983TIP3    H281441   4.967   2.130   3.091  0.5982 -0.5541  0.2287
19984TIP3   OH281442   5.813   6.076   0.566  0.7500 -0.0752 -0.0016
19984TIP3    H181443   5.770   6.105   0.647  1.3418  0.9004 -0.0183
19984TIP3    H281444   5.784   6.139   0.500  1.2822 -0.0974 -0.2628
19985TIP3   OH281445   6.179   4.867   2.645 -0.2848  0.1174  0.1159
19985TIP3    H181446   6.124   4.882   2.722 -0.2428  0.2162  0.1267
19985TIP3    H281447   6.158   4.778   2.617 -2.1885  0.9190 -1.2553
19986TIP3   OH281448   6.256   4.466  16.053 -0.0911  0.4015 -0.2699
19986TIP3    H181449   6.282   4.540  15.998  1.2205 -0.8846 -1.4725
19986TIP3    H281450   6.326   4.402  16.041 -0.6216 -0.5900  1.6431
19987TIP3   OH281451   2.440   5.574   4.889 -0.2929 -0.8160  0.0414
19987TIP3    H181452   2.467   5.665   4.881  1.4496 -1.4346 -2.1389
19987TIP3    H281453   2.454   5.554   4.982 -0.5584  1.0594  0.5313
19988TIP3   OH281454   5.794   4.165   1.593  0.2501  0.1833  0.4063
19988TIP3    H181455   5.765   4.241   1.543 -0.4452 -0.0225  0.4798
19988TIP3    H281456   5.760   4.181   1.682 -0.8718 -0.7208  0.1715
19989TIP3   OH281457   4.637   5.412  13.651 -0.2753  0.0118  0.4161
19989TIP3    H181458   4.641   5.321  13.622 -0.1229 -0.1754  1.0217
19989TIP3    H281459   4.622   5.407  13.745  2.2749  0.5716  0.9125
19990TIP3   OH281460   4.946   4.063  13.667 -0.1039  0.2940 -0.7884
19990TIP3    H181461   4.871   4.003  13.658 -1.4964  1.7343  0.5880
19990TIP3    H281462   4.963   4.067  13.761  2.5150 -0.8519 -1.1192
19991TIP3   OH281463   5.281   5.409   4.474 -0.3034  0.7685  0.4840
19991TIP3    H181464   5.193   5.441   4.488 -1.1113 -0.3570 -1.5727
19991TIP3    H281465   5.276   5.315   4.492  0.6415  0.8062  1.0085
19992TIP3   OH281466   1.050   0.759  12.418  0.0129  0.5966  0.7199
19992TIP3    H181467   1.084   0.747  12.507 -1.3916 -1.9785  0.9908
19992TIP3    H281468   0.956   0.747  12.426 -0.2144  0.9225 -1.0584
19993TIP3   OH281469   0.677   5.079   2.752 -0.3088  0.5879  0.0453
19993TIP3    H181470   0.715   4.993   2.766  0.2203  0.9176  0.7157
19993TIP3    H281471   0.717   5.110   2.671  1.6015  1.2905  1.1814
19994TIP3   OH281472   4.391   4.913  14.886 -0.6070 -0.6107  0.1741
19994TIP3    H181473   4.336   4.904  14.808  0.3676  1.4668 -0.8335
19994TIP3    H281474   4.480   4.896  14.854 -0.1201  0.8973  0.6561
19995TIP3   OH281475   3.963   2.265   1.335 -0.1733  0.1823 -0.2641
19995TIP3    H181476   3.921   2.254   1.249  1.3781  0.9949 -1.1679
19995TIP3    H281477   4.051   2.297   1.315  1.0967 -1.8741  1.5133
19996TIP3   OH281478   0.539   1.653   3.858  0.1673  0.4163 -0.5531
19996TIP3    H181479   0.613   1.685   3.807 -0.6951  0.2519 -1.9450
19996TIP3    H281480   0.496   1.589   3.802 -1.4765  1.0598 -0.1058
19997TIP3   OH281481   0.776   3.737  15.608  0.2501  0.4157 -0.2261
19997TIP3    H181482   0.712   3.767  15.673  1.4177  1.4800  0.4893
19997TIP3    H281483   0.735   3.756  15.524 -0.4920  0.8102  0.2114
19998TIP3   OH281484   4.521   0.303  16.619 -0.4512 -0.7093 -0.2264
19998TIP3    H181485   4.509   0.315  16.713  0.9364  0.9706 -0.2151
19998TIP3    H281486   4.440   0.337  16.580 -1.1933 -1.7707  0.3481
19999TIP3   OH281487   1.549   1.628  14.553  0.2359  0.5322  0.0497
19999TIP3    H181488   1.617   1.649  14.489  0.1550  0.6926  0.0147
19999TIP3    H281489   1.552   1.700  14.616  1.3042 -0.3603  1.0566
20000TIP3   OH281490   3.391   3.803  10.903  0.3050 -0.4716  0.0663
20000TIP3    H181491   3.411   3.883  10.951 -0.9755  0.4988 -0.9390
20000TIP3    H281492   3.418   3.823  10.813 -1.0883 -0.7059 -0.4299
20001TIP3   OH281493   0.367   6.365  17.044  0.0187 -0.6995  0.4557
20001TIP3    H181494   0.333   6.282  17.010  1.3161 -1.3783  0.7512
20001TIP3    H281495   0.332   6.431  16.984  0.6279 -1.6720 -1.0532
20002TIP3   OH281496   0.109   0.529   2.099 -0.3756 -0.0733  0.3105
20002TIP3    H181497   0.156   0.573   2.028  0.6795 -2.3909 -0.5141
20002TIP3    H281498   0.094   0.598   2.163 -1.8518  2.2787 -2.3255
20003TIP3   OH281499   4.200   2.768   2.939  0.4005  0.0928  0.7942
20003TIP3    H181500   4.219   2.842   2.996  0.0305  1.1674 -0.4538
20003TIP3    H281501   4.108   2.748   2.954  0.0706  0.9318 -0.0314
20004TIP3   OH281502   0.996   6.053   5.323 -0.7425  0.1397  0.3579
20004TIP3    H181503   1.080   6.008   5.326 -1.0827 -0.6436 -1.0504
20004TIP3    H281504   0.940   6.002   5.381 -0.8666 -0.7287 -0.5044
20005TIP3   OH281505   3.040   3.501  11.975 -0.2673  0.1776  0.0107
20005TIP3    H181506   3.127   3.543  11.979  1.3260 -2.8867  0.6804
20005TIP3    H281507   3.014   3.493  12.067 -1.2989  1.0723 -0.1916
20006TIP3   OH281508   3.593   6.026   1.802 -0.6675 -0.3308  0.2195
20006TIP3    H181509   3.624   6.096   1.861  0.2019 -0.4175 -0.1323
20006TIP3    H281510   3.628   5.946   1.840  2.3906 -0.1719 -1.9206
20007TIP3   OH281511   4.053   5.858   3.005  0.1890  0.5637  0.3450
20007TIP3    H181512   4.102   5.797   2.950 -0.1283  1.1400 -0.6123
20007TIP3    H281513   4.087   5.944   2.982 -0.1840  0.8446  0.8184
20008TIP3   OH281514   2.284   5.738   2.048 -0.0716  0.0249 -0.7576
20008TIP3    H181515   2.299   5.706   2.137  1.5129  1.9985 -0.2429
20008TIP3    H281516   2.348   5.690   1.994  0.0611 -0.0122 -0.5681
20009TIP3   OH281517   5.952   3.509  13.670  0.2756  0.8462  0.1126
20009TIP3    H181518   6.038   3.478  13.698  0.0651  1.2271  1.2609
20009TIP3    H281519   5.956   3.510  13.575  1.0928 -0.3849  0.1185
20010TIP3   OH281520   1.268   6.611  10.606 -0.0757 -0.2202 -0.0399
20010TIP3    H181521   1.182   6.632  10.569 -0.0055  1.6183  0.7436
20010TIP3    H281522   1.331   6.647  10.543  0.0494  2.1241  1.3272
20011TIP3   OH281523   1.251   6.779   6.025 -0.0877  0.1058 -0.0448
20011TIP3    H181524   1.234   6.706   6.084  2.3606 -1.3835 -1.0597
20011TIP3    H281525   1.201   6.757   5.946  1.1518 -0.8514 -0.5871
20012TIP3   OH281526   3.477   0.543  12.026 -0.2739  0.0991 -0.3562
20012TIP3    H181527   3.549   0.503  11.977 -0.8231 -1.1197 -0.1975
20012TIP3    H281528   3.512   0.554  12.115  0.3833  1.3884 -0.7538
20013TIP3   OH281529   1.864   4.105   1.374 -0.1558 -0.3506 -0.3071
20013TIP3    H181530   1.889   4.144   1.458 -1.7285  0.6937 -0.2791
20013TIP3    H281531   1.940   4.118   1.318  1.0392 -1.3280  1.0029
20014TIP3   OH281532   4.696   5.076  15.979  0.4220 -0.5727 -0.5033
20014TIP3    H181533   4.777   5.123  15.959  1.2539 -2.0118 -0.6533
20014TIP3    H281534   4.709   5.041  16.067 -0.7887  0.6548  0.2090
20015TIP3   OH281535   5.594   3.589   4.126 -0.3843 -0.0441 -0.1870
20015TIP3    H181536   5.530   3.518   4.124  0.5534 -0.9205  0.0736
20015TIP3    H281537   5.612   3.601   4.219  0.8156 -0.7315 -0.3140
20016TIP3   OH281538   5.431   3.172   2.066  0.4419 -0.2490  0.5817
20016TIP3    H181539   5.408   3.265   2.062 -0.2558 -0.4443 -1.3431
20016TIP3    H281540   5.430   3.150   2.159  0.4877  1.6281  1.0601
20017TIP3   OH281541   2.372   2.043  13.306  0.0125  0.0251  0.0682
20017TIP3    H181542   2.373   1.947  13.304 -0.7891 -0.0184  0.9071
20017TIP3    H281543   2.407   2.069  13.221 -0.3949 -1.0140 -0.4416
20018TIP3   OH281544   1.700   1.515   2.167  0.2820  0.1964 -0.6502
20018TIP3    H181545   1.698   1.596   2.217 -0.8538  1.0771 -2.0514
20018TIP3    H281546   1.625   1.521   2.109  1.4307 -0.8603 -2.3286
20019TIP3   OH281547   1.675   6.300  14.711  0.3838 -0.3400  0.2263
20019TIP3    H181548   1.591   6.256  14.703  0.6185 -0.6248 -0.8005
20019TIP3    H281549   1.655   6.381  14.757  0.0037 -1.6650  2.5690
20020TIP3   OH281550   3.017   3.818  12.435 -0.2590 -0.4374  0.5431
20020TIP3    H181551   3.038   3.725  12.438 -0.6106 -0.5017  1.2607
20020TIP3    H281552   2.987   3.834  12.345  1.3965 -0.6505 -0.0881
20021TIP3   OH281553   5.788   6.653   2.884 -0.4605 -0.1264 -1.0162
20021TIP3    H181554   5.865   6.667   2.829  0.9294 -0.8712  0.6419
20021TIP3    H281555   5.728   6.723   2.860  1.5751  1.7594 -0.9212
20022TIP3   OH281556   6.482   3.319   3.654 -0.3013 -0.2216  0.0405
20022TIP3    H181557   6.508   3.328   3.562  1.1126 -2.9345  0.0883
20022TIP3    H281558   6.403   3.265   3.651 -1.9286  1.9966  0.3460
20023TIP3   OH281559   2.773   3.341  11.887  0.5824  0.7550  0.5471
20023TIP3    H181560   2.742   3.430  11.906  0.9303  0.7531  1.1457
20023TIP3    H281561   2.853   3.332  11.939  0.6095  0.1288  0.4023
20024TIP3   OH281562   4.715   3.308  14.780 -0.8806 -0.5727 -0.8326
20024TIP3    H181563   4.799   3.318  14.824 -0.9052  2.7687 -1.3073
20024TIP3    H281564   4.734   3.324  14.687 -1.9257 -0.4814 -1.0442
20025TIP3   OH281565   2.165   0.303  13.742  0.7055  0.2664 -0.0068
20025TIP3    H181566   2.094   0.307  13.678  0.6406 -0.2626  0.0271
20025TIP3    H281567   2.140   0.232  13.800  1.6608 -0.4652 -0.4710
20026TIP3   OH281568   0.194   2.897   2.733  0.5886 -0.1234 -0.8805
20026TIP3    H181569   0.241   2.946   2.800 -1.1020  1.8520 -1.0378
20026TIP3    H281570   0.106   2.886   2.769  0.1290 -0.5179 -2.0794
20027TIP3   OH281571   4.540   0.823   1.353 -0.4709  0.1131 -0.3318
20027TIP3    H181572   4.454   0.786   1.373  1.4338 -3.2586  2.5761
20027TIP3    H281573   4.595   0.748   1.330  2.3746  1.7339  0.6425
20028TIP3   OH281574   3.996   6.768  13.563 -0.3534  0.0948  0.3205
20028TIP3    H181575   3.965   6.700  13.502 -0.0939  0.5422 -0.3211
20028TIP3    H281576   3.958   6.743  13.647 -0.0250 -1.0038  0.1567
20029TIP3   OH281577   3.805   4.013   0.787 -0.5641  0.1491  0.4127
20029TIP3    H181578   3.853   4.033   0.868  0.1188  0.2411 -0.0069
20029TIP3    H281579   3.738   3.950   0.814 -0.5391  0.4146  1.1080
20030TIP3   OH281580   1.278   0.618   3.153 -0.6337 -0.2865  0.3386
20030TIP3    H181581   1.360   0.568   3.141 -0.3894  0.5015 -1.6012
20030TIP3    H281582   1.215   0.552   3.182  0.6265 -0.9361  1.7926
20031TIP3   OH281583   2.121   2.257  11.588 -0.0843 -0.5527 -0.0209
20031TIP3    H181584   2.098   2.317  11.517  0.2485 -0.4698 -0.0579
20031TIP3    H281585   2.211   2.231  11.570 -0.7711 -2.4475 -0.9771
20032TIP3   OH281586   4.942   6.266   4.410 -0.2514 -0.1933  0.2017
20032TIP3    H181587   4.979   6.221   4.334 -0.3461 -0.7219  0.4690
20032TIP3    H281588   4.937   6.199   4.478  1.4534  0.6679  1.2412
20033TIP3   OH281589   6.425   3.609  16.313  0.3249 -0.5166 -0.3800
20033TIP3    H181590   6.338   3.607  16.352  0.7302  1.0037  0.7190
20033TIP3    H281591   6.428   3.693  16.266  1.3480 -0.3329 -0.0031
20034TIP3   OH281592   4.070   6.261   1.629  0.2269 -0.1249  0.1095
20034TIP3    H181593   4.108   6.342   1.595 -1.6908 -0.1153 -2.3302
20034TIP3    H281594   4.000   6.290   1.688 -0.8475  0.1013 -1.2097
20035TIP3   OH281595   1.512   0.984   5.117  0.0133  0.0187  0.1120
20035TIP3    H181596   1.455   1.035   5.059 -1.0311 -1.7700 -0.5121
20035TIP3    H281597   1.473   0.993   5.204 -0.4192 -0.0610 -0.0731
20036TIP3   OH281598   5.065   0.762   3.796 -0.1407  0.3642  0.5077
20036TIP3    H181599   4.994   0.816   3.761 -0.7111 -1.7749 -1.9440
20036TIP3    H281600   5.127   0.753   3.723  0.7905 -0.8585  1.3988
20037TIP3   OH281601   0.910   5.582  12.409  0.2303  0.0337 -0.7168
20037TIP3    H181602   0.952   5.654  12.456 -1.2422  1.3594 -1.3769
20037TIP3    H281603   0.907   5.511  12.473  1.2407  0.7041  0.1164
20038TIP3   OH281604   0.243   3.176   1.863 -0.4942 -0.3262  0.6420
20038TIP3    H181605   0.332   3.208   1.847  0.3194 -2.9119 -0.5651
20038TIP3    H281606   0.188   3.255   1.858  1.0164  0.8109 -4.6976
20039TIP3   OH281607   2.681   4.745  15.503 -0.3696  0.5355  0.3319
20039TIP3    H181608   2.690   4.837  15.476 -1.9527  0.3000 -1.1928
20039TIP3    H281609   2.628   4.749  15.583 -0.3008  0.9525  0.3608
20040TIP3   OH281610   0.322   4.398   5.742 -0.3011 -0.8011 -0.3271
20040TIP3    H181611   0.346   4.440   5.824 -0.2510 -0.1363 -0.6749
20040TIP3    H281612   0.228   4.413   5.734 -0.3533 -1.0898 -0.2681
20041TIP3   OH281613   6.183   5.798  12.720  0.0929 -0.4786  0.0256
20041TIP3    H181614   6.091   5.798  12.745  0.3435  0.0114  1.0095
20041TIP3    H281615   6.189   5.736  12.648 -0.7354 -1.7195  0.9774
20042TIP3   OH281616   4.744   1.988   5.103 -0.6963 -0.3190 -0.0658
20042TIP3    H181617   4.756   1.953   5.015  1.4540 -0.7568  0.3573
20042TIP3    H281618   4.679   1.930   5.143 -1.2907 -0.4403 -1.1582
20043TIP3   OH281619   0.584   4.432  15.743  0.3530  0.1768 -0.7732
20043TIP3    H181620   0.498   4.404  15.775 -0.1061  1.2438 -1.0313
20043TIP3    H281621   0.579   4.421  15.648  0.4169  0.4484 -0.8092
20044TIP3   OH281622   6.701   4.066   1.073 -0.2271  0.6617  0.1315
20044TIP3    H181623   6.626   4.031   1.121  0.6435 -1.7167 -0.1165
20044TIP3    H281624   6.664   4.107   0.996 -1.2509 -1.6982 -0.7063
20045TIP3   OH281625   6.658   6.011   6.249  0.4595  0.5914  0.0974
20045TIP3    H181626   6.567   5.984   6.261  0.7229 -0.4111 -0.0701
20045TIP3    H281627   6.708   5.953   6.306  1.1892 -0.3714 -1.4615
20046TIP3   OH281628   5.539   6.466  13.725  0.0152 -0.5558  0.0414
20046TIP3    H181629   5.485   6.508  13.658  0.3153  0.2001  0.2613
20046TIP3    H281630   5.483   6.399  13.763  0.2981 -2.0157 -1.9498
20047TIP3   OH281631   2.492   4.849  15.228  0.0981  0.6116 -0.1028
20047TIP3    H181632   2.405   4.889  15.225  0.4853  1.4779 -0.3106
20047TIP3    H281633   2.484   4.768  15.178 -0.7427  0.3524  0.4270
20048TIP3   OH281634   2.750   1.814   5.117 -0.1379 -0.0580 -0.2720
20048TIP3    H181635   2.775   1.820   5.025 -0.4274 -1.0900 -0.4286
20048TIP3    H281636   2.690   1.888   5.131 -1.6414 -1.0016 -1.4362
20049TIP3   OH281637   2.637   4.270   2.402  0.0018  0.1983 -0.5064
20049TIP3    H181638   2.545   4.257   2.379  0.2501 -1.3624 -0.7472
20049TIP3    H281639   2.644   4.363   2.422 -1.8341  0.1708  0.4735
20050TIP3   OH281640   2.184   2.013  15.604  0.2112  0.0880 -0.0876
20050TIP3    H181641   2.126   1.956  15.554 -0.0334  1.4290 -1.4097
20050TIP3    H281642   2.126   2.066  15.658  0.3297  0.1000  0.0284
20051TIP3   OH281643   6.431   1.052  14.866 -0.4083 -0.3858 -0.4847
20051TIP3    H181644   6.374   0.975  14.865 -1.4975  0.3510  0.5347
20051TIP3    H281645   6.489   1.038  14.941  0.5878 -0.9971 -1.3454
20052TIP3   OH281646   5.450   0.020   5.640 -0.5356 -0.0053 -0.4886
20052TIP3    H181647   5.495  -0.023   5.567 -3.8124 -1.6331 -1.7585
20052TIP3    H281648   5.378   0.067   5.599 -0.3167  2.2027  1.4461
20053TIP3   OH281649   5.381   2.088  13.970 -0.0310  0.0811  0.3794
20053TIP3    H181650   5.436   2.086  13.892 -0.5761 -1.2270 -0.0003
20053TIP3    H281651   5.427   2.145  14.031  1.6433 -0.8014 -0.0040
20054TIP3   OH281652   2.800   0.636   0.667  0.0291  0.4647 -0.0122
20054TIP3    H181653   2.836   0.683   0.592 -0.0222  0.9202  0.2448
20054TIP3    H281654   2.731   0.580   0.630  0.4443  0.1983 -0.3874
20055TIP3   OH281655   2.309   3.499  12.376 -0.1270 -0.0788 -0.2544
20055TIP3    H181656   2.402   3.478  12.370  0.1415  0.5214  1.2838
20055TIP3    H281657   2.303   3.589  12.345  0.2731  0.8244  2.0860
20056TIP3   OH281658   2.359   4.037   2.804  0.0051  0.0231 -0.2393
20056TIP3    H181659   2.319   4.111   2.850  0.0973  1.4465 -2.3091
20056TIP3    H281660   2.285   3.984   2.776 -0.1292 -0.0331  0.2057
20057TIP3   OH281661   5.700   1.876  10.177 -0.1116 -0.6105  0.5020
20057TIP3    H181662   5.635   1.943  10.159 -0.1942 -0.6986  0.4678
20057TIP3    H281663   5.663   1.796  10.139  0.7730 -0.3367 -1.0293
20058TIP3   OH281664   5.029   1.911   4.173  0.2052  0.3438  0.1495
20058TIP3    H181665   4.988   1.961   4.243 -0.2684 -0.3399  0.3720
20058TIP3    H281666   5.116   1.889   4.208  0.7050  1.6188 -0.2445
20059TIP3   OH281667   2.173   1.058  11.770 -0.7564 -0.0086  0.0771
20059TIP3    H181668   2.122   0.994  11.820 -1.0511 -0.6222 -0.9897
20059TIP3    H281669   2.264   1.035  11.786 -0.8631 -1.3023 -1.0327
20060TIP3   OH281670   1.405   3.471  14.478  0.5051 -0.1601  0.0838
20060TIP3    H181671   1.344   3.453  14.549  0.7163 -1.8383 -0.1185
20060TIP3    H281672   1.489   3.482  14.521  0.6728 -1.3928  0.1050
20061TIP3   OH281673   4.758   0.916  16.117  0.4151  0.3023 -0.3316
20061TIP3    H181674   4.701   0.990  16.139  0.0399 -0.3669  1.0814
20061TIP3    H281675   4.827   0.954  16.063 -1.7374  1.0266 -2.7691
20062TIP3   OH281676   0.637   1.287   2.181 -0.0885  0.7782  0.1372
20062TIP3    H181677   0.623   1.340   2.102 -0.3277 -1.0949 -1.1333
20062TIP3    H281678   0.549   1.273   2.216 -0.1211  0.3647 -0.1104
20063TIP3   OH281679   5.351   5.598  15.777 -0.4348  0.0947  0.2664
20063TIP3    H181680   5.369   5.536  15.706 -0.1326 -0.7131  1.0219
20063TIP3    H281681   5.359   5.684  15.737  1.3093 -0.2997 -0.3488
20064TIP3   OH281682   6.026   0.701  15.980 -0.2787 -0.1215 -0.3244
20064TIP3    H181683   5.987   0.757  15.913 -1.3859  0.9627  1.1594
20064TIP3    H281684   6.061   0.626  15.931  0.8138  1.5745 -2.3310
20065TIP3   OH281685   5.663   5.076  16.676  0.1245  0.3276  0.0751
20065TIP3    H181686   5.721   5.150  16.696  0.1651  0.2871  0.1078
20065TIP3    H281687   5.716   5.019  16.620 -0.5857  1.3491 -1.7402
20066TIP3   OH281688   6.824   2.659  14.374 -0.1198  0.2705  0.4342
20066TIP3    H181689   6.782   2.662  14.460 -0.9289  1.2217  0.0351
20066TIP3    H281690   6.751   2.652  14.312  0.4537 -0.4007 -0.1761
20067TIP3   OH281691   6.504   4.117   5.312  0.3718  0.0869 -0.2426
20067TIP3    H181692   6.481   4.024   5.300 -1.0615  0.4762 -0.7102
20067TIP3    H281693   6.595   4.122   5.283  1.2159 -1.5724  1.8436
20068TIP3   OH281694   2.827   1.454  15.946  0.3213  0.1454 -0.4182
20068TIP3    H181695   2.884   1.385  15.981  2.3058  0.5312 -2.5944
20068TIP3    H281696   2.811   1.427  15.856 -0.6486  1.4721 -0.6676
20069TIP3   OH281697   1.709   5.840   5.662  0.1440 -0.1035  0.0436
20069TIP3    H181698   1.705   5.921   5.713  0.0273  1.3403 -2.1070
20069TIP3    H281699   1.802   5.828   5.642  0.2991 -1.1678  1.2926
20070TIP3   OH281700   3.156   3.668  17.059  0.0281 -0.4854  0.4636
20070TIP3    H181701   3.078   3.701  17.103 -0.0336  1.5635 -1.0018
20070TIP3    H281702   3.123   3.603  16.997 -0.4896  0.0384  0.1743
20071TIP3   OH281703   6.056   1.461   4.091 -0.7821 -0.0598 -0.3718
20071TIP3    H181704   6.099   1.486   4.173 -1.8289  1.2574 -0.2024
20071TIP3    H281705   6.111   1.500   4.023 -0.5093 -0.2426 -0.2594
20072TIP3   OH281706   3.175   5.936  16.965  0.0648 -0.0662  0.4667
20072TIP3    H181707   3.166   5.996  16.891 -0.0571  1.7040  1.8265
20072TIP3    H281708   3.231   5.866  16.933  0.8741  1.1849 -0.9965
20073TIP3   OH281709   0.937   1.933   3.877  0.0274 -0.2525 -0.4256
20073TIP3    H181710   0.945   1.892   3.791 -0.2045 -0.7129 -0.2368
20073TIP3    H281711   1.026   1.936   3.911 -0.1045 -1.9810  0.1684
20074TIP3   OH281712   5.470   2.425  12.512 -0.2503  0.4772 -0.2175
20074TIP3    H181713   5.520   2.504  12.488 -0.1323  0.3435 -0.4207
20074TIP3    H281714   5.422   2.403  12.432  1.5268 -1.0125 -0.9622
20075TIP3   OH281715   2.233   0.052   0.509  0.9408  0.1074  0.1940
20075TIP3    H181716   2.194   0.035   0.424 -1.5596 -0.2172  1.3148
20075TIP3    H281717   2.210  -0.024   0.562  1.2951  0.8907  1.5223
20076TIP3   OH281718   5.835   2.403   1.453 -0.5247 -0.1022 -0.1570
20076TIP3    H181719   5.786   2.483   1.474  1.0971  0.6973  0.7572
20076TIP3    H281720   5.875   2.377   1.536 -0.6040 -1.5872 -0.5603
20077TIP3   OH281721   5.849   3.242  12.854  0.3143  0.2064 -0.6130
20077TIP3    H181722   5.820   3.298  12.781  0.3733  0.1625 -0.6713
20077TIP3    H281723   5.802   3.276  12.930  0.5868  0.5351 -0.5905
20078TIP3   OH281724   1.996   0.926   0.965 -0.1169 -0.3986  0.3808
20078TIP3    H181725   1.953   0.850   1.004 -0.0824 -0.9850 -0.7152
20078TIP3    H281726   1.924   0.983   0.938 -0.1921 -0.9008 -0.4971
20079TIP3   OH281727   0.294   2.496   5.248  0.2157 -0.2503  0.1384
20079TIP3    H181728   0.231   2.533   5.310  0.4948 -0.9996  0.8926
20079TIP3    H281729   0.254   2.416   5.217  0.8005 -0.7612  0.6667
20080TIP3   OH281730   3.795   4.055  12.271 -0.3943 -0.0381 -0.1816
20080TIP3    H181731   3.725   4.078  12.333 -1.7489  0.3870 -1.8182
20080TIP3    H281732   3.794   4.126  12.207 -0.0192 -1.2181 -1.5263
20081TIP3   OH281733   4.734   0.108  13.469  0.0164 -0.5266 -0.3002
20081TIP3    H181734   4.727   0.196  13.433 -1.4833 -0.3135  0.4279
20081TIP3    H281735   4.771   0.120  13.556 -0.4711 -0.5723 -0.0831
20082TIP3   OH281736   0.808   6.753  12.943  0.1691 -0.7717  0.3476
20082TIP3    H181737   0.726   6.754  12.993 -0.0744  2.2396  0.1177
20082TIP3    H281738   0.779   6.747  12.851  0.1246  0.4358  0.2573
20083TIP3   OH281739   1.165   6.542   5.625 -0.0394  0.7730  0.3515
20083TIP3    H181740   1.149   6.481   5.697  1.8618 -0.1343  0.0879
20083TIP3    H281741   1.261   6.551   5.623 -0.0476  0.8988 -1.9325
20084TIP3   OH281742   1.881   1.864  13.403 -0.0640 -0.1678 -0.4903
20084TIP3    H181743   1.895   1.902  13.490  0.5297  0.0645 -0.6886
20084TIP3    H281744   1.786   1.865  13.392 -0.3005 -1.9577  0.9451
20085TIP3   OH281745   3.643   3.829  13.639 -0.2613  0.0998 -0.7392
20085TIP3    H181746   3.681   3.862  13.557  0.5998 -0.5653 -0.6235
20085TIP3    H281747   3.622   3.908  13.688 -1.4529  0.5317 -1.8734
20086TIP3   OH281748   0.754   0.262   3.852 -0.2169  0.0844 -0.0406
20086TIP3    H181749   0.821   0.324   3.822 -1.5141  1.4157 -0.3170
20086TIP3    H281750   0.698   0.313   3.910 -0.6802 -1.1441  0.6352
20087TIP3   OH281751   2.812   2.500  14.652  0.9128  0.3454 -0.2670
20087TIP3    H181752   2.740   2.436  14.654  0.6462  0.6473 -0.2348
20087TIP3    H281753   2.838   2.509  14.744  1.9072 -0.7859 -0.3992
20088TIP3   OH281754   4.914   1.864  13.796 -0.3528 -0.5305 -0.0368
20088TIP3    H181755   4.997   1.823  13.772 -0.6004  0.1328 -2.3057
20088TIP3    H281756   4.924   1.956  13.771 -1.7347 -0.4205 -0.2951
20089TIP3   OH281757   0.839   0.409   4.665  0.1372 -0.0394 -0.4888
20089TIP3    H181758   0.887   0.492   4.668  0.9437 -0.5217  0.4742
20089TIP3    H281759   0.908   0.342   4.667 -0.5533 -0.7435  0.2101
20090TIP3   OH281760   0.065   3.610   4.156  0.1253 -0.0118  0.0967
20090TIP3    H181761   0.159   3.627   4.155  0.2881 -0.8828 -0.5934
20090TIP3    H281762   0.054   3.530   4.104 -1.0394  0.3171 -0.2071
20091TIP3   OH281763   1.532   4.840  13.690 -0.5634 -0.8891  0.0107
20091TIP3    H181764   1.478   4.816  13.766 -1.2469 -1.0754 -0.5248
20091TIP3    H281765   1.578   4.919  13.717 -0.5174 -1.1618  0.7501
20092TIP3   OH281766   2.297   4.583   4.011  0.1930 -0.2418 -0.2389
20092TIP3    H181767   2.334   4.671   4.014  1.3734 -0.7139 -0.3320
20092TIP3    H281768   2.283   4.560   4.103 -0.7665  0.2903 -0.2403
20093TIP3   OH281769   0.438   3.219  14.128  0.4263 -0.0642  0.4590
20093TIP3    H181770   0.490   3.162  14.071  0.7490 -0.0253  0.7131
20093TIP3    H281771   0.438   3.303  14.083  1.5833  0.2603  1.0353
20094TIP3   OH281772   0.766   4.717  15.650 -0.1001  0.3163 -0.0038
20094TIP3    H181773   0.793   4.766  15.572 -0.8390 -0.0252 -0.4846
20094TIP3    H281774   0.675   4.743  15.664  0.8296  2.6632  2.5186
20095TIP3   OH281775   3.494   5.731  13.790  0.1644  0.6092  0.1996
20095TIP3    H181776   3.535   5.697  13.869 -2.3490  1.8264  2.1624
20095TIP3    H281777   3.488   5.825  13.804 -0.4562  0.8555 -1.4114
20096TIP3   OH281778   3.027   5.503  11.286 -0.1005  0.4358 -0.2748
20096TIP3    H181779   3.112   5.463  11.268 -0.2168  0.3754 -0.7131
20096TIP3    H281780   3.027   5.583  11.234 -0.5511  0.1235 -0.7686
20097TIP3   OH281781   4.563   5.274   4.345  0.0770  1.0767 -0.8206
20097TIP3    H181782   4.498   5.261   4.276  0.3421  1.0022 -1.0547
20097TIP3    H281783   4.538   5.211   4.413  0.9224 -0.1860 -1.6384
20098TIP3   OH281784   4.603   6.123  13.196  0.2804  0.2095 -0.4186
20098TIP3    H181785   4.661   6.189  13.158 -2.0735  1.7414 -1.5892
20098TIP3    H281786   4.515   6.153  13.175 -0.9882 -2.0771  1.1438
20099TIP3   OH281787   2.515   5.230  16.423 -0.4730  0.4732 -0.1249
20099TIP3    H181788   2.510   5.244  16.518  0.9707 -0.1918  0.0707
20099TIP3    H281789   2.607   5.240  16.402 -0.3740 -1.8102 -1.0655
20100TIP3   OH281790   3.790   1.460  14.231 -0.1166  0.0429  0.0298
20100TIP3    H181791   3.705   1.465  14.189 -1.3131  0.3793  2.3140
20100TIP3    H281792   3.832   1.544  14.211 -0.8132  0.3436 -0.1873
20101TIP3   OH281793   6.779   3.118  16.083  0.6080 -0.2139  0.4491
20101TIP3    H181794   6.753   3.105  16.175  1.1305 -0.1681  0.6040
20101TIP3    H281795   6.786   3.029  16.048  0.7808 -0.2428  0.5568
20102TIP3   OH281796   2.743   4.565   0.356 -0.1962 -0.7651 -0.1703
20102TIP3    H181797   2.750   4.660   0.344  0.0558 -0.5402  1.5195
20102TIP3    H281798   2.650   4.547   0.351 -0.6097  0.0964  2.6516
20103TIP3   OH281799   4.124   5.511   4.268  0.3610  0.0401  0.5145
20103TIP3    H181800   4.055   5.460   4.310  0.5003 -0.5850  0.0070
20103TIP3    H281801   4.120   5.485   4.176  1.4436 -0.2148  0.5249
20104TIP3   OH281802   3.720   5.707   3.483  0.1660 -0.5117  0.3689
20104TIP3    H181803   3.655   5.776   3.467 -0.3067 -0.7812  1.1007
20104TIP3    H281804   3.799   5.753   3.508  0.4831 -0.1418 -1.2259
20105TIP3   OH281805   4.246   1.340  13.172  0.0426 -0.0763  0.2687
20105TIP3    H181806   4.255   1.309  13.262  1.4818  0.7562  0.4442
20105TIP3    H281807   4.324   1.307  13.127 -0.4368 -0.1010 -0.5665
20106TIP3   OH281808   4.194   2.499  15.585 -0.0478  0.1255 -0.1581
20106TIP3    H181809   4.173   2.517  15.494  0.1817  1.0223 -0.0467
20106TIP3    H281810   4.249   2.421  15.582  0.8259  0.7461 -0.8932
20107TIP3   OH281811   1.426   0.044  14.445 -0.5652  0.2892 -0.1226
20107TIP3    H181812   1.421  -0.031  14.505 -1.7516 -0.3034 -0.9081
20107TIP3    H281813   1.374   0.017  14.369 -0.2715  1.5718 -0.8071
20108TIP3   OH281814   2.339   2.311  14.244 -0.1795  0.0595  0.1402
20108TIP3    H181815   2.283   2.292  14.319 -2.4730 -0.9054 -1.6917
20108TIP3    H281816   2.372   2.225  14.216  1.6901  0.5400  0.7357
20109TIP3   OH281817   4.534   3.055  17.147  0.2051 -0.3486  0.6500
20109TIP3    H181818   4.552   3.018  17.233 -0.2687 -0.3443  0.7533
20109TIP3    H281819   4.553   2.984  17.085 -0.1403 -0.5811  0.8071
20110TIP3   OH281820   2.640   4.263  12.802 -0.2260  0.4254  0.6178
20110TIP3    H181821   2.696   4.220  12.738  0.2861  0.1324  1.2531
20110TIP3    H281822   2.553   4.225  12.788 -0.1301  0.4099  0.0624
20111TIP3   OH281823   3.149   0.771  12.233 -0.6656 -0.1571  0.4587
20111TIP3    H181824   3.221   0.765  12.295 -1.2192  1.0253  1.2763
20111TIP3    H281825   3.074   0.732  12.279 -1.1030  0.8140  0.6043
20112TIP3   OH281826   0.017   3.900   5.757  0.9269  0.1265  0.3268
20112TIP3    H181827   0.022   3.832   5.824  0.1769  0.1544  0.4218
20112TIP3    H281828   0.088   3.960   5.778  1.6874 -0.6968  0.1600
20113TIP3   OH281829   6.695   4.035   3.963  0.7556 -0.1202 -0.0070
20113TIP3    H181830   6.664   4.071   4.047  0.6641 -0.1254 -0.0381
20113TIP3    H281831   6.726   3.947   3.985  2.0903  0.3970  0.2935
20114TIP3   OH281832   4.831   2.947   3.711 -0.0509  0.1593  0.2276
20114TIP3    H181833   4.821   2.934   3.806 -0.9865 -0.6996  0.0234
20114TIP3    H281834   4.819   2.860   3.673  1.6201  0.2582 -0.6013
20115TIP3   OH281835   2.412   1.633   2.721 -0.1356 -0.3328 -0.1096
20115TIP3    H181836   2.329   1.603   2.760 -0.0763  0.4849  0.6649
20115TIP3    H281837   2.423   1.577   2.644 -1.4174 -0.4463 -0.2407
20116TIP3   OH281838   2.742   4.911  11.049  0.0253  0.7570  0.4234
20116TIP3    H181839   2.704   4.905  11.137 -1.2555  0.7286 -0.1210
20116TIP3    H281840   2.677   4.871  10.991  1.0250  0.4114 -0.5026
20117TIP3   OH281841   3.439   1.405  14.474 -0.0990  0.4443 -0.3668
20117TIP3    H181842   3.383   1.474  14.509 -0.1643 -0.0675  0.5669
20117TIP3    H281843   3.378   1.340  14.440 -0.0533  0.3327 -0.2346
20118TIP3   OH281844   1.210   6.036  16.167 -0.1184 -0.5419 -0.1234
20118TIP3    H181845   1.254   6.109  16.210  1.0491 -1.6454  0.6458
20118TIP3    H281846   1.226   6.050  16.074  0.6871 -0.1655  0.0587
20119TIP3   OH281847   3.545   2.213  14.409 -0.0977  0.0767  0.4867
20119TIP3    H181848   3.610   2.192  14.341  0.3976 -0.1875  1.0397
20119TIP3    H281849   3.563   2.152  14.480 -0.4348  0.5402  0.9760
20120TIP3   OH281850   3.065   4.198  11.352 -0.4680 -0.0150 -0.2271
20120TIP3    H181851   2.992   4.238  11.304 -1.9936 -0.0509  1.9165
20120TIP3    H281852   3.025   4.161  11.430  1.7043 -1.1373  0.4326
20121TIP3   OH281853   5.131   2.310   5.516  0.2583  0.2589 -0.3098
20121TIP3    H181854   5.118   2.266   5.599 -1.6066 -1.4668 -1.4276
20121TIP3    H281855   5.122   2.403   5.536 -2.6230 -0.1998  1.0963
20122TIP3   OH281856   5.909   2.046  12.604 -0.1784  0.7789  0.1418
20122TIP3    H181857   6.003   2.026  12.611 -0.0623  1.6841  1.8303
20122TIP3    H281858   5.878   2.045  12.695 -1.5746  1.5092 -0.2997
20123TIP3   OH281859   3.163   0.793   6.573 -0.7276 -0.5023  0.1919
20123TIP3    H181860   3.225   0.852   6.529 -1.9798  0.1115 -0.8187
20123TIP3    H281861   3.084   0.845   6.584 -1.3687 -1.5439  0.6567
20124TIP3   OH281862   0.937   1.615   5.053  0.2647 -0.1554  0.0056
20124TIP3    H181863   0.843   1.630   5.040  0.4145  0.8122 -0.0567
20124TIP3    H281864   0.971   1.700   5.081  0.8626 -0.8906  1.5983
20125TIP3   OH281865   3.504   6.833  14.746  0.3121  0.3030  0.0887
20125TIP3    H181866   3.448   6.842  14.822  0.6352 -1.1149  0.5330
20125TIP3    H281867   3.492   6.914  14.697 -1.2343  0.5164  0.7542
20126TIP3   OH281868   6.388   2.121  12.475 -0.0854 -0.3956 -0.0583
20126TIP3    H181869   6.457   2.083  12.421  0.5878 -1.5437  1.5443
20126TIP3    H281870   6.432   2.153  12.553 -1.2192 -0.1265  0.4983
20127TIP3   OH281871   2.141   2.156   4.907 -0.3955 -0.4415 -0.1198
20127TIP3    H181872   2.046   2.163   4.912 -0.2860  0.7903  0.7288
20127TIP3    H281873   2.159   2.139   4.815 -1.4593 -1.2819 -0.1908
20128TIP3   OH281874   2.387   2.146  16.249  0.0270  0.7670  0.4325
20128TIP3    H181875   2.297   2.163  16.276  0.0256  2.7634 -0.6119
20128TIP3    H281876   2.439   2.162  16.328 -0.4821  0.2086  0.8809
20129TIP3   OH281877   5.966   6.784   5.429 -0.3535 -0.3087 -0.0626
20129TIP3    H181878   6.009   6.807   5.512  0.4737  1.5134 -0.9259
20129TIP3    H281879   5.878   6.819   5.437 -0.2503 -0.0652  0.0184
20130TIP3   OH281880   0.978   2.720  13.608 -0.1659 -0.1719 -0.6925
20130TIP3    H181881   1.025   2.710  13.525 -0.8872 -0.1501 -1.1129
20130TIP3    H281882   1.038   2.769  13.663  0.1818  0.1294 -1.3242
20131TIP3   OH281883   2.540   0.204   3.886  0.2517  0.5268  0.3524
20131TIP3    H181884   2.556   0.122   3.933 -0.2832  1.1407  1.6557
20131TIP3    H281885   2.469   0.183   3.824 -0.2805  0.1382  1.0766
20132TIP3   OH281886   6.324   6.032   4.430  0.1204 -0.2137  0.2124
20132TIP3    H181887   6.240   6.040   4.385 -1.5573 -1.2880  2.8966
20132TIP3    H281888   6.355   6.122   4.440 -0.5519  0.1864 -1.0348
20133TIP3   OH281889   1.611   0.174   6.332  0.1166 -0.0607  0.6057
20133TIP3    H181890   1.609   0.127   6.416  0.8490 -0.4340  0.4181
20133TIP3    H281891   1.546   0.128   6.278 -1.0257  0.7379  1.2391
20134TIP3   OH281892   5.928   0.234  14.564  0.6209 -0.0271 -0.0105
20134TIP3    H181893   5.981   0.155  14.558  1.7296  0.7160 -0.2383
20134TIP3    H281894   5.991   0.305  14.580 -0.2668  0.9196 -0.5681
20135TIP3   OH281895   3.894   2.911   1.661  0.0480  0.1354  0.8538
20135TIP3    H181896   3.864   2.907   1.570 -1.5399  1.1599  1.2873
20135TIP3    H281897   3.989   2.921   1.655  0.5266 -3.6094 -0.5871
20136TIP3   OH281898   2.066   3.458  14.808 -0.2217 -0.4485  0.1487
20136TIP3    H181899   2.030   3.546  14.805 -0.0636 -0.3734  0.4752
20136TIP3    H281900   2.160   3.469  14.794 -0.3190 -0.6448 -0.7088
20137TIP3   OH281901   3.491   4.214   2.158 -0.2045  0.3003 -0.3941
20137TIP3    H181902   3.427   4.143   2.166  0.0656 -0.0416 -1.1131
20137TIP3    H281903   3.552   4.199   2.230 -0.3394 -0.0034 -0.3388
20138TIP3   OH281904   5.384   4.626  15.025  0.7062  0.2392  0.2659
20138TIP3    H181905   5.468   4.585  15.007  0.5798  0.9834 -2.6543
20138TIP3    H281906   5.336   4.562  15.078  2.3240 -1.1208  0.1699
20139TIP3   OH281907   0.583   1.381   0.916  0.2383 -0.5320 -0.7868
20139TIP3    H181908   0.498   1.420   0.935  0.5446 -0.9970  1.8586
20139TIP3    H281909   0.617   1.431   0.842  0.1895  3.6739  1.7254
20140TIP3   OH281910   0.907   0.797   2.927 -0.0486 -0.1331  0.0241
20140TIP3    H181911   0.935   0.818   2.838  0.0597  1.2882  0.3735
20140TIP3    H281912   0.985   0.807   2.980 -0.1602 -0.7903  0.3255
20141TIP3   OH281913   5.859   1.747   2.926 -0.1329 -0.7945 -0.1115
20141TIP3    H181914   5.866   1.830   2.879 -1.1819 -0.5025  0.2452
20141TIP3    H281915   5.939   1.744   2.979 -0.3502  0.2368  0.2895
20142TIP3   OH281916   0.282   4.904  16.933  0.4638  0.1555 -0.3658
20142TIP3    H181917   0.212   4.839  16.927  0.9402 -0.8778  3.1530
20142TIP3    H281918   0.238   4.988  16.919 -1.6424 -0.4256  2.0892
20143TIP3   OH281919   4.611   1.319   5.489  0.2714  0.5960 -0.1694
20143TIP3    H181920   4.602   1.318   5.393  0.3996 -0.2113 -0.1840
20143TIP3    H281921   4.702   1.345   5.504  0.1306  1.1439 -0.2524
20144TIP3   OH281922   4.737   3.855   4.663  0.6986  0.5795 -0.2255
20144TIP3    H181923   4.672   3.794   4.698  0.2801  0.4864 -1.1360
20144TIP3    H281924   4.709   3.870   4.572 -0.0183  3.1887  0.3415
20145TIP3   OH281925   5.890   0.958  11.857  0.2355  0.1359 -0.0287
20145TIP3    H181926   5.919   0.949  11.766 -1.5751  0.2058 -0.6495
20145TIP3    H281927   5.923   0.879  11.901  0.2787 -0.3834 -0.9764
20146TIP3   OH281928   0.618   4.060   5.851 -0.6464 -0.0384  0.1666
20146TIP3    H181929   0.619   4.126   5.781  0.7230 -0.6418 -0.4249
20146TIP3    H281930   0.527   4.059   5.882 -0.7579  1.9049 -0.0041
20147TIP3   OH281931   3.099   2.065  15.662 -0.0169 -0.3046 -0.6119
20147TIP3    H181932   3.119   2.052  15.569 -2.3637  0.1314 -1.2509
20147TIP3    H281933   3.013   2.025  15.673  0.0557 -0.0080  1.3091
20148TIP3   OH281934   2.435   1.220   5.225 -0.4706 -0.4282  0.2952
20148TIP3    H181935   2.346   1.194   5.250  0.3921 -2.7819  1.2211
20148TIP3    H281936   2.492   1.161   5.275  1.6478  1.3368  0.1108
20149TIP3   OH281937   4.355   6.731   6.159  0.0698 -0.0645 -0.4326
20149TIP3    H181938   4.315   6.800   6.212  1.1818 -1.4501  2.4238
20149TIP3    H281939   4.285   6.699   6.103 -1.1238  1.6241  0.0154
20150TIP3   OH281940   2.986   5.235  12.352  0.2385 -0.5551  0.2928
20150TIP3    H181941   3.018   5.247  12.263  0.5950  0.6926  0.5786
20150TIP3    H281942   2.900   5.277  12.353 -1.0899 -3.0351 -0.2031
20151TIP3   OH281943   3.819   1.328  14.477  0.2374 -0.1361 -0.0913
20151TIP3    H181944   3.852   1.393  14.539 -0.5379  0.8725 -0.7162
20151TIP3    H281945   3.827   1.370  14.391  0.0666 -1.0054 -0.5434
20152TIP3   OH281946   6.347   3.571  12.784 -0.0175 -0.3042 -0.0957
20152TIP3    H181947   6.296   3.491  12.775 -0.4889  0.0512 -0.7208
20152TIP3    H281948   6.367   3.597  12.693  0.1560  0.2622  0.0982
20153TIP3   OH281949   5.004   3.256  16.651 -0.7697  0.1288 -0.4501
20153TIP3    H181950   5.060   3.295  16.584 -0.9369  0.0908 -0.6145
20153TIP3    H281951   5.037   3.292  16.733  0.5653 -1.1847 -0.3765
20154TIP3   OH281952   5.069   6.345   5.754 -0.2163 -0.2185  0.2980
20154TIP3    H181953   5.009   6.306   5.690 -1.1698 -0.6711  1.4321
20154TIP3    H281954   5.031   6.431   5.774 -0.2783 -0.3413  0.7207
20155TIP3   OH281955   3.951   2.077  14.417  0.1672  0.6743 -0.2395
20155TIP3    H181956   3.955   2.111  14.328  1.4701  0.9845 -0.0845
20155TIP3    H281957   4.004   1.998  14.415  1.1745  1.2969  0.4897
20156TIP3   OH281958   0.617   2.922  13.184  0.0213 -0.0003 -0.0364
20156TIP3    H181959   0.599   3.004  13.139  0.9445 -0.6999 -1.7815
20156TIP3    H281960   0.694   2.886  13.139 -0.7228 -2.1105  0.2593
20157TIP3   OH281961   5.769   5.617  13.691  0.4577  0.1324  0.2659
20157TIP3    H181962   5.714   5.604  13.613 -1.6233 -0.6832  1.7959
20157TIP3    H281963   5.709   5.611  13.765  2.5111 -0.0905  2.0262
20158TIP3   OH281964   2.913   1.224  11.317  0.0340 -0.0662  0.2766
20158TIP3    H181965   2.863   1.152  11.278  1.7541 -0.2341 -1.8421
20158TIP3    H281966   2.981   1.243  11.252  0.1066  2.9697  1.1257
20159TIP3   OH281967   4.927   4.054  15.601  0.0877 -0.0358 -0.2964
20159TIP3    H181968   4.998   4.057  15.665  0.3660  0.8312 -0.6265
20159TIP3    H281969   4.950   4.122  15.537 -0.6863 -0.2227 -0.7828
20160TIP3   OH281970   0.762   3.922  14.164  0.1742  0.1297 -0.2080
20160TIP3    H181971   0.766   3.969  14.247  2.0480  0.6148 -0.5303
20160TIP3    H281972   0.765   3.829  14.188 -0.2920  0.2392  0.2931
20161TIP3   OH281973   0.893   3.400  14.113 -0.0764  0.0422  0.5232
20161TIP3    H181974   0.856   3.474  14.064  0.1671  0.5530  1.0861
20161TIP3    H281975   0.983   3.391  14.080 -0.5826 -1.0083 -0.6352
20162TIP3   OH281976   5.088   2.659  14.853  0.4647  0.1424 -0.0082
20162TIP3    H181977   5.016   2.707  14.812  0.2705  0.3681  0.5981
20162TIP3    H281978   5.167   2.709  14.830  0.6617 -0.9301 -1.9983
20163TIP3   OH281979   3.971   6.075   1.991 -0.2756  0.3784 -0.0088
20163TIP3    H181980   4.063   6.047   1.998  0.6874  3.1827 -0.1445
20163TIP3    H281981   3.970   6.133   1.915 -1.4451  2.7337  1.6775
20164TIP3   OH281982   5.350   4.591  11.941 -0.1650  0.3213 -0.5227
20164TIP3    H181983   5.381   4.659  12.001 -0.0210  1.0775 -1.4203
20164TIP3    H281984   5.426   4.573  11.885  0.3645 -1.8724  0.8087
20165TIP3   OH281985   0.362   5.039   3.354  0.1783  0.2314 -0.0253
20165TIP3    H181986   0.300   4.987   3.303  0.8966 -0.7284  0.0257
20165TIP3    H281987   0.425   5.071   3.290  0.0289  0.6116  0.0147
20166TIP3   OH281988   1.472   0.380  11.553 -0.1308  0.2955  0.4118
20166TIP3    H181989   1.515   0.452  11.507 -0.3920  0.2547  0.1007
20166TIP3    H281990   1.441   0.420  11.635  0.7037  0.2621  0.7479
20167TIP3   OH281991   4.580   3.840   2.502  0.2270  0.0665 -0.0568
20167TIP3    H181992   4.579   3.748   2.527  0.4728 -0.5919 -2.2688
20167TIP3    H281993   4.512   3.848   2.435 -0.8728  1.8712  1.1856
20168TIP3   OH281994   1.128   2.137  14.073  0.0940  0.0740  0.0387
20168TIP3    H181995   1.096   2.207  14.129  0.6304  0.4885 -0.1638
20168TIP3    H281996   1.168   2.074  14.134  0.7530  0.5640  0.1278
20169TIP3   OH281997   1.134   6.521  15.752 -0.1726 -0.4637 -0.0471
20169TIP3    H181998   1.162   6.508  15.842 -0.3783  3.0015  0.6421
20169TIP3    H281999   1.116   6.615  15.745  1.2176 -0.2779 -4.0962
20170TIP3   OH282000   5.946   1.077   1.816 -0.6636  0.3973  0.0252
20170TIP3    H182001   5.973   0.993   1.780 -2.7924 -0.1677 -0.3323
20170TIP3    H282002   6.001   1.088   1.894 -0.3268 -1.2887  0.0585
20171TIP3   OH282003   5.991   4.551   0.444 -0.0373 -0.0073  0.2586
20171TIP3    H182004   6.068   4.559   0.389 -0.1783 -1.6910 -0.2518
20171TIP3    H282005   5.953   4.467   0.420 -0.8941 -0.1556  1.9359
20172TIP3   OH282006   6.503   1.301   4.922 -0.0281  0.2466 -0.1455
20172TIP3    H182007   6.536   1.230   4.867 -0.5411  1.7327 -2.5512
20172TIP3    H282008   6.453   1.356   4.862 -0.5918  2.0450  1.8452
20173TIP3   OH282009   1.916   4.019  10.613 -0.0541  0.2473  0.7932
20173TIP3    H182010   1.934   3.958  10.684 -0.3201  1.4108  1.9057
20173TIP3    H282011   1.868   4.091  10.654 -1.5864  0.2586 -0.8552
20174TIP3   OH282012   2.784   3.763   4.549  0.1126 -0.0680 -0.9372
20174TIP3    H182013   2.871   3.792   4.520 -0.3866  1.3394 -1.1082
20174TIP3    H282014   2.744   3.723   4.472  0.6061 -0.7493 -0.8495
20175TIP3   OH282015   4.179   1.605  12.931  0.2597 -0.5752  0.4595
20175TIP3    H182016   4.272   1.604  12.953  0.3014 -0.7262  0.2858
20175TIP3    H282017   4.176   1.643  12.843  0.5011 -3.5434 -0.9695
20176TIP3   OH282018   3.426   2.401   4.789  0.6078  0.2115 -0.6891
20176TIP3    H182019   3.448   2.352   4.709 -0.1524 -0.5708 -0.4328
20176TIP3    H282020   3.450   2.341   4.860  0.7025  0.6648 -0.3404
20177TIP3   OH282021   0.301   4.576   0.770 -0.0650 -0.9067 -0.5281
20177TIP3    H182022   0.262   4.513   0.830  1.3448 -1.0488  0.2878
20177TIP3    H282023   0.394   4.576   0.791  0.4135 -0.5917 -2.3907
20178TIP3   OH282024   6.239   1.304  14.176 -0.6387 -0.4784 -0.1261
20178TIP3    H182025   6.237   1.330  14.084 -0.7369  1.4940  0.3756
20178TIP3    H282026   6.291   1.372  14.218 -1.6151 -0.6632  1.4581
20179TIP3   OH282027   5.195   6.677  16.695 -0.3372  0.1292  0.3033
20179TIP3    H182028   5.112   6.690  16.648 -0.6192  3.7942  1.5383
20179TIP3    H282029   5.203   6.581  16.702 -3.0282 -0.4535 -2.2327
20180TIP3   OH282030   3.357   3.548   1.696 -0.0681 -0.1083  0.3081
20180TIP3    H182031   3.296   3.533   1.624 -0.2161 -0.5689  0.5291
20180TIP3    H282032   3.443   3.550   1.653 -0.1403 -0.5427  0.1381
20181TIP3   OH282033   4.508   0.605   4.152  0.3934 -0.5815 -0.4962
20181TIP3    H182034   4.577   0.541   4.172  0.7064 -0.6269 -1.6212
20181TIP3    H282035   4.476   0.634   4.237  2.2527 -0.0877  0.0836
20182TIP3   OH282036   6.611   1.579   1.709 -0.3153 -0.7428 -0.5280
20182TIP3    H182037   6.677   1.648   1.713 -0.2974 -0.7625 -0.4799
20182TIP3    H282038   6.541   1.609   1.767  0.9360 -2.0686  1.8318
20183TIP3   OH282039   4.288   2.855  16.067 -0.0670 -0.3668  0.1782
20183TIP3    H182040   4.288   2.762  16.090  0.6307  0.4327  4.3519
20183TIP3    H282041   4.214   2.892  16.116  1.1972  1.6067  0.7156
20184TIP3   OH282042   3.692   2.902  10.804 -0.3672 -0.1692 -0.3236
20184TIP3    H182043   3.637   2.934  10.732 -2.0739  1.6683  1.6704
20184TIP3    H282044   3.647   2.824  10.835 -0.8792  0.3066  0.1495
20185TIP3   OH282045   0.571   2.859   1.529  0.4455 -0.1343  0.0927
20185TIP3    H182046   0.627   2.785   1.550 -0.0328 -0.9482 -1.3135
20185TIP3    H282047   0.625   2.936   1.546  1.2756 -0.8349  0.7128
20186TIP3   OH282048   2.032   0.527   5.600  0.2582 -0.1568  0.1651
20186TIP3    H182049   2.078   0.466   5.657 -1.7826 -0.3550  1.6846
20186TIP3    H282050   2.079   0.521   5.516  2.8006 -0.4885  1.5167
20187TIP3   OH282051   0.338   2.702  17.030 -0.6731 -0.6129  0.5500
20187TIP3    H182052   0.387   2.760  17.089 -0.2163  0.0695 -0.4624
20187TIP3    H282053   0.375   2.720  16.943 -2.1770 -0.6620 -0.1298
20188TIP3   OH282054   1.777   0.297  14.441 -0.3379  0.0891  0.8671
20188TIP3    H182055   1.683   0.304  14.456 -0.3487  1.9267  0.1534
20188TIP3    H282056   1.817   0.342  14.515 -0.0244 -0.2891  0.9329
20189TIP3   OH282057   5.205   6.228   2.904 -0.0173 -0.2657  0.1258
20189TIP3    H182058   5.241   6.175   2.833 -0.1096  0.6303 -0.6046
20189TIP3    H282059   5.251   6.312   2.897  1.2932 -0.7278  2.2582
20190TIP3   OH282060   6.830   0.436   3.921  0.2723 -0.4177 -0.2677
20190TIP3    H182061   6.764   0.490   3.964  0.2635 -0.1005 -0.6623
20190TIP3    H282062   6.894   0.416   3.989  0.6932  0.7608 -0.2862
20191TIP3   OH282063   1.885   0.297   6.533  0.3450  0.4555  0.1800
20191TIP3    H182064   1.831   0.360   6.582 -0.3198 -0.7296  1.0103
20191TIP3    H282065   1.967   0.344   6.518  1.3541  0.3245  4.0904
20192TIP3   OH282066   0.585   5.229   6.336  0.8845  0.3343  1.0144
20192TIP3    H182067   0.531   5.268   6.405  0.1587 -0.4661  0.9212
20192TIP3    H282068   0.665   5.201   6.381  0.9636  0.9560  1.2764
20193TIP3   OH282069   6.701   5.143  13.327  0.2036  0.3667  0.2160
20193TIP3    H182070   6.784   5.132  13.373  1.0574  0.3751 -1.2519
20193TIP3    H282071   6.718   5.110  13.239 -1.2637  0.6760 -0.2075
20194TIP3   OH282072   2.950   3.864  14.783 -0.0240  0.2772 -0.0654
20194TIP3    H182073   2.882   3.797  14.777  1.8742 -1.6853 -1.0490
20194TIP3    H282074   2.957   3.898  14.695 -0.3299  1.1336  0.2332
20195TIP3   OH282075   1.088   1.458  15.316 -0.5814 -0.1905  0.4488
20195TIP3    H182076   1.093   1.552  15.298 -1.4200 -0.2509 -0.1951
20195TIP3    H282077   1.152   1.419  15.257 -2.0613 -0.2247 -1.2454
20196TIP3   OH282078   4.261   2.908  11.997 -0.4211 -0.2006  0.2907
20196TIP3    H182079   4.167   2.918  11.986 -0.4478 -0.5640  0.2034
20196TIP3    H282080   4.272   2.832  12.053 -0.2386  0.9468  1.8996
20197TIP3   OH282081   0.107   3.034   4.181 -0.4476 -0.2214  0.0303
20197TIP3    H182082   0.063   3.118   4.192  0.6973  0.2288  1.5044
20197TIP3    H282083   0.111   2.997   4.269  1.5141 -0.5168 -0.1242
20198TIP3   OH282084   3.132   0.746  13.566  0.0397  0.5643 -0.7624
20198TIP3    H182085   3.145   0.829  13.519 -2.4952  0.5627 -1.6355
20198TIP3    H282086   3.037   0.736  13.569  0.2721 -2.8356 -1.5834
20199TIP3   OH282087   5.614   2.023   3.008  0.1127 -0.0951  0.7909
20199TIP3    H182088   5.533   2.025   2.957 -0.1933 -3.8035  0.8835
20199TIP3    H282089   5.611   2.104   3.059 -2.1928  1.1743 -1.0969
20200TIP3   OH282090   5.021   2.874  15.094  0.0969 -0.0839  0.2469
20200TIP3    H182091   4.966   2.855  15.018  0.0262 -0.0404  0.2870
20200TIP3    H282092   4.962   2.864  15.169  0.3780 -0.9668  0.3608
20201TIP3   OH282093   1.126   1.048   3.356 -0.0925  0.1504 -0.5336
20201TIP3    H182094   1.119   0.962   3.314 -0.0366  0.5591 -1.4032
20201TIP3    H282095   1.038   1.067   3.386  0.0511 -0.5562  0.3787
20202TIP3   OH282096   2.746   1.322  14.423  0.4688  0.2081  0.6482
20202TIP3    H182097   2.802   1.275  14.361  1.7753  1.5345  0.7619
20202TIP3    H282098   2.772   1.414  14.414 -1.7474  0.8955  0.6883
20203TIP3   OH282099   5.338   0.519   6.462  0.1283  0.5183  0.3279
20203TIP3    H182100   5.317   0.601   6.506  0.1887  0.1832  0.9943
20203TIP3    H282101   5.256   0.469   6.465 -0.4928  1.3123 -1.8242
20204TIP3   OH282102   4.674   1.009   1.133  0.1231 -0.2320 -0.1689
20204TIP3    H182103   4.618   0.999   1.056 -1.7085 -2.2189  1.3126
20204TIP3    H282104   4.737   0.938   1.127  1.7062  1.1552 -1.0819
20205TIP3   OH282105   4.049   0.066   4.707  0.2363  0.3846  0.3669
20205TIP3    H182106   4.087   0.135   4.653  0.1880 -0.2829 -0.5443
20205TIP3    H282107   3.960   0.097   4.728 -0.4644 -0.1842 -1.5833
20206TIP3   OH282108   2.881   6.635  15.064  0.3821 -0.2776  0.9922
20206TIP3    H182109   2.966   6.630  15.108  1.0258 -0.5333 -0.2198
20206TIP3    H282110   2.820   6.590  15.123  0.4380  2.3122  3.2343
20207TIP3   OH282111   0.715   0.869   1.271 -0.2274  0.0319 -0.3242
20207TIP3    H182112   0.757   0.945   1.311 -0.0091  0.9370 -2.2099
20207TIP3    H282113   0.632   0.860   1.318  0.2324  0.7498  0.6522
20208TIP3   OH282114   4.075   2.240  13.070  0.0524 -0.5220 -0.8092
20208TIP3    H182115   4.125   2.202  13.142 -0.7560  0.1115  0.1070
20208TIP3    H282116   3.984   2.236  13.099 -0.0226  3.4733  0.0521
20209TIP3   OH282117   2.140   2.936  11.086 -0.1862 -0.5273  0.4622
20209TIP3    H182118   2.127   3.031  11.085  0.8627 -0.3665 -0.3168
20209TIP3    H282119   2.205   2.922  11.155  1.1649 -0.4225 -0.7388
20210TIP3   OH282120   1.147   1.239   3.093 -0.0616  0.2661 -0.1105
20210TIP3    H182121   1.135   1.265   3.001 -2.0843  0.1084  0.0651
20210TIP3    H282122   1.066   1.193   3.115  0.7636 -0.4674  1.5078
20211TIP3   OH282123   6.635   5.149  11.531  0.1210 -0.7578  0.0578
20211TIP3    H182124   6.552   5.145  11.578  0.4388 -0.8435  0.6224
20211TIP3    H282125   6.670   5.059  11.535 -1.0912 -1.4567 -2.6750
20212TIP3   OH282126   4.625   6.731   0.931  0.2882  0.4113  0.0700
20212TIP3    H182127   4.711   6.722   0.971  1.1443  2.2785 -1.2123
20212TIP3    H282128   4.624   6.820   0.896 -0.9671 -0.5656 -2.6932
20213TIP3   OH282129   4.571   3.394   0.988  0.2326  0.3868  0.3938
20213TIP3    H182130   4.603   3.416   0.901  2.8069  0.7692  1.3593
20213TIP3    H282131   4.535   3.477   1.021 -1.3493  0.0901 -0.4909
20214TIP3   OH282132   1.015   6.392   5.802  0.0261 -0.1917  0.0760
20214TIP3    H182133   0.969   6.320   5.846 -1.3484  0.1365 -0.7527
20214TIP3    H282134   0.965   6.470   5.826  2.3824  0.8088  2.2430
20215TIP3   OH282135   5.274   5.863  11.434  0.3268  0.7900  0.4545
20215TIP3    H182136   5.358   5.904  11.454 -0.3716  2.3524  0.2768
20215TIP3    H282137   5.248   5.900  11.350  0.1377 -0.8133 -0.2262
20216TIP3   OH282138   1.081   2.577   1.347  0.8026  0.5155 -0.4214
20216TIP3    H182139   1.115   2.660   1.313  0.8074  0.7017  0.0380
20216TIP3    H282140   0.988   2.580   1.327  0.9197  0.3284 -1.0183
20217TIP3   OH282141   5.768   1.478   0.239  0.2804  0.1845 -0.2196
20217TIP3    H182142   5.681   1.517   0.223  0.2896  1.8097  2.8297
20217TIP3    H282143   5.755   1.422   0.316  1.7147 -0.4508 -0.4119
20218TIP3   OH282144   2.698   6.447   4.973 -0.3761 -0.8571 -0.1878
20218TIP3    H182145   2.775   6.465   5.026  0.0532 -1.6011 -0.5343
20218TIP3    H282146   2.631   6.506   5.006 -0.1318 -1.3138  1.1869
20219TIP3   OH282147   6.235   5.804   0.206  0.2889  0.3822  0.3615
20219TIP3    H182148   6.145   5.813   0.176 -0.0535  0.0262  1.2567
20219TIP3    H282149   6.288   5.839   0.134 -0.6200  1.8040  0.3490
20220TIP3   OH282150   4.987   6.079   4.609  0.0477 -0.8159 -0.3671
20220TIP3    H182151   5.056   6.013   4.606 -0.7274 -1.6190 -1.0880
20220TIP3    H282152   4.946   6.067   4.695  0.4046 -0.7611 -0.1896
20221TIP3   OH282153   6.146   4.586  16.874 -0.4247 -0.2127  0.2442
20221TIP3    H182154   6.236   4.570  16.903 -0.1918 -0.7117 -0.7230
20221TIP3    H282155   6.150   4.671  16.829 -0.1501 -0.8380 -0.9444
20222TIP3   OH282156   2.374   2.198   0.710 -0.5749  0.4828  0.2974
20222TIP3    H182157   2.412   2.265   0.653 -1.1000  0.8798  0.4042
20222TIP3    H282158   2.435   2.125   0.705 -0.2028  0.8161 -0.1439
20223TIP3   OH282159   4.065   4.579   2.066 -0.0501 -0.1593  0.0312
20223TIP3    H182160   4.072   4.620   2.152  0.1525 -0.1309  0.0021
20223TIP3    H282161   4.055   4.486   2.085  0.6402 -0.2304  0.0761
20224TIP3   OH282162   4.991   5.864   2.772 -0.1250 -0.0258  0.3370
20224TIP3    H182163   4.942   5.901   2.845  0.1317  0.2111  0.3922
20224TIP3    H282164   4.991   5.934   2.705  0.4761  0.1286  0.4948
20225TIP3   OH282165   6.802   0.309   4.480 -0.3756 -0.3129  0.4315
20225TIP3    H182166   6.798   0.245   4.551  2.8794  1.2035  2.2105
20225TIP3    H282167   6.892   0.341   4.482 -1.1366  2.4073 -2.1103
20226TIP3   OH282168   1.661   1.453   6.220  0.6429  0.3157  0.3210
20226TIP3    H182169   1.746   1.472   6.182 -0.3093 -0.3358 -2.3421
20226TIP3    H282170   1.651   1.358   6.211 -0.4287  0.4032  0.4459
20227TIP3   OH282171   5.421   6.430  16.351 -0.5628  0.3197  0.1064
20227TIP3    H182172   5.503   6.478  16.340  0.3810 -1.3945 -0.8686
20227TIP3    H282173   5.413   6.377  16.271 -0.9454 -1.9059  1.5124
20228TIP3   OH282174   3.368   3.394   0.094  0.0721 -0.0762  0.1694
20228TIP3    H182175   3.458   3.424   0.109  1.1501 -3.3655  1.1057
20228TIP3    H282176   3.317   3.439   0.161  1.1035  1.3353  0.0657
20229TIP3   OH282177   5.407   1.083  16.012 -0.5439  0.1552 -0.4328
20229TIP3    H182178   5.341   1.115  16.073 -0.0751  0.6922 -0.1954
20229TIP3    H282179   5.486   1.072  16.065 -0.3368 -0.1203 -0.7862
20230TIP3   OH282180   1.825   4.866  14.560 -0.2773  0.1888  0.2275
20230TIP3    H182181   1.814   4.815  14.640  1.3512  1.4941  1.3668
20230TIP3    H282182   1.914   4.902  14.567 -0.8238  1.9756 -1.1994
20231TIP3   OH282183   2.696   3.565  15.907 -0.3961  0.5624 -0.7091
20231TIP3    H182184   2.766   3.502  15.891  1.4848  2.4380 -0.2234
20231TIP3    H282185   2.715   3.638  15.848 -1.1896  1.6716  0.3595
20232TIP3   OH282186   0.828   4.728  12.857 -0.3479 -0.1840 -0.0641
20232TIP3    H182187   0.889   4.671  12.904 -0.5356 -0.5517 -0.2620
20232TIP3    H282188   0.747   4.722  12.906  0.1100  1.3226  0.9663
20233TIP3   OH282189   6.727   4.394   4.092  0.1774  0.4922 -0.2478
20233TIP3    H182190   6.704   4.385   4.000  1.8564  2.2691 -0.9304
20233TIP3    H282191   6.644   4.411   4.137 -0.6149 -0.0566 -1.4767
20234TIP3   OH282192   6.113   0.986   0.922  0.0051 -0.2419  0.5597
20234TIP3    H182193   6.188   0.959   0.975  1.2998  0.1277 -0.9823
20234TIP3    H282194   6.125   1.080   0.910 -0.4035 -0.2739 -0.1331
20235TIP3   OH282195   0.570   6.564   0.256 -0.6244  0.3631  0.0671
20235TIP3    H182196   0.566   6.644   0.308 -2.6120 -0.6306  1.5727
20235TIP3    H282197   0.543   6.494   0.316 -2.0533 -0.9950 -2.0090
20236TIP3   OH282198   4.369   2.021   4.204  0.2704 -0.3545  0.3673
20236TIP3    H182199   4.374   1.960   4.278  2.3239  0.0276  0.6160
20236TIP3    H282200   4.402   2.103   4.239  0.5614  0.0381 -0.7891
20237TIP3   OH282201   6.360   6.404   0.448  0.5707 -0.1463  0.2073
20237TIP3    H182202   6.352   6.358   0.531 -1.0838  0.0806  0.2086
20237TIP3    H282203   6.435   6.363   0.405 -0.2691 -2.2365  0.6012
20238TIP3   OH282204   4.928   4.685  13.779  0.1197  0.8347 -0.1481
20238TIP3    H182205   4.878   4.651  13.853 -0.3414  2.8302  0.5170
20238TIP3    H282206   5.017   4.695  13.814  0.3258  0.0528 -0.4362
20239TIP3   OH282207   4.895   4.427  11.923  0.0265 -0.1923  0.4556
20239TIP3    H182208   4.849   4.366  11.980  0.4939  0.0330  1.0874
20239TIP3    H282209   4.827   4.486  11.890 -0.4607 -1.1393 -0.3020
20240TIP3   OH282210   1.363   5.633   4.441 -0.2616  0.1091  0.0883
20240TIP3    H182211   1.279   5.670   4.466 -0.2238 -0.8886  1.9019
20240TIP3    H282212   1.428   5.695   4.475 -0.2501 -0.2964  0.8421
20241TIP3   OH282213   4.422   0.320  12.412  0.0825  0.0750 -0.6067
20241TIP3    H182214   4.339   0.348  12.373 -0.4868 -1.5890 -0.6406
20241TIP3    H282215   4.409   0.228  12.433  1.8265 -0.1322 -0.3161
20242TIP3   OH282216   3.565   1.007  12.899 -0.4277  0.4718 -0.3408
20242TIP3    H182217   3.498   0.939  12.906  0.7265 -0.6140  0.9259
20242TIP3    H282218   3.579   1.019  12.805  0.0945 -1.8619 -0.6195
20243TIP3   OH282219   5.057   5.033  15.449  0.2657  0.2958  0.0685
20243TIP3    H182220   5.136   5.080  15.476  2.0425 -2.9037  0.9986
20243TIP3    H282221   5.090   4.953  15.407 -2.4461 -1.5250  1.1117
20244TIP3   OH282222   6.552   1.553   3.237 -0.0072 -0.3443 -0.9130
20244TIP3    H182223   6.457   1.561   3.235  0.0571  1.9360  0.8055
20244TIP3    H282224   6.571   1.515   3.323  0.6820  0.8501 -0.5174
20245TIP3   OH282225   1.631   0.556   0.415  0.0609  0.6196 -0.4735
20245TIP3    H182226   1.591   0.579   0.499  0.7711 -0.4692  0.1692
20245TIP3    H282227   1.611   0.631   0.359 -1.0589  1.0395  0.4390
20246TIP3   OH282228   5.944   0.948  11.599 -0.1988  0.3836 -0.0145
20246TIP3    H182229   5.888   0.965  11.523  1.1334  0.5924 -0.9751
20246TIP3    H282230   6.031   0.935  11.563  0.0369 -2.1667  1.2364
20247TIP3   OH282231   2.481   1.793  11.943 -0.1894  0.1524 -0.6099
20247TIP3    H182232   2.399   1.841  11.957  0.5992  1.1479  0.7398
20247TIP3    H282233   2.505   1.813  11.852 -1.2221  0.1846 -0.8889
20248TIP3   OH282234   1.340   4.979  10.971  0.1027  0.1011  0.3248
20248TIP3    H182235   1.416   5.031  10.945  0.4595 -1.3231 -1.6589
20248TIP3    H282236   1.277   5.044  11.002  0.6225  1.7584 -1.8337
20249TIP3   OH282237   4.247   4.133   0.492  0.5371  0.0172  0.4084
20249TIP3    H182238   4.182   4.099   0.554 -0.5854  2.1116  0.4922
20249TIP3    H282239   4.196   4.152   0.413  1.3529  0.3015 -0.0570
20250TIP3   OH282240   5.183   1.096  16.239 -0.6417 -0.3900  0.0476
20250TIP3    H182241   5.232   1.065  16.315  1.1076 -2.2939 -1.6985
20250TIP3    H282242   5.135   1.019  16.209 -2.1318  0.6009 -0.1944
20251TIP3   OH282243   3.690   6.818   0.054 -0.2374 -0.1035  0.2895
20251TIP3    H182244   3.704   6.726   0.073  0.7926  0.2933  1.5776
20251TIP3    H282245   3.683   6.822  -0.041 -0.3508 -1.5097  0.2208
20252TIP3   OH282246   0.850   6.312   4.643  0.1359  0.0368  0.6336
20252TIP3    H182247   0.902   6.306   4.562 -1.8936  0.5928 -0.7874
20252TIP3    H282248   0.912   6.292   4.712  1.4210 -3.2122 -1.2176
20253TIP3   OH282249   1.610   6.681  16.798 -0.0925 -0.8596 -0.5116
20253TIP3    H182250   1.662   6.760  16.811 -1.5853  0.2899 -1.2005
20253TIP3    H282251   1.580   6.657  16.886 -0.3612 -0.1184 -0.3920
20254TIP3   OH282252   4.451   5.212   2.289  0.4440  0.1086 -0.1975
20254TIP3    H182253   4.486   5.300   2.272  1.9700 -0.2748  0.7497
20254TIP3    H282254   4.522   5.167   2.335 -1.1982 -0.8477  1.5485
20255LIG     O182255   4.978   1.466  16.674  0.4345 -0.5386  0.6614
20255LIG     O282256   5.124   1.626  16.778  0.0167 -0.4720  0.5800
20255LIG     O382257   5.056   1.749  16.588  0.1287  0.2610  0.2309
20255LIG     O482258   5.103   1.289  16.882  0.3481 -0.0576 -0.5224
20255LIG     O582259   5.267   1.257  16.662 -0.2915  0.4477  0.5882
20255LIG     O682260   5.058   1.852  16.947 -0.2494  0.4564 -0.0190
20255LIG     O782261   5.318   1.861  16.809  0.3286 -0.1808  0.6587
20255LIG     O882262   5.302   2.023  16.568  0.2322 -0.2662 -0.1833
20255LIG     O982263   5.005   1.588  17.037 -0.1164 -0.4109 -0.1208
20255LIG    O1082264   5.092   1.491  16.393 -0.2863 -0.1628 -0.0721
20255LIG    O1182265   5.076   1.927  16.332  0.5343  0.1424  0.1712
20255LIG     C182266   5.045   1.513  16.795 -0.4477 -0.0541 -0.4411
20255LIG     C282267   5.151   1.409  16.818 -0.1141  0.0065  0.2367
20255LIG     C382268   5.187   1.376  16.671 -0.0843  0.0595  0.6489
20255LIG     C482269   5.052   1.359  16.595 -0.2358 -0.4360 -0.7186
20255LIG     C582270   5.041   1.735  16.729 -0.2619  0.4152  0.0170
20255LIG     C682271   5.071   1.867  16.804  0.1873  0.7391  0.1341
20255LIG     C782272   5.206   1.930  16.769  0.8027 -0.4194  0.1351
20255LIG     C882273   5.192   1.950  16.619  0.7249  0.4021  0.1315
20255LIG     C982274   5.168   1.823  16.550 -0.0827  0.1193 -0.0851
20255LIG    C1082275   4.947   1.520  16.919 -0.4418 -0.7612 -0.7004
20255LIG    C1182276   5.061   1.365  16.440  0.0583 -0.2260  0.0523
20255LIG    C1282277   5.172   1.842  16.390  0.1086  0.1729 -0.0246
20255LIG     H182278   5.230   1.450  16.883 -1.7923  2.4832  0.8992
20255LIG     H282279   5.240   1.459  16.623 -0.1720 -0.8336 -1.0727
20255LIG     H382280   5.011   1.259  16.615 -0.3743 -0.8262 -2.7538
20255LIG     H482281   4.933   1.712  16.739 -0.6625  1.1781 -2.0668
20255LIG     H582282   4.994   1.933  16.759 -0.2090 -0.9348 -1.7888
20255LIG     H682283   5.219   2.031  16.813 -0.1028  0.4742 -1.5511
20255LIG     H782284   5.101   2.006  16.590  0.2772 -1.2716 -1.9343
20255LIG     H882285   5.250   1.754  16.582  1.0806  1.4405 -0.1502
20255LIG     H982286   4.856   1.572  16.881  0.6153 -0.0064 -2.2842
20255LIG    H1082287   4.910   1.422  16.955 -0.1282 -0.1511  1.4477
20255LIG    H1182288   5.147   1.299  16.415  1.4795  1.1236  1.1603
20255LIG    H1282289   4.963   1.321  16.413 -1.1787  0.0082  3.6843
20255LIG    H1382290   5.274   1.872  16.358  0.6023 -0.3227  1.0509
20255LIG    H1482291   5.147   1.741  16.350 -2.2757  0.4690  0.5762
20255LIG    H1582292   5.170   1.249  16.938 -2.0356 -1.5311  1.5082
20255LIG    H1682293   5.257   1.205  16.743  0.4132 -0.2681  0.2245
20255LIG    H1782294   5.044   1.942  16.979  0.3386 -0.4252  3.0581
20255LIG    H1882295   5.393   1.911  16.776  0.3142 -1.3907 -1.4084
20255LIG    H1982296   5.274   2.063  16.485 -2.3178 -0.6277  0.4287
20255LIG    H2082297   5.030   1.679  17.016  0.8217 -0.6732 -0.1923
20255LIG    H2182298   5.055   1.550  16.459 -1.0784 -1.1858  0.4052
20255LIG    H2282299   5.099   1.925  16.239  1.9495 -0.8784  0.5052
   6.84391   6.84391  17.17224
